Title
82341
    1SAPS     N    1   5.901   5.728  11.328 -0.1044  0.2222 -0.3044
    1SAPS   HN1    2   5.823   5.791  11.302 -0.4456  0.4816  1.2795
    1SAPS   HN2    3   5.992   5.771  11.355  0.0803 -1.0016  1.1634
    1SAPS   HN3    4   5.913   5.666  11.245  0.5622 -0.5559  0.3408
    1SAPS   C12    5   5.860   5.647  11.448 -0.2323 -0.2281  0.0709
    1SAPS  H12A    6   5.944   5.580  11.457  1.0903  1.3797  0.1573
    1SAPS   C13    7   5.844   5.717  11.574 -0.2777 -0.2379 -0.6391
    1SAPS  O13A    8   5.854   5.842  11.579 -0.2558 -0.0007  0.0563
    1SAPS  O13B    9   5.797   5.654  11.676 -0.5204  0.6188 -0.2574
    1SAPS   C11   10   5.739   5.563  11.413  0.1809 -1.0130 -0.6538
    1SAPS  H11A   11   5.646   5.618  11.387 -1.7079 -1.6048  3.8209
    1SAPS  H11B   12   5.711   5.494  11.496 -2.3007  1.4131  0.7178
    1SAPS     P   13   5.670   5.359  11.269 -0.0026  0.6887  0.2876
    1SAPS   O13   14   5.729   5.229  11.312 -0.4166  0.1762  0.1069
    1SAPS   O14   15   5.531   5.386  11.311 -0.8036  0.1977 -0.3810
    1SAPS   O12   16   5.773   5.478  11.305  0.1686 -0.2573 -0.5453
    1SAPS   O11   17   5.673   5.353  11.108  0.1972  0.5305 -0.1765
    1SAPS    C1   18   5.581   5.275  11.034 -0.8801  0.5174 -0.3945
    1SAPS    HA   19   5.540   5.185  11.085 -0.7650  0.3584 -0.5798
    1SAPS    HB   20   5.504   5.351  11.011 -1.1537 -0.2027 -2.0124
    1SAPS    C2   21   5.630   5.236  10.894  0.1551  0.1858 -0.0044
    1SAPS    HS   22   5.693   5.147  10.911 -0.7021 -0.0301  2.5494
    1SAPS   O21   23   5.701   5.354  10.839  0.5401 -0.6152  0.3313
    1SAPS   C21   24   5.782   5.322  10.745  0.0778 -0.4014 -0.0348
    1SAPS   O22   25   5.832   5.212  10.728 -0.7267 -0.0284 -0.2516
    1SAPS   C22   26   5.819   5.456  10.675  0.1760 -0.5204  0.4918
    1SAPS   H2R   27   5.732   5.504  10.625  0.2121 -2.4470 -1.5754
    1SAPS   H2S   28   5.857   5.531  10.748 -0.5282  2.5190 -2.0422
    1SAPS    C3   29   5.505   5.195  10.809  0.5832  0.6343 -0.0341
    1SAPS    HX   30   5.429   5.274  10.792 -0.3259 -0.5829 -1.9331
    1SAPS    HY   31   5.456   5.106  10.854  2.2381 -1.9712 -3.0792
    1SAPS   O31   32   5.547   5.157  10.679  0.4826  0.0912 -0.2370
    1SAPS   C31   33   5.582   5.035  10.672 -0.2158  0.6074  0.3630
    1SAPS   O32   34   5.574   4.948  10.759 -0.2819  0.1777 -0.0930
    1SAPS   C32   35   5.632   5.009  10.525  0.4285 -0.4292 -0.5760
    1SAPS   H2X   36   5.679   5.103  10.489 -0.8194  0.3246 -0.3451
    1SAPS   H2Y   37   5.534   4.990  10.475  0.4860 -1.5494 -0.2752
    1SAPS   C23   38   5.936   5.432  10.575  0.4463 -0.1260 -0.2780
    1SAPS   H3R   39   6.027   5.390  10.622 -0.7293  1.8171  4.2813
    1SAPS   H3S   40   5.981   5.534  10.565  3.1289 -1.1112  0.7255
    1SAPS   C24   41   5.900   5.371  10.438  0.1460 -0.1614  0.1327
    1SAPS   H4R   42   5.857   5.270  10.457 -0.1111 -0.0193  0.3238
    1SAPS   H4S   43   5.993   5.355  10.380 -1.2201 -3.8357 -1.3533
    1SAPS   C25   44   5.798   5.449  10.358 -0.0682 -0.3429  0.1669
    1SAPS   H5R   45   5.724   5.494  10.425  0.1734 -0.7162  0.6839
    1SAPS   C26   46   5.778   5.454  10.225 -0.1808 -1.2678 -0.2090
    1SAPS   H6R   47   5.698   5.518  10.184 -0.1016 -0.9917  0.0562
    1SAPS   C27   48   5.870   5.387  10.127  0.0645  0.7421  0.7747
    1SAPS   H7R   49   5.914   5.305  10.188  0.7105  1.2700  1.0287
    1SAPS   H7S   50   5.956   5.446  10.088  0.6910 -0.5513  0.1240
    1SAPS   C28   51   5.784   5.325  10.028 -0.0347  0.5010 -0.6906
    1SAPS   H8R   52   5.732   5.235  10.064  1.2935 -0.3862 -0.8756
    1SAPS   C29   53   5.760   5.355   9.903  0.5512 -0.2716  0.2185
    1SAPS   H9R   54   5.692   5.298   9.838  1.8957  0.2664 -1.7652
    1SAPS  C210   55   5.837   5.464   9.830 -0.0207 -0.0148  0.2452
    1SAPS  H10R   56   5.877   5.552   9.885 -0.9700  1.1539 -0.8935
    1SAPS  H10S   57   5.773   5.529   9.767 -0.4305  0.3859  1.0660
    1SAPS  C211   58   5.941   5.384   9.759 -0.0211  0.4472 -0.3571
    1SAPS  H11R   59   6.030   5.357   9.817 -0.5014 -0.4736 -0.0223
    1SAPS  C212   60   5.938   5.355   9.626  0.5372 -0.1632 -0.4879
    1SAPS  H12R   61   6.021   5.300   9.579  1.2113 -1.5263  2.0849
    1SAPS  C213   62   5.833   5.398   9.526  0.3368  0.7832  0.0965
    1SAPS  H13R   63   5.737   5.413   9.580 -0.8151 -1.6939 -1.0652
    1SAPS  H13S   64   5.806   5.316   9.456  1.2625 -1.4731  2.2391
    1SAPS  C214   65   5.864   5.527   9.451 -0.2083 -0.6362  0.4536
    1SAPS  H14R   66   5.895   5.619   9.503 -3.4464  1.2763 -0.7195
    1SAPS  C215   67   5.864   5.546   9.317 -0.3520 -0.2268 -0.1186
    1SAPS  H15R   68   5.899   5.646   9.285  1.2988 -1.3229 -1.9660
    1SAPS  C216   69   5.828   5.440   9.214 -0.0562 -0.4117  0.0816
    1SAPS  H16R   70   5.718   5.427   9.220 -0.0637 -0.9201 -1.0050
    1SAPS  H16S   71   5.864   5.338   9.239  2.2273  0.7375  1.8764
    1SAPS  C217   72   5.876   5.481   9.073 -0.2235  0.0436 -0.1767
    1SAPS  H17R   73   5.987   5.474   9.071 -0.2355 -0.8225  0.9482
    1SAPS  H17S   74   5.847   5.587   9.057  1.5567  0.9532  2.0647
    1SAPS  C218   75   5.819   5.392   8.971  0.0651  0.7745  0.8122
    1SAPS  H18R   76   5.848   5.287   8.991 -0.2111  0.2384 -1.3163
    1SAPS  H18S   77   5.862   5.423   8.874  1.0249 -3.4707 -0.3386
    1SAPS  C219   78   5.668   5.412   8.948  0.6223 -0.5038 -0.7374
    1SAPS  H19R   79   5.641   5.515   8.979 -1.1890 -2.0593  3.5969
    1SAPS  H19S   80   5.612   5.346   9.017 -0.6023  0.1330 -1.0810
    1SAPS  C220   81   5.620   5.394   8.802  0.2436  0.0896 -0.2866
    1SAPS  H20R   82   5.521   5.444   8.788  0.3773  0.5851  0.4552
    1SAPS  H20S   83   5.609   5.286   8.778  1.8977  0.5856 -3.9487
    1SAPS  H20T   84   5.695   5.441   8.736  2.9980 -1.4055  1.5881
    1SAPS   C33   85   5.732   4.897  10.517 -0.1088  0.6778 -0.3908
    1SAPS   H3X   86   5.684   4.797  10.522  0.1524  0.4804 -1.4557
    1SAPS   H3Y   87   5.811   4.910  10.594 -1.0446 -1.8183  1.1064
    1SAPS   C34   88   5.811   4.903  10.384  0.5321 -0.2936 -0.4900
    1SAPS   H4X   89   5.862   4.807  10.365  1.1170  0.1956 -1.4473
    1SAPS   H4Y   90   5.892   4.979  10.390  0.6428 -0.4548  0.2136
    1SAPS   C35   91   5.718   4.925  10.268  0.0415 -0.0149 -0.2586
    1SAPS   H5X   92   5.670   5.025  10.261 -1.1219 -0.2600  2.7458
    1SAPS   H5Y   93   5.639   4.847  10.262  0.1507  0.0079 -3.1159
    1SAPS   C36   94   5.789   4.907  10.141 -0.5041 -0.0844 -0.5946
    1SAPS   H6X   95   5.839   4.808  10.137  0.6764  0.5258 -1.3344
    1SAPS   H6Y   96   5.866   4.986  10.131 -0.8709  0.2768 -0.5639
    1SAPS   C37   97   5.695   4.913  10.023 -0.6061  0.6011 -0.5684
    1SAPS   H7X   98   5.642   5.009  10.037 -1.1449  0.6544 -2.6488
    1SAPS   H7Y   99   5.620   4.831  10.019 -1.1194  1.1131 -2.2909
    1SAPS   C38  100   5.781   4.908   9.895  0.3719  0.0310 -0.0508
    1SAPS   H8X  101   5.838   4.812   9.897 -0.3170 -0.4024 -0.7198
    1SAPS   H8Y  102   5.845   4.999   9.893 -1.7874  1.6108 -0.5328
    1SAPS   C39  103   5.701   4.914   9.769  0.5228  0.1673  0.8759
    1SAPS   H9X  104   5.625   4.994   9.782 -0.0133 -0.3652  1.1124
    1SAPS   H9Y  105   5.639   4.822   9.758  0.4166  0.0240  2.5402
    1SAPS  C310  106   5.776   4.928   9.641  0.0553  0.1748 -0.1887
    1SAPS  H10X  107   5.825   4.833   9.613 -1.7337 -1.4774  1.9354
    1SAPS  H10Y  108   5.858   5.001   9.659  0.4790 -0.3859  0.1772
    1SAPS  C311  109   5.699   4.989   9.518  0.1494 -0.5729  0.0866
    1SAPS  H11X  110   5.694   5.099   9.536 -0.4288 -0.5298 -0.2898
    1SAPS  H11Y  111   5.597   4.946   9.507 -0.6078  1.1197  0.0886
    1SAPS  C312  112   5.779   4.967   9.393  0.7397 -0.5935  0.4854
    1SAPS  H12X  113   5.792   4.859   9.370  0.7752 -0.1375 -1.8234
    1SAPS  H12Y  114   5.880   5.011   9.402  0.1225  0.7523  1.1801
    1SAPS  C313  115   5.710   5.045   9.275 -0.2421 -0.8519 -0.0551
    1SAPS  H13X  116   5.692   5.150   9.306 -3.1000 -1.5698  0.9984
    1SAPS  H13Y  117   5.607   5.014   9.248 -0.7426  0.3256  0.3987
    1SAPS  C314  118   5.803   5.064   9.152 -0.4678 -0.0071 -0.2957
    1SAPS  H14X  119   5.889   5.133   9.166 -0.7966  0.2310  0.6133
    1SAPS  H14Y  120   5.744   5.103   9.067 -2.7755 -1.5289  0.5060
    1SAPS  C315  121   5.872   4.924   9.122  0.4729  0.1246 -0.1469
    1SAPS  H15X  122   5.801   4.840   9.136  1.0444 -0.1938  0.9068
    1SAPS  H15Y  123   5.952   4.906   9.196 -0.4404  0.0020  0.8416
    1SAPS  C316  124   5.927   4.917   8.983 -0.7774  0.1270 -0.0908
    1SAPS  H16X  125   5.994   5.006   8.975 -3.3654  2.5036  2.4266
    1SAPS  H16Y  126   5.840   4.932   8.916 -0.3417  0.9848 -0.4850
    1SAPS  C317  127   6.003   4.792   8.936 -0.5728 -0.7125  0.3576
    1SAPS  H17X  128   5.924   4.714   8.938 -1.2778 -0.0054  0.3138
    1SAPS  H17Y  129   6.088   4.767   9.003 -2.1480 -1.6831  2.0983
    1SAPS  C318  130   6.052   4.792   8.794 -0.2709 -0.3237  0.3556
    1SAPS  H18X  131   6.115   4.882   8.776 -1.3989  0.2158 -1.1385
    1SAPS  H18Y  132   5.969   4.809   8.723 -0.4605  1.8049  0.9957
    1SAPS  H18Z  133   6.110   4.701   8.768  2.4438  1.3344  0.2297
    2SAPS     N  134   4.734   4.558  11.166  0.4174 -0.2465  0.2087
    2SAPS   HN1  135   4.707   4.458  11.177  0.0960  0.0394  2.3535
    2SAPS   HN2  136   4.656   4.616  11.200  2.3447  1.6514  1.6680
    2SAPS   HN3  137   4.742   4.564  11.062  1.1252 -1.4611  0.1704
    2SAPS   C12  138   4.858   4.606  11.228  0.4097 -0.4014 -0.4065
    2SAPS  H12A  139   4.892   4.688  11.167 -0.4093  0.0842 -0.2262
    2SAPS   C13  140   4.842   4.667  11.369  0.2680 -0.5931  0.3036
    2SAPS  O13A  141   4.723   4.669  11.417  0.2824  0.3225 -0.5202
    2SAPS  O13B  142   4.943   4.721  11.421  0.7828 -0.5084  1.1883
    2SAPS   C11  143   4.956   4.494  11.227 -0.0394 -0.4215  0.3004
    2SAPS  H11A  144   4.905   4.406  11.272  0.3086 -1.2393 -0.8692
    2SAPS  H11B  145   5.041   4.522  11.293 -0.2182  1.6096 -0.2477
    2SAPS     P  146   5.022   4.315  11.044  0.6207 -0.1244  0.5183
    2SAPS   O13  147   5.108   4.242  11.135  0.1574  0.0934 -0.5788
    2SAPS   O14  148   4.896   4.252  10.991  0.3596 -0.6114 -0.1911
    2SAPS   O12  149   4.996   4.461  11.092  0.3927 -0.0725  0.0193
    2SAPS   O11  150   5.110   4.345  10.913  0.1731  0.0908 -0.2327
    2SAPS    C1  151   5.058   4.426  10.808 -0.1174 -0.2614  0.1694
    2SAPS    HA  152   4.952   4.453  10.827  0.1008  1.0157 -0.3428
    2SAPS    HB  153   5.117   4.520  10.806 -2.7150  1.4892  1.1715
    2SAPS    C2  154   5.066   4.339  10.679  0.2917 -0.4081 -0.3123
    2SAPS    HS  155   5.149   4.382  10.620 -0.2842  0.2338 -0.6672
    2SAPS   O21  156   4.944   4.364  10.608  0.3034  0.4640 -0.1245
    2SAPS   C21  157   4.941   4.479  10.538 -0.2927  0.6169 -0.0100
    2SAPS   O22  158   5.038   4.538  10.505 -0.0780  0.0512 -0.3251
    2SAPS   C22  159   4.803   4.515  10.492  0.0127  0.4823 -0.5512
    2SAPS   H2R  160   4.740   4.511  10.584  1.8696 -1.2377  0.7137
    2SAPS   H2S  161   4.803   4.621  10.460 -2.4694  0.9310  0.6278
    2SAPS    C3  162   5.090   4.189  10.703 -0.3235 -0.7568 -0.4303
    2SAPS    HX  163   5.006   4.159  10.769  0.9139 -2.4574  0.4721
    2SAPS    HY  164   5.180   4.162  10.763 -1.3702  0.2989  1.7060
    2SAPS   O31  165   5.072   4.114  10.588  0.4322  1.2158  0.5400
    2SAPS   C31  166   5.180   4.091  10.516  1.0258 -0.3643  0.5966
    2SAPS   O32  167   5.293   4.135  10.528 -0.0678 -0.1711  0.2013
    2SAPS   C32  168   5.144   3.994  10.402  0.0234 -0.9078  0.6227
    2SAPS   H2X  169   5.092   3.907  10.447  0.9156 -1.6393  0.2792
    2SAPS   H2Y  170   5.242   3.956  10.366  0.3591  0.4958 -0.0336
    2SAPS   C23  171   4.741   4.422  10.391  0.3236 -0.3297 -0.7429
    2SAPS   H3R  172   4.634   4.448  10.384  0.1176 -1.1659 -0.8504
    2SAPS   H3S  173   4.741   4.316  10.427 -3.4917  0.1589  1.1896
    2SAPS   C24  174   4.809   4.424  10.254 -0.0294 -1.1341 -0.3895
    2SAPS   H4R  175   4.918   4.410  10.270 -0.1334  1.1103  3.3499
    2SAPS   H4S  176   4.801   4.530  10.221 -0.6186 -1.1714 -0.3773
    2SAPS   C25  177   4.733   4.325  10.166  0.0963 -0.0301 -0.3006
    2SAPS   H5R  178   4.709   4.232  10.221  1.5241  0.0065  0.4217
    2SAPS   C26  179   4.678   4.352  10.045  0.2774  0.1729 -0.8482
    2SAPS   H6R  180   4.621   4.267  10.004  0.6595  0.5599 -2.2372
    2SAPS   C27  181   4.677   4.480   9.973  0.1250  0.2325 -0.1527
    2SAPS   H7R  182   4.685   4.570  10.038 -0.1206 -0.6001  1.0485
    2SAPS   H7S  183   4.581   4.488   9.918  0.8441 -0.5414 -1.6012
    2SAPS   C28  184   4.798   4.485   9.882 -0.1633 -0.4790  0.4877
    2SAPS   H8R  185   4.894   4.480   9.936 -0.0913  1.9048  0.6579
    2SAPS   C29  186   4.803   4.519   9.751  0.5451  0.8146  0.8471
    2SAPS   H9R  187   4.897   4.510   9.694 -0.5732 -2.1696 -0.7610
    2SAPS  C210  188   4.686   4.543   9.662  0.0371 -0.8855  0.5633
    2SAPS  H10R  189   4.696   4.639   9.607 -0.5792 -1.6076 -0.8898
    2SAPS  H10S  190   4.585   4.536   9.707 -0.7611  1.7794 -0.5802
    2SAPS  C211  191   4.674   4.421   9.575 -0.6287 -0.6493  0.0335
    2SAPS  H11R  192   4.723   4.332   9.617  0.1049  0.1761  0.9615
    2SAPS  C212  193   4.611   4.424   9.462  0.0013 -0.0751  0.4328
    2SAPS  H12R  194   4.609   4.336   9.396  0.1692  0.1342  0.1470
    2SAPS  C213  195   4.551   4.552   9.413  0.6927 -0.8291  0.6100
    2SAPS  H13R  196   4.625   4.633   9.397  1.1853 -1.3598  0.2164
    2SAPS  H13S  197   4.484   4.581   9.498  0.8022  4.2464 -0.6673
    2SAPS  C214  198   4.461   4.526   9.292 -0.5658 -0.3917 -0.0680
    2SAPS  H14R  199   4.455   4.424   9.250 -3.6169  0.0487 -0.9357
    2SAPS  C215  200   4.436   4.622   9.200 -0.0491 -1.1945 -0.2725
    2SAPS  H15R  201   4.368   4.604   9.116  0.4365  0.2352 -1.0032
    2SAPS  C216  202   4.483   4.765   9.211  0.2028 -0.3386 -0.1620
    2SAPS  H16R  203   4.570   4.776   9.143  0.2852  0.3356  0.0392
    2SAPS  H16S  204   4.521   4.790   9.313 -1.9902 -0.0958  0.6560
    2SAPS  C217  205   4.369   4.866   9.180  0.3716  0.2313 -0.2466
    2SAPS  H17R  206   4.401   4.972   9.186  0.2100  0.2290  0.9930
    2SAPS  H17S  207   4.285   4.854   9.251  0.3504  0.1890 -0.2787
    2SAPS  C218  208   4.298   4.862   9.044  0.3897 -0.3210 -0.1080
    2SAPS  H18R  209   4.246   4.764   9.035  0.1687 -0.0606 -1.8523
    2SAPS  H18S  210   4.369   4.868   8.959 -2.3777  2.3965 -2.4536
    2SAPS  C219  211   4.188   4.977   9.024  0.1502  1.0476 -0.7933
    2SAPS  H19R  212   4.101   4.950   9.086 -0.3820  0.6699 -1.6868
    2SAPS  H19S  213   4.140   4.975   8.924  1.1745  1.7032 -1.3230
    2SAPS  C220  214   4.229   5.122   9.063  0.4550  0.1935  0.1379
    2SAPS  H20R  215   4.140   5.188   9.061  0.6567  1.2128  6.4717
    2SAPS  H20S  216   4.306   5.167   8.996  3.1798 -0.7670  2.4394
    2SAPS  H20T  217   4.260   5.110   9.169 -2.2491 -0.1125  0.9774
    2SAPS   C33  218   5.074   4.073  10.285  0.2633  0.6816 -0.2449
    2SAPS   H3X  219   4.981   4.119  10.325  0.5441 -1.4224  3.2221
    2SAPS   H3Y  220   5.056   3.999  10.204  1.5639  0.6891 -0.5615
    2SAPS   C34  221   5.162   4.180  10.218 -0.1790  0.4660  0.1822
    2SAPS   H4X  222   5.260   4.130  10.203 -0.0636  0.4906  0.8166
    2SAPS   H4Y  223   5.187   4.259  10.292  4.3866 -0.2788 -0.2499
    2SAPS   C35  224   5.102   4.229  10.080  0.3107 -0.2986  0.0515
    2SAPS   H5X  225   5.025   4.306  10.099  1.8200  0.5193  3.8359
    2SAPS   H5Y  226   5.055   4.149  10.019  2.0554  0.3436 -2.2889
    2SAPS   C36  227   5.209   4.300   9.993 -0.6332  0.4049 -0.2802
    2SAPS   H6X  228   5.307   4.248  10.000 -0.2848  0.5584 -2.8981
    2SAPS   H6Y  229   5.229   4.406  10.021 -1.9655  0.2383  1.4727
    2SAPS   C37  230   5.172   4.299   9.840  0.1179 -0.0781  0.4666
    2SAPS   H7X  231   5.252   4.355   9.787 -0.8323  1.6596  0.7881
    2SAPS   H7Y  232   5.074   4.349   9.827 -0.6555 -1.4677  0.7878
    2SAPS   C38  233   5.158   4.164   9.769  0.6607  0.2429 -0.6229
    2SAPS   H8X  234   5.075   4.102   9.809  1.8852 -0.3974  1.0210
    2SAPS   H8Y  235   5.246   4.098   9.782  0.6210  0.3088  0.0119
    2SAPS   C39  236   5.132   4.177   9.615 -0.1598  0.4450  0.7891
    2SAPS   H9X  237   5.191   4.264   9.581 -0.0021  0.7157  1.7252
    2SAPS   H9Y  238   5.024   4.196   9.597 -0.8115 -2.0088  1.5824
    2SAPS  C310  239   5.177   4.053   9.537 -0.1360  0.1900  0.0548
    2SAPS  H10X  240   5.104   3.974   9.567  0.9878 -0.7425  0.3916
    2SAPS  H10Y  241   5.277   4.013   9.563 -0.5186 -2.3704 -1.9297
    2SAPS  C311  242   5.176   4.086   9.382  0.0547  0.4135 -1.1434
    2SAPS  H11X  243   5.208   4.192   9.370 -1.5299  0.8748 -1.4852
    2SAPS  H11Y  244   5.073   4.075   9.342  0.2270  0.2189 -1.5460
    2SAPS  C312  245   5.260   3.988   9.296  0.0662 -0.1392 -0.2285
    2SAPS  H12X  246   5.208   3.892   9.316 -0.0824  0.4502  2.6195
    2SAPS  H12Y  247   5.357   3.986   9.351 -0.4896  0.0711  0.7959
    2SAPS  C313  248   5.257   4.030   9.145 -0.3542 -0.2420 -0.6014
    2SAPS  H13X  249   5.327   3.960   9.095  1.0929 -0.5678  1.7381
    2SAPS  H13Y  250   5.301   4.132   9.143  0.0998 -0.3640  1.1605
    2SAPS  C314  251   5.116   4.013   9.088  0.1798 -0.3505  0.1428
    2SAPS  H14X  252   5.063   4.110   9.102  0.1267 -0.4923  0.9811
    2SAPS  H14Y  253   5.065   3.927   9.136 -0.5545  0.4601  0.8653
    2SAPS  C315  254   5.127   3.991   8.930 -0.1065 -0.7435 -0.3594
    2SAPS  H15X  255   5.207   3.915   8.920  0.3364 -0.3091 -0.2210
    2SAPS  H15Y  256   5.174   4.080   8.882 -0.6922 -0.4356 -0.3742
    2SAPS  C316  257   4.998   3.959   8.848 -0.3568 -1.1803 -0.3948
    2SAPS  H16X  258   4.941   4.055   8.846  0.9442 -0.2469  2.1375
    2SAPS  H16Y  259   4.929   3.894   8.906 -0.7127  0.0455  0.6321
    2SAPS  C317  260   5.027   3.902   8.715  0.0578  0.1225  0.4353
    2SAPS  H17X  261   4.931   3.896   8.659 -0.7816 -1.7157  1.9723
    2SAPS  H17Y  262   5.055   3.796   8.727 -1.5782 -0.5760 -1.4650
    2SAPS  C318  263   5.117   3.984   8.625 -0.2659  0.2075  0.4817
    2SAPS  H18X  264   5.085   3.965   8.521 -0.5838 -1.3693  0.8415
    2SAPS  H18Y  265   5.224   3.954   8.627 -0.2533  0.1031  3.3517
    2SAPS  H18Z  266   5.105   4.091   8.651  0.1287 -0.1541  2.3159
    3SAPS     N  267   5.479   0.479  11.237  0.6965  0.1690 -0.2410
    3SAPS   HN1  268   5.379   0.451  11.232  1.1607 -1.3394 -2.0966
    3SAPS   HN2  269   5.498   0.503  11.337 -0.4464 -2.4125  0.6956
    3SAPS   HN3  270   5.487   0.566  11.182  1.1078  1.6624  2.0460
    3SAPS   C12  271   5.567   0.370  11.190 -0.3619 -0.2211  0.0902
    3SAPS  H12A  272   5.670   0.403  11.196 -0.3877  0.8309 -3.0811
    3SAPS   C13  273   5.554   0.236  11.279 -0.4924 -0.0345  0.1533
    3SAPS  O13A  274   5.469   0.230  11.370  0.1000  0.4921 -0.1915
    3SAPS  O13B  275   5.641   0.152  11.250  0.0586  0.0074  0.1607
    3SAPS   C11  276   5.529   0.342  11.038  0.4169  0.4088 -0.3696
    3SAPS  H11A  277   5.578   0.257  10.986 -2.2002 -1.2989 -0.2248
    3SAPS  H11B  278   5.558   0.432  10.980 -0.3429 -0.3176 -1.9514
    3SAPS     P  279   5.303   0.401  10.908  0.1001  0.1510 -0.1346
    3SAPS   O13  280   5.161   0.428  10.952 -0.2651 -0.4270 -0.0319
    3SAPS   O14  281   5.386   0.512  10.847 -0.0795  0.4236 -0.5104
    3SAPS   O12  282   5.381   0.327  11.029  0.7170  0.3519 -0.0640
    3SAPS   O11  283   5.296   0.283  10.808 -0.1054  0.2407  0.0979
    3SAPS    C1  284   5.419   0.235  10.744 -0.4681  0.0805 -0.9651
    3SAPS    HA  285   5.509   0.297  10.763  0.9716 -1.9935 -0.7406
    3SAPS    HB  286   5.441   0.134  10.785 -1.8363 -0.2263 -0.9111
    3SAPS    C2  287   5.407   0.229  10.595  0.0965  0.1437  0.6286
    3SAPS    HS  288   5.480   0.153  10.560 -1.1391 -0.3706 -1.0146
    3SAPS   O21  289   5.408   0.370  10.536  0.1736  0.2172 -0.3496
    3SAPS   C21  290   5.523   0.419  10.524 -0.1853  0.2342 -0.3856
    3SAPS   O22  291   5.631   0.363  10.545  0.0280 -0.6740 -0.0026
    3SAPS   C22  292   5.519   0.556  10.459 -0.0570 -0.4704 -0.3995
    3SAPS   H2R  293   5.413   0.579  10.433 -0.1541  0.6654  0.9272
    3SAPS   H2S  294   5.555   0.625  10.538 -0.2741  1.1855 -1.6969
    3SAPS    C3  295   5.268   0.174  10.542 -0.7796  0.1065  0.1796
    3SAPS    HX  296   5.187   0.248  10.558 -1.0727 -0.4490  1.3998
    3SAPS    HY  297   5.238   0.088  10.605 -0.9617  1.5157  2.0875
    3SAPS   O31  298   5.273   0.140  10.403  0.3433  0.4292 -0.5559
    3SAPS   C31  299   5.329   0.028  10.377 -0.5751  0.0945  0.0516
    3SAPS   O32  300   5.386  -0.041  10.457  0.0226  0.4407  0.2754
    3SAPS   C32  301   5.333  -0.004  10.225 -0.1715 -0.3966 -0.3303
    3SAPS   H2X  302   5.365   0.095  10.184 -0.3372  0.2991  1.1710
    3SAPS   H2Y  303   5.230  -0.035  10.197 -0.3548 -0.1234  0.0380
    3SAPS   C23  304   5.623   0.571  10.340  0.3909  0.3320 -0.0837
    3SAPS   H3R  305   5.723   0.547  10.382 -0.8253 -2.0376  1.7523
    3SAPS   H3S  306   5.607   0.674  10.303 -1.7444  0.1802  0.2861
    3SAPS   C24  307   5.612   0.464  10.224  0.4664  0.6548 -0.4921
    3SAPS   H4R  308   5.625   0.371  10.284 -0.2185  0.2274 -0.9964
    3SAPS   H4S  309   5.702   0.465  10.159  1.4837  0.6623  0.8737
    3SAPS   C25  310   5.477   0.473  10.162  0.6407 -0.1092  0.0413
    3SAPS   H5R  311   5.393   0.444  10.228 -1.3914 -0.8299 -2.6709
    3SAPS   C26  312   5.454   0.511  10.038  0.1675 -0.4840 -0.4193
    3SAPS   H6R  313   5.352   0.506   9.998 -0.0793  0.1345  0.1061
    3SAPS   C27  314   5.553   0.562   9.935  0.3692 -0.4636 -0.4297
    3SAPS   H7R  315   5.573   0.478   9.865  0.0471  0.2515 -1.4021
    3SAPS   H7S  316   5.645   0.600   9.984  1.9226 -2.9986 -1.1839
    3SAPS   C28  317   5.503   0.683   9.857 -0.1696  0.1817  0.1833
    3SAPS   H8R  318   5.447   0.757   9.917  0.0277  1.7496 -1.4934
    3SAPS   C29  319   5.504   0.702   9.725 -0.4310  0.0086  0.3788
    3SAPS   H9R  320   5.464   0.795   9.681 -0.1013  0.4163  0.9322
    3SAPS  C210  321   5.553   0.611   9.616 -0.2171  0.3903  0.4478
    3SAPS  H10R  322   5.515   0.649   9.518 -0.4892 -1.1475 -0.0741
    3SAPS  H10S  323   5.508   0.509   9.618  0.6429  0.0054  0.6910
    3SAPS  C211  324   5.706   0.590   9.614  0.4720  0.7275 -0.0869
    3SAPS  H11R  325   5.751   0.577   9.713  0.8130  0.5373 -0.2671
    3SAPS  C212  326   5.795   0.584   9.512  0.6955 -0.4713 -0.3133
    3SAPS  H12R  327   5.903   0.581   9.532  1.1642 -0.8514 -2.5878
    3SAPS  C213  328   5.750   0.591   9.365 -0.2063  0.1121 -0.1874
    3SAPS  H13R  329   5.645   0.558   9.353 -1.0016  1.3595  2.5828
    3SAPS  H13S  330   5.804   0.514   9.306  0.2502  0.1949  0.1091
    3SAPS  C214  331   5.773   0.726   9.308 -0.4522 -0.5855  0.1612
    3SAPS  H14R  332   5.812   0.803   9.377  2.1387 -2.4075  0.8869
    3SAPS  C215  333   5.757   0.753   9.182  0.3161 -0.0463  0.2908
    3SAPS  H15R  334   5.764   0.857   9.149 -3.3914  0.2867  0.1358
    3SAPS  C216  335   5.710   0.656   9.071 -0.5485 -0.5620 -0.3090
    3SAPS  H16R  336   5.616   0.701   9.032 -0.4754  0.2101  0.3866
    3SAPS  H16S  337   5.678   0.557   9.110 -0.1596 -1.8243 -2.9431
    3SAPS  C217  338   5.799   0.643   8.947  0.0652 -0.3665 -0.5228
    3SAPS  H17R  339   5.888   0.584   8.979  0.1344 -0.7192 -1.3391
    3SAPS  H17S  340   5.833   0.743   8.913 -1.1047  0.5372  0.8919
    3SAPS  C218  341   5.717   0.570   8.841 -0.0962  0.3057  0.0847
    3SAPS  H18R  342   5.624   0.625   8.814  0.5721  1.8829  0.8847
    3SAPS  H18S  343   5.674   0.479   8.888 -0.6250  0.2049 -0.5694
    3SAPS  C219  344   5.788   0.533   8.710  0.4104 -0.5075  0.2704
    3SAPS  H19R  345   5.872   0.463   8.726  2.0606  1.3872  0.2673
    3SAPS  H19S  346   5.826   0.629   8.667 -0.0647 -0.6795 -0.5659
    3SAPS  C220  347   5.688   0.477   8.606 -0.2336  0.2729 -0.9552
    3SAPS  H20R  348   5.628   0.394   8.650  2.9235 -1.8542 -0.3386
    3SAPS  H20S  349   5.741   0.444   8.513  2.5836 -0.5469  0.8097
    3SAPS  H20T  350   5.620   0.556   8.569 -0.5078  0.2986 -0.4056
    3SAPS   C33  351   5.431  -0.119  10.193 -0.5234 -1.1558 -0.7520
    3SAPS   H3X  352   5.402  -0.211  10.248 -0.3779  0.3337  2.0085
    3SAPS   H3Y  353   5.532  -0.082  10.223 -1.3044 -0.7281  1.5058
    3SAPS   C34  354   5.431  -0.124  10.040  0.5123 -0.3558  0.0109
    3SAPS   H4X  355   5.524  -0.179  10.014 -0.1330 -2.0089  1.1186
    3SAPS   H4Y  356   5.441  -0.023   9.993  0.9523  0.0558  0.9662
    3SAPS   C35  357   5.308  -0.202   9.985  0.0558 -0.3867  0.2130
    3SAPS   H5X  358   5.219  -0.146  10.020  1.2899  0.9767  1.3447
    3SAPS   H5Y  359   5.306  -0.303  10.032  0.4951 -0.0981  0.8765
    3SAPS   C36  360   5.282  -0.238   9.835 -0.0637  0.4327  0.2207
    3SAPS   H6X  361   5.217  -0.327   9.822 -1.0898  1.0150  1.1237
    3SAPS   H6Y  362   5.371  -0.278   9.784 -1.3731 -0.5622 -1.3970
    3SAPS   C37  363   5.226  -0.125   9.756 -0.0223 -0.5739 -0.1210
    3SAPS   H7X  364   5.289  -0.033   9.758 -1.5572  0.5047  0.6828
    3SAPS   H7Y  365   5.129  -0.091   9.799  1.2283  2.4131  0.5927
    3SAPS   C38  366   5.205  -0.169   9.611  0.1832  0.0176  0.5387
    3SAPS   H8X  367   5.123  -0.244   9.602  0.1698  0.1302 -0.4400
    3SAPS   H8Y  368   5.296  -0.219   9.572  3.0791  1.3078  4.9607
    3SAPS   C39  369   5.171  -0.042   9.531  0.1669  0.1266  0.5757
    3SAPS   H9X  370   5.259   0.026   9.536 -0.1767  0.6744 -0.6208
    3SAPS   H9Y  371   5.090   0.024   9.570 -1.2239 -2.2940  2.0043
    3SAPS  C310  372   5.141  -0.075   9.386  0.4231 -0.7971  0.0792
    3SAPS  H10X  373   5.052  -0.142   9.389 -1.2562  1.1573 -2.1527
    3SAPS  H10Y  374   5.227  -0.133   9.345  0.2317 -0.6140 -0.5958
    3SAPS  C311  375   5.110   0.040   9.291  0.5484 -0.0581 -1.1820
    3SAPS  H11X  376   5.210   0.072   9.256  1.2430 -0.0779  0.6740
    3SAPS  H11Y  377   5.065   0.118   9.357  0.1206 -0.7424 -0.6531
    3SAPS  C312  378   5.017  -0.001   9.174  0.6786 -0.2786 -0.0445
    3SAPS  H12X  379   4.917  -0.020   9.218 -0.2238  3.4952 -0.0708
    3SAPS  H12Y  380   5.073  -0.086   9.131  1.2616 -0.0837  0.3108
    3SAPS  C313  381   4.980   0.114   9.077 -1.1353 -0.1236 -0.1465
    3SAPS  H13X  382   4.935   0.202   9.128  2.5698  2.1131 -0.3697
    3SAPS  H13Y  383   4.921   0.079   8.990 -0.0505  0.8269 -1.2988
    3SAPS  C314  384   5.102   0.182   9.019 -0.2235  0.0117  0.2136
    3SAPS  H14X  385   5.174   0.230   9.089  0.6852 -2.0780  0.8026
    3SAPS  H14Y  386   5.072   0.262   8.949  1.8431  0.3861 -0.3172
    3SAPS  C315  387   5.172   0.089   8.920 -0.0024  0.2867 -0.2387
    3SAPS  H15X  388   5.103   0.044   8.845  0.3228 -1.7350  0.6224
    3SAPS  H15Y  389   5.211   0.005   8.981  0.7137  1.2364  0.6511
    3SAPS  C316  390   5.286   0.160   8.849 -0.2734 -0.0100 -0.3290
    3SAPS  H16X  391   5.247   0.253   8.802  1.1412  0.1569 -1.2486
    3SAPS  H16Y  392   5.319   0.102   8.760  0.1601 -1.9360  1.0219
    3SAPS  C317  393   5.405   0.183   8.940  0.0342 -0.2298 -0.1017
    3SAPS  H17X  394   5.394   0.126   9.035 -0.7053  0.1110  0.0270
    3SAPS  H17Y  395   5.400   0.287   8.980  0.3990 -0.2707  0.0557
    3SAPS  C318  396   5.526   0.156   8.864 -0.1287 -0.3920  0.1384
    3SAPS  H18X  397   5.514   0.046   8.848  1.7498 -0.5803 -0.3123
    3SAPS  H18Y  398   5.617   0.171   8.926 -0.3122 -1.8810  0.8016
    3SAPS  H18Z  399   5.537   0.203   8.764 -1.2969 -4.5417 -2.1734
    4SAPS     N  400   0.108   1.799  10.902  0.3582  0.0969 -0.0230
    4SAPS   HN1  401   0.179   1.871  10.883  0.0927  0.3082 -0.2170
    4SAPS   HN2  402   0.093   1.720  10.836 -1.5211 -0.2986  0.7863
    4SAPS   HN3  403   0.017   1.849  10.909  1.0696  1.3076  0.7985
    4SAPS   C12  404   0.129   1.753  11.043 -0.5369  0.8164 -0.1210
    4SAPS  H12A  405   0.100   1.834  11.108  1.8441 -0.2860  2.5324
    4SAPS   C13  406   0.045   1.627  11.071 -0.3148 -0.1747 -0.4867
    4SAPS  O13A  407  -0.018   1.572  10.976 -0.1272  0.3740  0.1645
    4SAPS  O13B  408   0.017   1.591  11.187 -0.1411  0.2156  0.5762
    4SAPS   C11  409   0.280   1.727  11.066 -0.4410 -0.6154  0.0071
    4SAPS  H11A  410   0.315   1.641  11.005  2.4579  0.3916  0.1058
    4SAPS  H11B  411   0.288   1.692  11.171 -1.1421  2.3475  1.1420
    4SAPS     P  412   0.516   1.840  11.033 -0.0302 -0.0063 -0.5557
    4SAPS   O13  413   0.582   1.967  11.070 -0.2579 -0.2166  0.1101
    4SAPS   O14  414   0.563   1.724  11.112 -0.1653  0.0592  0.0956
    4SAPS   O12  415   0.357   1.848  11.029 -0.5330 -0.6300  0.0009
    4SAPS   O11  416   0.559   1.810  10.885 -0.1965  0.3401 -0.7006
    4SAPS    C1  417   0.532   1.901  10.781  0.0603 -0.6827 -0.2493
    4SAPS    HA  418   0.501   2.000  10.822  0.9416 -1.1107  1.5170
    4SAPS    HB  419   0.626   1.912  10.724  0.0765  1.5720  0.1266
    4SAPS    C2  420   0.407   1.856  10.699  0.0030 -0.3205  0.0765
    4SAPS    HS  421   0.327   1.850  10.777  0.9856 -0.2559  1.1169
    4SAPS   O21  422   0.431   1.730  10.633 -0.4367 -0.0453  0.3840
    4SAPS   C21  423   0.330   1.658  10.604 -0.4713  0.5311 -1.3907
    4SAPS   O22  424   0.216   1.668  10.654 -0.2857 -0.0797 -0.8951
    4SAPS   C22  425   0.372   1.542  10.510  0.4013  0.1564  0.0315
    4SAPS   H2R  426   0.470   1.565  10.464 -0.6467  0.9320 -1.9016
    4SAPS   H2S  427   0.386   1.447  10.566 -1.4162 -0.7379 -0.9202
    4SAPS    C3  428   0.358   1.960  10.587 -0.1858  0.1043  0.5646
    4SAPS    HX  429   0.427   1.949  10.500 -0.4844 -0.1776  0.3573
    4SAPS    HY  430   0.365   2.051  10.649 -0.4388 -0.2356  1.1009
    4SAPS   O31  431   0.218   1.933  10.549  0.3872  0.3946 -0.1712
    4SAPS   C31  432   0.183   2.024  10.456  0.2984  0.2951 -0.6289
    4SAPS   O32  433   0.241   2.122  10.426  0.7596  0.4301 -0.1047
    4SAPS   C32  434   0.050   1.984  10.402  0.3994  0.1845 -0.6662
    4SAPS   H2X  435  -0.023   2.025  10.476  0.6220  0.5349 -0.6385
    4SAPS   H2Y  436   0.045   1.874  10.415 -1.7945  0.3514  0.4841
    4SAPS   C23  437   0.258   1.522  10.404 -0.4622  0.7881  0.4084
    4SAPS   H3R  438   0.173   1.484  10.464  0.5077 -0.6121  0.9461
    4SAPS   H3S  439   0.286   1.442  10.333 -0.7186  0.3599  0.7835
    4SAPS   C24  440   0.225   1.643  10.326 -0.0384  0.5476 -0.4439
    4SAPS   H4R  441   0.320   1.685  10.287  1.2309 -0.7878  1.0480
    4SAPS   H4S  442   0.180   1.718  10.394 -1.5385 -2.6808  2.4515
    4SAPS   C25  443   0.122   1.612  10.218 -0.1182  0.3400  0.2915
    4SAPS   H5R  444   0.024   1.578  10.256  0.4489 -1.0277  0.5866
    4SAPS   C26  445   0.145   1.618  10.083  0.6172  0.3000 -0.7543
    4SAPS   H6R  446   0.062   1.582  10.020  1.4630 -0.5521 -1.4095
    4SAPS   C27  447   0.269   1.663  10.010  0.3338  0.8534 -0.2029
    4SAPS   H7R  448   0.315   1.751  10.059 -0.3027  0.6418  0.8071
    4SAPS   H7S  449   0.241   1.696   9.907  1.8681  1.1495 -0.5416
    4SAPS   C28  450   0.377   1.558  10.012 -0.0956  1.0720 -0.9422
    4SAPS   H8R  451   0.403   1.513  10.109  2.6990 -2.0080 -2.9112
    4SAPS   C29  452   0.438   1.502   9.910 -0.4876 -0.4937  0.9088
    4SAPS   H9R  453   0.508   1.419   9.925  0.0963  0.0590  1.2821
    4SAPS  C210  454   0.412   1.535   9.763 -0.7262 -0.0273  0.2659
    4SAPS  H10R  455   0.306   1.564   9.749  0.0216  2.8556  0.0618
    4SAPS  H10S  456   0.431   1.440   9.708 -0.8501 -0.5930  1.1609
    4SAPS  C211  457   0.489   1.658   9.712 -0.2741 -0.8357 -0.3953
    4SAPS  H11R  458   0.471   1.760   9.748  3.6155  0.8133 -2.4922
    4SAPS  C212  459   0.560   1.659   9.596 -0.0627 -0.7506  0.6286
    4SAPS  H12R  460   0.623   1.746   9.569 -1.3982  0.2439  0.6414
    4SAPS  C213  461   0.587   1.541   9.510  0.7209  0.0274  0.3797
    4SAPS  H13R  462   0.639   1.463   9.569 -0.4266 -0.0871  1.2593
    4SAPS  H13S  463   0.668   1.570   9.440  0.3932  0.3201  0.1145
    4SAPS  C214  464   0.480   1.469   9.429 -0.4966 -0.3814  0.2601
    4SAPS  H14R  465   0.467   1.368   9.469 -1.9091 -0.4860 -0.4302
    4SAPS  C215  466   0.397   1.526   9.340  0.4521  1.0264 -0.4505
    4SAPS  H15R  467   0.331   1.459   9.283  1.4618  0.5963 -1.1387
    4SAPS  C216  468   0.391   1.666   9.294  0.1894 -0.1773 -0.0393
    4SAPS  H16R  469   0.466   1.729   9.346 -0.0925 -0.1949  0.3872
    4SAPS  H16S  470   0.295   1.706   9.334 -0.0644 -0.6552 -0.1666
    4SAPS  C217  471   0.399   1.679   9.140 -0.5227 -0.0740  0.3760
    4SAPS  H17R  472   0.314   1.621   9.100  0.7880 -1.9958  0.2449
    4SAPS  H17S  473   0.498   1.655   9.094  0.0114  2.6207 -0.0746
    4SAPS  C218  474   0.386   1.828   9.101 -0.2385  0.4693 -0.3697
    4SAPS  H18R  475   0.441   1.895   9.171 -0.3978 -1.3264  1.5725
    4SAPS  H18S  476   0.276   1.836   9.095 -0.3165 -0.1165  0.1616
    4SAPS  C219  477   0.436   1.846   8.957  0.3353 -0.8359 -1.2501
    4SAPS  H19R  478   0.546   1.834   8.957  0.3216 -0.9728 -1.3735
    4SAPS  H19S  479   0.423   1.951   8.922 -0.4195 -0.7629 -0.7798
    4SAPS  C220  480   0.370   1.752   8.860 -0.2284  0.3904 -0.5957
    4SAPS  H20R  481   0.394   1.788   8.758  0.2962  0.8404 -0.3191
    4SAPS  H20S  482   0.259   1.755   8.869 -0.3466 -2.2204 -0.3069
    4SAPS  H20T  483   0.408   1.648   8.870 -0.6186  0.4568  2.7956
    4SAPS   C33  484   0.007   2.029  10.258  0.3408 -0.0081  0.1322
    4SAPS   H3X  485  -0.016   2.137  10.241 -3.0082 -0.8590 -1.6084
    4SAPS   H3Y  486  -0.083   1.970  10.230  0.0388  0.1881  0.6534
    4SAPS   C34  487   0.121   1.998  10.156  0.1610 -0.3056  0.5021
    4SAPS   H4X  488   0.151   1.891  10.167 -0.2103 -0.3047  1.6655
    4SAPS   H4Y  489   0.204   2.065  10.185 -0.4332  0.6756 -0.0292
    4SAPS   C35  490   0.084   2.024  10.013  0.1568  0.6680  0.0348
    4SAPS   H5X  491   0.019   2.114  10.018 -2.5194 -1.2129  1.9244
    4SAPS   H5Y  492   0.020   1.947   9.965  0.1245  0.3106  0.6407
    4SAPS   C36  493   0.199   2.035   9.918 -0.7778 -0.4810 -0.4604
    4SAPS   H6X  494   0.268   1.949   9.931 -0.3306  0.2875  4.3499
    4SAPS   H6Y  495   0.270   2.120   9.927 -0.4268 -0.8661  0.5852
    4SAPS   C37  496   0.144   2.046   9.779  0.7010 -0.0396 -0.3824
    4SAPS   H7X  497   0.102   2.148   9.768  0.1537  0.2779  3.2121
    4SAPS   H7Y  498   0.054   1.982   9.765 -0.6247  1.5337  0.6278
    4SAPS   C38  499   0.240   2.011   9.664  0.1713 -0.4958  1.7709
    4SAPS   H8X  500   0.179   2.005   9.571  0.9295  2.0930  1.0390
    4SAPS   H8Y  501   0.272   1.906   9.681  0.3000 -0.6693  0.5711
    4SAPS   C39  502   0.341   2.112   9.631  0.1801 -0.3317 -0.1131
    4SAPS   H9X  503   0.407   2.110   9.720 -0.1767 -1.5243  0.1343
    4SAPS   H9Y  504   0.297   2.211   9.606  1.1047  0.0437 -0.2887
    4SAPS  C310  505   0.430   2.082   9.508  0.3858 -0.5926  1.0427
    4SAPS  H10X  506   0.369   2.064   9.417 -0.2456 -1.0155  1.5394
    4SAPS  H10Y  507   0.482   1.990   9.542 -2.7478 -2.3271  1.5657
    4SAPS  C311  508   0.544   2.192   9.490 -0.2604  0.4442 -0.9773
    4SAPS  H11X  509   0.606   2.204   9.582 -1.6337  1.1800 -0.1133
    4SAPS  H11Y  510   0.489   2.288   9.481 -3.7512 -1.1488  1.2351
    4SAPS  C312  511   0.645   2.161   9.378  0.0307  0.0842  0.0185
    4SAPS  H12X  512   0.648   2.051   9.370 -1.6859 -0.2511  2.7269
    4SAPS  H12Y  513   0.744   2.206   9.405  0.0473  1.2179 -1.7879
    4SAPS  C313  514   0.606   2.230   9.248  0.1368  0.1419  0.3960
    4SAPS  H13X  515   0.595   2.341   9.248 -0.0686  0.1721  3.0224
    4SAPS  H13Y  516   0.503   2.193   9.231 -0.3827  2.3918 -2.0196
    4SAPS  C314  517   0.695   2.177   9.131 -0.4811 -0.0581 -0.5074
    4SAPS  H14X  518   0.646   2.199   9.033  0.9608  0.4072 -1.1616
    4SAPS  H14Y  519   0.700   2.067   9.141 -1.2773 -0.0592 -0.0666
    4SAPS  C315  520   0.827   2.255   9.121  0.3757 -0.2917 -0.0941
    4SAPS  H15X  521   0.882   2.264   9.217 -1.0193  1.0090  0.6283
    4SAPS  H15Y  522   0.793   2.359   9.101  0.3292 -0.4346 -0.7778
    4SAPS  C316  523   0.913   2.219   9.002  0.1722 -0.3010  0.0549
    4SAPS  H16X  524   1.004   2.281   8.985  2.6055 -3.3748  0.7488
    4SAPS  H16Y  525   0.863   2.215   8.903  1.6577 -0.0913 -0.7461
    4SAPS  C317  526   0.964   2.075   9.036 -0.2111  0.6176  0.2450
    4SAPS  H17X  527   0.869   2.019   9.052 -0.7441  1.5281  0.3415
    4SAPS  H17Y  528   1.011   2.071   9.136  0.1857 -0.4533  0.0256
    4SAPS  C318  529   1.059   2.013   8.929  0.6298  0.2294  0.1944
    4SAPS  H18X  530   1.087   1.908   8.954 -0.3148 -0.1739 -0.3819
    4SAPS  H18Y  531   1.148   2.079   8.932  1.7120 -1.1977  0.9662
    4SAPS  H18Z  532   1.017   2.026   8.827  1.0048 -1.6976 -0.2494
    5SAPS     N  533   4.143   5.221  11.078 -0.0817  0.6048 -0.3700
    5SAPS   HN1  534   4.074   5.143  11.077 -0.5907  0.8937  2.6673
    5SAPS   HN2  535   4.210   5.203  11.000  0.3925 -1.2286  0.3984
    5SAPS   HN3  536   4.198   5.199  11.163 -0.7547 -1.6121 -0.4333
    5SAPS   C12  537   4.087   5.352  11.073 -0.1365 -0.3276 -0.3376
    5SAPS  H12A  538   4.063   5.382  11.174 -1.5683  0.1995 -0.8181
    5SAPS   C13  539   4.179   5.466  11.023 -0.1662  0.4579 -0.6361
    5SAPS  O13A  540   4.302   5.438  11.000 -0.0296  0.2974 -0.3230
    5SAPS  O13B  541   4.130   5.576  10.987 -0.2811 -0.0057 -0.6342
    5SAPS   C11  542   3.959   5.341  10.985 -0.0720  0.5534  0.3511
    5SAPS  H11A  543   3.994   5.318  10.882 -0.1186  1.9094  0.0161
    5SAPS  H11B  544   3.904   5.437  10.977  1.6859  1.4885 -1.4738
    5SAPS     P  545   3.768   5.165  10.946 -0.5859 -0.2588  0.2708
    5SAPS   O13  546   3.838   5.108  10.829  0.2806  0.7305 -0.0358
    5SAPS   O14  547   3.683   5.078  11.023 -0.2202 -0.1763  0.2374
    5SAPS   O12  548   3.876   5.235  11.035 -0.3223  0.0996 -0.2197
    5SAPS   O11  549   3.686   5.287  10.900 -0.4508 -0.0821 -0.1569
    5SAPS    C1  550   3.630   5.309  10.770  0.1816 -0.2128 -0.1888
    5SAPS    HA  551   3.591   5.212  10.733 -0.8569 -0.3334  1.1784
    5SAPS    HB  552   3.544   5.378  10.770  1.5589  1.5860  0.4081
    5SAPS    C2  553   3.739   5.373  10.684 -0.2541 -0.0449 -0.4945
    5SAPS    HS  554   3.836   5.319  10.694 -0.4553 -0.0607  2.4044
    5SAPS   O21  555   3.750   5.509  10.736 -0.0918  0.2912  0.3926
    5SAPS   C21  556   3.865   5.568  10.709 -0.7699 -0.0466 -0.3984
    5SAPS   O22  557   3.962   5.515  10.654  0.3613 -0.4543  0.3143
    5SAPS   C22  558   3.870   5.708  10.766 -0.4274 -0.1540 -0.1097
    5SAPS   H2R  559   3.794   5.721  10.847 -1.4287 -2.8287 -0.5120
    5SAPS   H2S  560   3.964   5.721  10.824  1.3692  3.4357 -3.4490
    5SAPS    C3  561   3.697   5.379  10.538  0.2900  0.0189  0.1617
    5SAPS    HX  562   3.600   5.434  10.542  0.7425  0.8383  0.1196
    5SAPS    HY  563   3.653   5.285  10.498  1.0044  0.9435 -3.0600
    5SAPS   O31  564   3.778   5.450  10.448 -0.1863  0.5320 -0.5375
    5SAPS   C31  565   3.872   5.372  10.394  0.1058 -0.0970 -1.1085
    5SAPS   O32  566   3.881   5.250  10.419 -0.0284 -0.3780 -0.2470
    5SAPS   C32  567   3.971   5.444  10.305 -0.4003 -0.3242  0.2251
    5SAPS   H2X  568   4.065   5.433  10.363  1.3579  0.4590 -2.2865
    5SAPS   H2Y  569   3.949   5.552  10.292  0.6901  0.1769  2.2285
    5SAPS   C23  570   3.876   5.829  10.669  0.2054  0.0019  0.2408
    5SAPS   H3R  571   3.970   5.812  10.612  0.8461  1.8413  0.7092
    5SAPS   H3S  572   3.891   5.926  10.719  2.4397 -0.6331  0.8807
    5SAPS   C24  573   3.751   5.843  10.590 -0.3921 -0.1197  0.3947
    5SAPS   H4R  574   3.672   5.874  10.662 -0.3168 -1.4220  1.0609
    5SAPS   H4S  575   3.713   5.751  10.543  0.1168 -0.7176  1.1239
    5SAPS   C25  576   3.785   5.958  10.491  0.0395 -0.1808 -0.1799
    5SAPS   H5R  577   3.765   6.053  10.544 -2.0131 -0.6161 -0.0992
    5SAPS   C26  578   3.803   5.948  10.364 -0.2081 -0.3179 -0.0908
    5SAPS   H6R  579   3.838   6.035  10.306 -0.0955 -0.9350 -0.9644
    5SAPS   C27  580   3.815   5.816  10.281  0.2040 -0.2977 -0.2048
    5SAPS   H7R  581   3.866   5.738  10.342  0.3360 -1.1531 -1.3757
    5SAPS   H7S  582   3.877   5.838  10.191  0.1782  1.7873  0.2339
    5SAPS   C28  583   3.670   5.765  10.257 -0.0503 -0.3859  0.1629
    5SAPS   H8R  584   3.619   5.710  10.338  0.9993  0.4230  1.4044
    5SAPS   C29  585   3.600   5.753  10.138 -0.3364 -0.0167  0.2580
    5SAPS   H9R  586   3.499   5.711  10.137 -1.1359  1.7984  1.4411
    5SAPS  C210  587   3.652   5.781  10.002 -0.2273  0.4739 -0.1268
    5SAPS  H10R  588   3.595   5.722   9.928 -0.4031 -0.2758  0.6000
    5SAPS  H10S  589   3.761   5.759   9.991 -0.0438  0.5556  1.3902
    5SAPS  C211  590   3.629   5.926   9.959 -0.0488  0.1314  0.1984
    5SAPS  H11R  591   3.614   5.989  10.048  2.3257  0.8211  0.1880
    5SAPS  C212  592   3.624   5.966   9.828 -0.7149 -0.6563  0.0229
    5SAPS  H12R  593   3.600   6.071   9.802 -2.2714 -1.4981 -2.3061
    5SAPS  C213  594   3.644   5.885   9.699 -0.5229  0.0658 -0.1545
    5SAPS  H13R  595   3.545   5.871   9.651  1.2623 -1.7471 -3.7237
    5SAPS  H13S  596   3.674   5.782   9.726 -0.0481  0.4761  0.9373
    5SAPS  C214  597   3.745   5.934   9.603  0.1262 -0.8261 -0.4005
    5SAPS  H14R  598   3.819   6.005   9.642  0.2171 -1.0462 -0.1759
    5SAPS  C215  599   3.757   5.900   9.472 -0.3360  0.5389  0.0478
    5SAPS  H15R  600   3.832   5.955   9.413 -1.6025  2.4083  0.0902
    5SAPS  C216  601   3.681   5.791   9.395  0.3705  0.7943 -0.4962
    5SAPS  H16R  602   3.577   5.796   9.433  0.6598  0.5251  0.3488
    5SAPS  H16S  603   3.716   5.691   9.428 -1.7299  0.2039  0.0931
    5SAPS  C217  604   3.679   5.802   9.243  0.0139 -0.0208  0.7373
    5SAPS  H17R  605   3.778   5.783   9.197 -0.2093 -0.4810  0.4339
    5SAPS  H17S  606   3.647   5.904   9.215 -2.0454 -1.4022 -2.5888
    5SAPS  C218  607   3.580   5.707   9.165 -0.2055 -0.1291 -0.0784
    5SAPS  H18R  608   3.610   5.601   9.178  1.5739  0.3603  0.0817
    5SAPS  H18S  609   3.474   5.706   9.198  0.4464 -0.3387  2.2261
    5SAPS  C219  610   3.571   5.744   9.018 -0.1706 -0.9363 -0.1669
    5SAPS  H19R  611   3.674   5.753   8.976 -0.9153 -1.9725 -2.3950
    5SAPS  H19S  612   3.523   5.844   9.014 -2.3773 -1.9659 -0.7942
    5SAPS  C220  613   3.501   5.646   8.924  0.3963  1.2119  0.4437
    5SAPS  H20R  614   3.411   5.605   8.976  1.6338 -0.7853  1.1414
    5SAPS  H20S  615   3.569   5.561   8.902 -1.3686  0.2959 -1.8594
    5SAPS  H20T  616   3.476   5.697   8.829 -1.1402  1.2362  0.8341
    5SAPS   C33  617   3.996   5.381  10.163 -0.6816  0.0720 -0.4173
    5SAPS   H3X  618   4.015   5.273  10.183 -0.3930  0.3004  0.5965
    5SAPS   H3Y  619   4.081   5.423  10.107  0.3736  1.2025  1.9210
    5SAPS   C34  620   3.888   5.404  10.071  0.2273  0.0618  0.1771
    5SAPS   H4X  621   3.871   5.514  10.062 -2.2179 -0.3350 -1.1626
    5SAPS   H4Y  622   3.794   5.365  10.115 -1.2761  2.2333 -0.9134
    5SAPS   C35  623   3.906   5.342   9.931 -0.1654  0.5858  0.2310
    5SAPS   H5X  624   3.889   5.234   9.915 -2.8270  1.0802 -0.7367
    5SAPS   H5Y  625   4.015   5.361   9.923  0.2052 -0.6435  1.7643
    5SAPS   C36  626   3.819   5.423   9.827  0.1086  0.8039  0.1601
    5SAPS   H6X  627   3.865   5.398   9.729  0.1181  0.0228  0.3580
    5SAPS   H6Y  628   3.821   5.533   9.835 -1.9944  0.7764  1.8759
    5SAPS   C37  629   3.667   5.393   9.832 -0.6566  0.2355  0.6583
    5SAPS   H7X  630   3.625   5.427   9.929  0.7429 -0.8112  1.6698
    5SAPS   H7Y  631   3.649   5.284   9.834 -0.1230  0.1189 -0.3633
    5SAPS   C38  632   3.579   5.457   9.724  0.2218 -0.1053 -0.2736
    5SAPS   H8X  633   3.589   5.567   9.725  0.9591 -0.0802 -2.6938
    5SAPS   H8Y  634   3.472   5.429   9.731 -0.6497  2.1715 -2.8495
    5SAPS   C39  635   3.628   5.415   9.585 -0.4327 -0.0383  0.7124
    5SAPS   H9X  636   3.664   5.310   9.577  1.2279  0.5468  0.1408
    5SAPS   H9Y  637   3.719   5.473   9.557 -0.5923  0.7491  1.7696
    5SAPS  C310  638   3.534   5.452   9.464  0.0417  0.6501  0.4591
    5SAPS  H10X  639   3.552   5.555   9.425  2.4697  1.1721  2.6710
    5SAPS  H10Y  640   3.432   5.460   9.507  0.5042 -0.5060  1.8656
    5SAPS  C311  641   3.535   5.354   9.342  0.3059 -0.0920  0.2968
    5SAPS  H11X  642   3.538   5.245   9.364  0.6724 -0.3079 -0.7822
    5SAPS  H11Y  643   3.621   5.366   9.274  1.0364 -1.0297  1.0174
    5SAPS  C312  644   3.410   5.384   9.259  0.0057 -0.2574  0.2624
    5SAPS  H12X  645   3.411   5.493   9.240 -0.3046 -0.5453 -1.5885
    5SAPS  H12Y  646   3.312   5.368   9.309 -0.7885  1.0896 -0.7927
    5SAPS  C313  647   3.414   5.316   9.121  0.7413 -0.0430  0.2998
    5SAPS  H13X  648   3.450   5.211   9.128  3.1336  0.5305 -1.8118
    5SAPS  H13Y  649   3.502   5.363   9.071 -0.7084  2.4732 -0.0713
    5SAPS  C314  650   3.284   5.338   9.042  0.2488  0.0006  0.3002
    5SAPS  H14X  651   3.252   5.444   9.043 -0.8214 -0.3149  1.4823
    5SAPS  H14Y  652   3.196   5.290   9.088 -1.9404  1.1132 -2.4049
    5SAPS  C315  653   3.291   5.277   8.899 -0.0674  0.3938 -0.7734
    5SAPS  H15X  654   3.185   5.274   8.866 -0.2141 -0.9140 -0.2482
    5SAPS  H15Y  655   3.321   5.171   8.908 -1.2648  0.1922  1.6654
    5SAPS  C316  656   3.385   5.338   8.797 -0.5843  0.3179  0.0159
    5SAPS  H16X  657   3.476   5.360   8.857  0.3011 -1.0044 -0.8189
    5SAPS  H16Y  658   3.353   5.438   8.761 -0.7326  0.0473 -0.6162
    5SAPS  C317  659   3.436   5.246   8.684 -0.0816  0.0245 -0.5308
    5SAPS  H17X  660   3.355   5.184   8.640  0.7922 -1.8502  0.3737
    5SAPS  H17Y  661   3.505   5.162   8.711 -0.0724 -0.4375 -1.8975
    5SAPS  C318  662   3.522   5.322   8.582  0.1272 -0.2754 -0.2142
    5SAPS  H18X  663   3.475   5.419   8.555 -1.1033 -0.6866  0.3381
    5SAPS  H18Y  664   3.522   5.265   8.487 -0.1569  1.4494 -1.3044
    5SAPS  H18Z  665   3.618   5.342   8.634  0.3735 -1.9088  0.0151
    6SAPS     N  666   3.086   5.899  10.955  0.4817 -0.4439  0.1299
    6SAPS   HN1  667   2.993   5.930  10.919  0.9291  2.0710  0.9939
    6SAPS   HN2  668   3.101   5.951  11.043 -1.2694  0.4750 -0.0591
    6SAPS   HN3  669   3.166   5.916  10.891  1.4485 -1.6038  0.9748
    6SAPS   C12  670   3.082   5.752  10.976  0.1100 -0.2188  0.4492
    6SAPS  H12A  671   3.156   5.740  11.053  0.7606 -0.4072 -0.1930
    6SAPS   C13  672   2.946   5.698  11.028 -0.0467  0.0940 -0.2503
    6SAPS  O13A  673   2.861   5.777  11.085 -0.3730 -0.5965  0.0360
    6SAPS  O13B  674   2.935   5.571  11.036  0.0733 -0.6404 -0.0287
    6SAPS   C11  675   3.134   5.681  10.847  0.5881 -0.5826  0.2001
    6SAPS  H11A  676   3.070   5.715  10.764  0.4696  1.5055  1.0646
    6SAPS  H11B  677   3.110   5.573  10.849  0.8669 -0.6381  1.0718
    6SAPS     P  678   3.392   5.634  10.804 -0.1997 -0.0352 -0.5017
    6SAPS   O13  679   3.498   5.739  10.807  0.2695  0.2385 -0.3418
    6SAPS   O14  680   3.403   5.533  10.912 -0.1186  0.1770  0.2591
    6SAPS   O12  681   3.265   5.717  10.821  0.4814  0.7344  0.2573
    6SAPS   O11  682   3.389   5.570  10.662  0.4304  0.7692  0.6854
    6SAPS    C1  683   3.373   5.640  10.543  0.3853  0.6005 -0.0360
    6SAPS    HA  684   3.422   5.739  10.555  3.0889 -0.6494  0.0478
    6SAPS    HB  685   3.419   5.586  10.457  0.3195  0.3936  0.0576
    6SAPS    C2  686   3.229   5.662  10.506  0.1765  0.1757 -0.0246
    6SAPS    HS  687   3.187   5.740  10.574 -0.1582 -0.1655  0.1679
    6SAPS   O21  688   3.164   5.534  10.517 -0.0905 -0.4414  0.1400
    6SAPS   C21  689   3.031   5.546  10.527  0.2207  0.0589 -0.4992
    6SAPS   O22  690   2.965   5.650  10.527 -0.6348 -0.9061  0.2456
    6SAPS   C22  691   2.968   5.408  10.536 -0.0461  0.2699  0.3370
    6SAPS   H2R  692   3.030   5.336  10.594  1.6784 -0.9396 -2.7870
    6SAPS   H2S  693   2.872   5.417  10.591 -0.1539 -1.1318  0.4151
    6SAPS    C3  694   3.217   5.726  10.364  0.9388  0.8223 -0.2412
    6SAPS    HX  695   3.112   5.746  10.334  1.6273  3.6230 -1.1309
    6SAPS    HY  696   3.248   5.645  10.295  0.6086  1.6564 -1.3966
    6SAPS   O31  697   3.313   5.831  10.358 -0.3417  0.1758 -0.0538
    6SAPS   C31  698   3.261   5.948  10.394  0.0174 -0.0788  0.4924
    6SAPS   O32  699   3.141   5.973  10.414 -0.0995 -0.2193  0.2540
    6SAPS   C32  700   3.364   6.049  10.402 -0.5479  0.1245 -0.3924
    6SAPS   H2X  701   3.463   6.011  10.437 -1.7804 -1.6738  1.3319
    6SAPS   H2Y  702   3.328   6.123  10.476  0.9377  1.2526 -0.7452
    6SAPS   C23  703   2.948   5.343  10.398 -0.9602  0.6706  0.2067
    6SAPS   H3R  704   2.895   5.246  10.402 -1.0513  0.7289  0.4603
    6SAPS   H3S  705   3.046   5.323  10.349 -0.9937 -1.7654  1.0184
    6SAPS   C24  706   2.862   5.445  10.312 -0.1345  1.4168  0.4890
    6SAPS   H4R  707   2.930   5.525  10.275  1.6868 -0.3792 -0.2328
    6SAPS   H4S  708   2.783   5.500  10.368 -2.3569  0.1282 -1.2287
    6SAPS   C25  709   2.808   5.372  10.195 -0.0521 -0.3859 -0.0868
    6SAPS   H5R  710   2.738   5.295  10.229 -0.3417  0.2051  0.7066
    6SAPS   C26  711   2.830   5.398  10.062 -0.0758 -0.1723 -0.5845
    6SAPS   H6R  712   2.791   5.327   9.988  0.0977 -0.9188  0.0242
    6SAPS   C27  713   2.921   5.507  10.013 -0.1329 -1.0287 -0.3710
    6SAPS   H7R  714   2.918   5.599  10.075  1.2201 -0.5880 -0.9195
    6SAPS   H7S  715   2.885   5.532   9.911  2.2918 -2.6424 -1.7340
    6SAPS   C28  716   3.065   5.448  10.012 -0.4757 -0.6499  0.8519
    6SAPS   H8R  717   3.079   5.353  10.066  0.5319 -0.9112  0.1515
    6SAPS   C29  718   3.173   5.496   9.946 -0.0907 -0.1104 -0.2728
    6SAPS   H9R  719   3.267   5.439   9.941 -1.0416 -1.6874 -5.0023
    6SAPS  C210  720   3.178   5.632   9.869  0.3572  0.0968  0.1291
    6SAPS  H10R  721   3.215   5.711   9.937  1.8416  0.9137 -1.5593
    6SAPS  H10S  722   3.069   5.648   9.852  0.5817  0.8348 -0.6813
    6SAPS  C211  723   3.250   5.645   9.738  0.0878  0.3875 -0.3559
    6SAPS  H11R  724   3.331   5.720   9.739 -0.7201  1.2970 -0.9562
    6SAPS  C212  725   3.222   5.586   9.620  0.2320  0.2017 -0.6656
    6SAPS  H12R  726   3.278   5.617   9.531  1.4287 -1.1712 -0.4276
    6SAPS  C213  727   3.097   5.509   9.594  0.2599  0.7944 -0.0020
    6SAPS  H13R  728   3.024   5.521   9.677  2.5878  0.8527  2.1646
    6SAPS  H13S  729   3.134   5.404   9.600 -1.3324  0.2858  1.9472
    6SAPS  C214  730   3.036   5.554   9.456  0.0594  0.2100 -0.0007
    6SAPS  H14R  731   3.080   5.523   9.361  0.1220  2.5599 -0.8075
    6SAPS  C215  732   2.924   5.638   9.448  0.1112  0.5889 -0.6077
    6SAPS  H15R  733   2.891   5.669   9.348  1.2013 -0.8630 -1.4655
    6SAPS  C216  734   2.859   5.698   9.572 -0.2853 -0.2656 -0.6245
    6SAPS  H16R  735   2.934   5.724   9.649 -2.9802  1.7430  1.5131
    6SAPS  H16S  736   2.779   5.643   9.627 -1.8994  1.6019 -0.9593
    6SAPS  C217  737   2.783   5.823   9.531  0.7260 -0.5239  0.6464
    6SAPS  H17R  738   2.715   5.850   9.614 -0.2233 -0.4551 -0.1298
    6SAPS  H17S  739   2.715   5.812   9.443  1.3110  2.0120 -0.2087
    6SAPS  C218  740   2.874   5.940   9.491  0.3350  0.5056 -0.2020
    6SAPS  H18R  741   2.936   5.913   9.403 -0.6261  1.5239 -1.2315
    6SAPS  H18S  742   2.939   5.957   9.579  1.0698 -0.3332 -0.5659
    6SAPS  C219  743   2.801   6.074   9.465  0.6991 -0.2423  0.2641
    6SAPS  H19R  744   2.750   6.097   9.562  0.1356 -0.9434  0.1429
    6SAPS  H19S  745   2.724   6.051   9.388  2.8254 -0.4861 -1.8848
    6SAPS  C220  746   2.893   6.184   9.415 -0.9114  0.5155 -1.0259
    6SAPS  H20R  747   2.978   6.195   9.486 -2.3812 -1.9854  1.2962
    6SAPS  H20S  748   2.840   6.281   9.413 -1.0110  0.4694 -0.6125
    6SAPS  H20T  749   2.921   6.159   9.310 -2.6431  0.2673 -1.4721
    6SAPS   C33  750   3.382   6.115  10.264 -0.0389 -0.4827  0.5078
    6SAPS   H3X  751   3.284   6.160  10.240  0.6783  1.0458  0.3173
    6SAPS   H3Y  752   3.413   6.056  10.175  1.1198 -0.9513  1.2041
    6SAPS   C34  753   3.472   6.247  10.273  0.0422  0.5060 -0.2328
    6SAPS   H4X  754   3.580   6.229  10.288  0.6175  2.0571 -2.1735
    6SAPS   H4Y  755   3.437   6.291  10.369 -1.6871 -0.0400 -0.5804
    6SAPS   C35  756   3.452   6.342  10.156 -0.0038  0.1441  0.2994
    6SAPS   H5X  757   3.492   6.442  10.179 -0.7274  0.2306  1.2470
    6SAPS   H5Y  758   3.342   6.361  10.160  0.1134  0.6530  1.4783
    6SAPS   C36  759   3.496   6.289  10.020 -0.4774 -0.2044 -0.6336
    6SAPS   H6X  760   3.435   6.196  10.008  0.8042 -0.7748 -3.7052
    6SAPS   H6Y  761   3.604   6.264  10.021  0.6788  4.0371 -1.1060
    6SAPS   C37  762   3.463   6.381   9.901  0.4864 -0.5698 -0.5093
    6SAPS   H7X  763   3.511   6.480   9.913 -1.4812  0.1954  2.1918
    6SAPS   H7Y  764   3.353   6.390   9.890  0.5674 -0.7699 -1.5385
    6SAPS   C38  765   3.506   6.326   9.767 -0.2401 -0.2867 -0.0696
    6SAPS   H8X  766   3.483   6.217   9.761  1.7338 -0.7995  0.7346
    6SAPS   H8Y  767   3.617   6.331   9.762 -0.1049 -0.6809  1.9783
    6SAPS   C39  768   3.446   6.406   9.655 -0.0136  0.0898  0.2663
    6SAPS   H9X  769   3.475   6.512   9.673 -2.2863  0.9877 -0.8017
    6SAPS   H9Y  770   3.335   6.397   9.648  0.1183 -0.0869 -2.5037
    6SAPS  C310  771   3.496   6.368   9.516  0.2872 -0.2538 -0.7734
    6SAPS  H10X  772   3.469   6.262   9.493  0.9863 -0.5380 -0.3276
    6SAPS  H10Y  773   3.606   6.377   9.531  0.5379 -1.8702 -1.4169
    6SAPS  C311  774   3.443   6.451   9.398  0.0150 -0.5313  0.1826
    6SAPS  H11X  775   3.504   6.431   9.308 -0.2931  0.5612 -0.2897
    6SAPS  H11Y  776   3.450   6.560   9.420 -2.7398 -0.4057  0.8211
    6SAPS  C312  777   3.305   6.402   9.357  0.1014 -0.3520 -0.7027
    6SAPS  H12X  778   3.229   6.400   9.437 -0.0419  0.7963 -0.7997
    6SAPS  H12Y  779   3.318   6.294   9.335  1.5764 -0.3277 -0.0637
    6SAPS  C313  780   3.249   6.480   9.237  0.5721 -1.0956  0.4227
    6SAPS  H13X  781   3.308   6.454   9.146  0.4300 -2.4934  0.7169
    6SAPS  H13Y  782   3.247   6.589   9.259 -1.7702 -1.1878  0.9342
    6SAPS  C314  783   3.109   6.435   9.196  0.1946  0.2722  0.2657
    6SAPS  H14X  784   3.059   6.508   9.129 -0.8407 -2.5469 -2.3153
    6SAPS  H14Y  785   3.040   6.427   9.283 -0.3897 -0.2021 -0.2218
    6SAPS  C315  786   3.096   6.312   9.104 -0.0917 -0.1081 -0.3905
    6SAPS  H15X  787   2.989   6.310   9.074 -1.1463  2.3655  2.6584
    6SAPS  H15Y  788   3.113   6.220   9.165  1.6274  0.4376  0.0089
    6SAPS  C316  789   3.182   6.322   8.984  0.1321  0.5366  0.0011
    6SAPS  H16X  790   3.281   6.275   8.999 -0.6444 -2.2656 -2.5675
    6SAPS  H16Y  791   3.211   6.424   8.952  0.6450  0.2004 -0.6196
    6SAPS  C317  792   3.127   6.237   8.859  0.3131 -0.3168 -0.0159
    6SAPS  H17X  793   3.031   6.285   8.829  0.7222  2.3410  2.5208
    6SAPS  H17Y  794   3.108   6.130   8.881 -0.2202  0.0745  1.5613
    6SAPS  C318  795   3.217   6.248   8.735 -0.0100  0.1147  0.1271
    6SAPS  H18X  796   3.319   6.208   8.757  0.3491  1.5350  1.2210
    6SAPS  H18Y  797   3.238   6.356   8.719 -1.3573 -0.0102 -3.3040
    6SAPS  H18Z  798   3.178   6.199   8.644 -0.8973 -0.2676  0.6966
    7SAPS     N  799   5.003   0.591  11.083 -0.2301  0.2965 -0.5691
    7SAPS   HN1  800   5.066   0.524  11.034  1.4592 -0.7505  2.7345
    7SAPS   HN2  801   4.952   0.530  11.150  1.7849 -2.5869 -1.4560
    7SAPS   HN3  802   4.936   0.648  11.027  0.5231  1.2005 -0.5809
    7SAPS   C12  803   5.083   0.693  11.171  1.6972 -0.1313 -0.1114
    7SAPS  H12A  804   5.009   0.753  11.223 -0.3713 -3.6386  1.3608
    7SAPS   C13  805   5.163   0.629  11.295 -0.2335 -0.0479 -0.0699
    7SAPS  O13A  806   5.213   0.515  11.277  0.4568  0.0085 -0.4700
    7SAPS  O13B  807   5.219   0.704  11.378 -0.4418 -1.0295  0.1164
    7SAPS   C11  808   5.172   0.778  11.078 -0.4278 -0.5724  0.0204
    7SAPS  H11A  809   5.243   0.712  11.023  1.0701  1.2607 -0.3534
    7SAPS  H11B  810   5.224   0.852  11.141 -0.6170 -0.3411 -0.0937
    7SAPS     P  811   5.167   0.955  10.880  0.2434  0.4133 -0.4343
    7SAPS   O13  812   5.071   1.021  10.786  0.2716  0.3397 -0.1256
    7SAPS   O14  813   5.254   1.049  10.949  0.0446  0.6453  0.7544
    7SAPS   O12  814   5.095   0.850  10.984 -0.6743  0.3639 -0.4824
    7SAPS   O11  815   5.251   0.855  10.786 -0.0948 -0.0943 -0.3149
    7SAPS    C1  816   5.193   0.743  10.714 -0.2427 -0.4741 -0.3458
    7SAPS    HA  817   5.235   0.648  10.751  2.3678  0.3009 -1.1118
    7SAPS    HB  818   5.084   0.740  10.736  0.0589  1.0559  1.5574
    7SAPS    C2  819   5.224   0.762  10.564 -0.7883  0.1296 -0.5746
    7SAPS    HS  820   5.334   0.752  10.554 -0.7613 -1.0529  0.5501
    7SAPS   O21  821   5.182   0.888  10.512  0.2636 -0.1111 -0.7116
    7SAPS   C21  822   5.245   1.003  10.533 -0.6763 -0.3597 -0.7690
    7SAPS   O22  823   5.361   1.012  10.571  0.2278  0.5331  0.2137
    7SAPS   C22  824   5.154   1.108  10.466 -0.3058  0.1328 -0.4845
    7SAPS   H2R  825   5.083   1.057  10.397 -0.7328  1.7551 -1.2771
    7SAPS   H2S  826   5.108   1.146  10.560  2.4181 -1.3430  1.5758
    7SAPS    C3  827   5.150   0.644  10.483 -0.5562 -0.7764 -0.1852
    7SAPS    HX  828   5.044   0.671  10.501 -0.1444  0.1462  0.9872
    7SAPS    HY  829   5.170   0.542  10.521  1.6668 -0.1549  0.4786
    7SAPS   O31  830   5.190   0.651  10.343 -0.2347  0.3177  0.4313
    7SAPS   C31  831   5.107   0.714  10.259 -0.1171  0.3725  0.5295
    7SAPS   O32  832   4.997   0.755  10.293  0.3312 -0.7050  0.8964
    7SAPS   C32  833   5.175   0.724  10.119  0.2875  0.0488  0.0721
    7SAPS   H2X  834   5.196   0.620  10.085  0.9570 -0.9300  3.1131
    7SAPS   H2Y  835   5.270   0.780  10.125  0.5999 -0.4975  0.3685
    7SAPS   C23  836   5.242   1.211  10.387  0.2608  0.6601 -0.2008
    7SAPS   H3R  837   5.325   1.246  10.452 -1.6833  0.8805  2.3246
    7SAPS   H3S  838   5.176   1.298  10.368  2.0139  1.6888 -2.0074
    7SAPS   C24  839   5.291   1.156  10.250  0.2750  0.1497 -0.1180
    7SAPS   H4R  840   5.204   1.110  10.197 -1.0530  1.0161  1.2393
    7SAPS   H4S  841   5.349   1.069  10.287 -0.8812 -0.7631 -0.3889
    7SAPS   C25  842   5.378   1.240  10.166 -0.1372 -0.2301  0.7704
    7SAPS   H5R  843   5.404   1.335  10.215  0.4144  0.5302 -0.9082
    7SAPS   C26  844   5.393   1.229  10.030 -0.2758 -0.3949 -0.4877
    7SAPS   H6R  845   5.445   1.310   9.977 -1.0862  0.9813  0.7461
    7SAPS   C27  846   5.340   1.110   9.952  0.2440  0.1872  0.4119
    7SAPS   H7R  847   5.237   1.124   9.911  0.5824  0.2106 -0.4565
    7SAPS   H7S  848   5.325   1.023  10.020  0.7374 -0.1837  0.0452
    7SAPS   C28  849   5.441   1.075   9.845 -1.1250 -0.0691  0.3271
    7SAPS   H8R  850   5.535   1.026   9.876 -0.1427  1.6858  0.2919
    7SAPS   C29  851   5.431   1.116   9.716  0.1667 -0.9865  0.7321
    7SAPS   H9R  852   5.506   1.082   9.643 -2.7939  1.1570 -3.6951
    7SAPS  C210  853   5.336   1.198   9.632  0.0143  0.1891  0.2449
    7SAPS  H10R  854   5.260   1.252   9.693 -0.7959 -3.4532  2.8717
    7SAPS  H10S  855   5.281   1.116   9.580  1.8252 -0.1189 -1.2711
    7SAPS  C211  856   5.407   1.296   9.534  0.6250 -0.0379 -0.7140
    7SAPS  H11R  857   5.424   1.399   9.568  1.3415 -0.6457  0.8888
    7SAPS  C212  858   5.442   1.277   9.408  0.2960  0.9523 -0.2016
    7SAPS  H12R  859   5.509   1.349   9.358  0.8500  1.8172  1.6760
    7SAPS  C213  860   5.429   1.146   9.344 -0.2317  0.2419 -0.0531
    7SAPS  H13R  861   5.387   1.073   9.417  1.4670  0.0332  0.7857
    7SAPS  H13S  862   5.535   1.115   9.330  0.5128  1.3315  2.4858
    7SAPS  C214  863   5.354   1.150   9.214  0.2361  0.2672  0.3488
    7SAPS  H14R  864   5.261   1.209   9.215  0.2724  0.3523 -0.5332
    7SAPS  C215  865   5.393   1.092   9.096  0.0700 -0.7451 -0.4527
    7SAPS  H15R  866   5.326   1.116   9.013 -0.8738  2.4984  1.0831
    7SAPS  C216  867   5.523   1.024   9.074 -0.2399  0.0343 -0.6026
    7SAPS  H16R  868   5.520   0.914   9.089 -1.1930  0.2465  0.8896
    7SAPS  H16S  869   5.613   1.068   9.122  0.0311 -0.8519 -0.2842
    7SAPS  C217  870   5.565   1.045   8.922  0.3057  0.5035  0.0043
    7SAPS  H17R  871   5.580   1.154   8.909  1.4471  0.1395 -2.1950
    7SAPS  H17S  872   5.484   1.017   8.852 -0.6106  0.0729  1.2085
    7SAPS  C218  873   5.684   0.973   8.868  0.4255 -0.7002  0.7378
    7SAPS  H18R  874   5.660   0.868   8.840  0.4696 -0.1105 -1.6742
    7SAPS  H18S  875   5.770   0.983   8.938  0.4104 -2.3144  1.0275
    7SAPS  C219  876   5.743   1.028   8.734  0.4312 -0.7189  0.1363
    7SAPS  H19R  877   5.760   1.134   8.761  0.6392 -1.0889  1.5860
    7SAPS  H19S  878   5.658   1.049   8.666 -1.9994  0.0724  3.1498
    7SAPS  C220  879   5.865   0.956   8.676 -0.6613  0.1812 -0.3748
    7SAPS  H20R  880   5.886   1.003   8.578 -4.3673 -1.2416 -2.0256
    7SAPS  H20S  881   5.849   0.849   8.653  0.2964 -0.0485 -0.0226
    7SAPS  H20T  882   5.953   0.958   8.744  0.4339 -1.7207 -1.6416
    7SAPS   C33  883   5.091   0.792  10.007 -0.8394  0.4169 -0.4788
    7SAPS   H3X  884   5.067   0.896  10.038  0.7279  0.3937  0.9346
    7SAPS   H3Y  885   5.000   0.731   9.988 -1.2909  1.1189 -0.5912
    7SAPS   C34  886   5.168   0.782   9.872  0.0281 -0.4354  0.0203
    7SAPS   H4X  887   5.197   0.679   9.839  0.6214 -0.0196 -0.7881
    7SAPS   H4Y  888   5.262   0.835   9.896  0.8534 -2.2053  0.8640
    7SAPS   C35  889   5.098   0.863   9.761  0.2041  0.2813  0.5406
    7SAPS   H5X  890   5.096   0.971   9.788  0.9374 -0.1778  2.6012
    7SAPS   H5Y  891   4.988   0.848   9.757  0.1860  0.4971 -2.0830
    7SAPS   C36  892   5.147   0.822   9.622  0.0245  0.4319 -0.3158
    7SAPS   H6X  893   5.156   0.712   9.625  2.9131  0.5628 -1.4161
    7SAPS   H6Y  894   5.252   0.854   9.612  0.0684  0.2701 -0.3736
    7SAPS   C37  895   5.068   0.888   9.508  0.3372 -0.0359 -0.0320
    7SAPS   H7X  896   5.141   0.897   9.424  0.3161  0.0510 -0.0422
    7SAPS   H7Y  897   5.035   0.990   9.537  0.6699  0.0367  0.0945
    7SAPS   C38  898   4.945   0.802   9.471  0.1833 -0.5780 -0.5211
    7SAPS   H8X  899   4.902   0.768   9.567 -2.7943 -0.6282 -1.7641
    7SAPS   H8Y  900   4.987   0.721   9.408  1.8558  0.3433 -0.6404
    7SAPS   C39  901   4.835   0.882   9.390  0.2236  0.1488  0.2279
    7SAPS   H9X  902   4.769   0.946   9.452 -1.5837  0.0534 -1.5017
    7SAPS   H9Y  903   4.765   0.811   9.341 -0.9583  2.3218 -1.4235
    7SAPS  C310  904   4.898   0.967   9.275 -0.9504 -0.2099  0.2844
    7SAPS  H10X  905   4.979   0.913   9.219 -1.3754 -0.4728 -0.0868
    7SAPS  H10Y  906   4.950   1.052   9.323  1.1842 -1.9073  1.1968
    7SAPS  C311  907   4.803   1.026   9.167  0.1382 -0.1164 -0.2253
    7SAPS  H11X  908   4.731   1.088   9.225 -0.1804  0.7702 -1.4989
    7SAPS  H11Y  909   4.755   0.942   9.113  3.1488 -1.5603 -0.8424
    7SAPS  C312  910   4.870   1.124   9.070 -0.0373  0.3247  0.3613
    7SAPS  H12X  911   4.897   1.072   8.975 -1.0285  1.7687 -0.7529
    7SAPS  H12Y  912   4.965   1.156   9.118  0.5866 -0.6948 -0.1387
    7SAPS  C313  913   4.774   1.232   9.021 -0.3303 -0.8503 -0.5312
    7SAPS  H13X  914   4.733   1.288   9.108  1.8645 -0.1244  0.1126
    7SAPS  H13Y  915   4.679   1.188   8.985 -0.9091 -0.7867  0.8676
    7SAPS  C314  916   4.827   1.325   8.915 -0.7804 -0.1249 -0.5628
    7SAPS  H14X  917   4.930   1.355   8.947  0.2362 -3.0316 -0.8392
    7SAPS  H14Y  918   4.770   1.420   8.919  0.6585  0.7415  1.1452
    7SAPS  C315  919   4.830   1.260   8.775  0.4483 -0.4223 -0.8136
    7SAPS  H15X  920   4.727   1.221   8.757 -0.3678  1.2026  0.0161
    7SAPS  H15Y  921   4.904   1.178   8.768 -0.4648 -1.8853  3.5906
    7SAPS  C316  922   4.873   1.372   8.679 -0.9086 -0.1692 -0.6635
    7SAPS  H16X  923   4.977   1.405   8.699 -0.2958 -2.4734  0.3771
    7SAPS  H16Y  924   4.803   1.454   8.706 -0.0564 -0.4125  2.6588
    7SAPS  C317  925   4.866   1.335   8.532  0.4220  0.9003  0.2610
    7SAPS  H17X  926   4.770   1.288   8.504  0.7917 -0.7436  1.6005
    7SAPS  H17Y  927   4.939   1.255   8.509  0.0924  0.8932 -0.8172
    7SAPS  C318  928   4.887   1.460   8.443  0.3505  0.2690  0.4349
    7SAPS  H18X  929   4.798   1.525   8.458 -0.6284 -1.3363  1.9791
    7SAPS  H18Y  930   4.875   1.435   8.336 -1.4283 -1.6624  1.0108
    7SAPS  H18Z  931   4.988   1.500   8.466  0.0147  0.4253  1.7048
    8SAPS     N  932   2.945   2.261  11.301 -0.1039  0.1953  0.3009
    8SAPS   HN1  933   3.005   2.177  11.289 -0.2564  0.1415 -0.0832
    8SAPS   HN2  934   2.896   2.255  11.393  1.1984 -1.4469  0.9496
    8SAPS   HN3  935   2.861   2.259  11.240  0.4249 -0.5028 -0.4204
    8SAPS   C12  936   3.024   2.386  11.285  0.3767 -0.2521  0.5261
    8SAPS  H12A  937   2.976   2.451  11.356 -1.4505 -1.2223  0.2654
    8SAPS   C13  938   3.173   2.386  11.323 -0.1740  0.2129  0.3642
    8SAPS  O13A  939   3.232   2.298  11.390 -0.7533 -0.0846 -0.3316
    8SAPS  O13B  940   3.223   2.501  11.312  0.3257  0.3872  0.0343
    8SAPS   C11  941   3.011   2.439  11.134 -0.0921 -0.7221  0.5035
    8SAPS  H11A  942   3.058   2.361  11.071  0.2617  0.2399 -0.4550
    8SAPS  H11B  943   3.072   2.530  11.115 -0.5237 -0.3177  1.0184
    8SAPS     P  944   2.829   2.575  10.985 -0.2290  0.1077 -0.0637
    8SAPS   O13  945   2.738   2.680  11.051 -0.4662  0.2443 -0.0932
    8SAPS   O14  946   2.948   2.635  10.924 -0.3902  0.1641  0.2747
    8SAPS   O12  947   2.873   2.462  11.097  0.3420 -0.6254  0.3546
    8SAPS   O11  948   2.757   2.494  10.873  0.2596 -0.0867 -0.1607
    8SAPS    C1  949   2.786   2.351  10.856  0.4301 -0.6930 -0.3503
    8SAPS    HA  950   2.827   2.302  10.947 -0.4882 -0.3806  0.2457
    8SAPS    HB  951   2.685   2.312  10.829  0.3741 -0.7203 -0.1018
    8SAPS    C2  952   2.882   2.330  10.743 -0.9837 -0.2507  0.0692
    8SAPS    HS  953   2.981   2.370  10.771 -0.6416  0.0536 -1.4706
    8SAPS   O21  954   2.826   2.393  10.623 -0.1227  0.3342  0.1130
    8SAPS   C21  955   2.913   2.470  10.565 -0.1062  0.3270  0.5155
    8SAPS   O22  956   3.024   2.500  10.609  0.0214 -0.0214  0.7995
    8SAPS   C22  957   2.861   2.524  10.432  0.2156  0.2919 -0.3858
    8SAPS   H2R  958   2.763   2.477  10.407  1.1359 -1.3725 -1.0518
    8SAPS   H2S  959   2.841   2.633  10.437 -0.9373  0.1439 -1.2418
    8SAPS    C3  960   2.892   2.176  10.725 -0.5530  1.1615  0.8606
    8SAPS    HX  961   2.796   2.121  10.735  0.1579 -0.6840 -1.4332
    8SAPS    HY  962   2.949   2.130  10.808 -0.4749  0.6019  0.5044
    8SAPS   O31  963   2.948   2.145  10.591 -0.2645  0.4566 -0.5511
    8SAPS   C31  964   3.078   2.168  10.567  0.0422 -0.5196  0.0796
    8SAPS   O32  965   3.166   2.202  10.646 -0.0095  0.4877 -0.1892
    8SAPS   C32  966   3.117   2.145  10.419  0.0686 -0.5417  0.7298
    8SAPS   H2X  967   3.021   2.163  10.367  0.4525  1.1292  0.5391
    8SAPS   H2Y  968   3.157   2.042  10.410  0.2634 -0.3838 -0.2378
    8SAPS   C23  969   2.954   2.509  10.304 -0.6902  0.1539 -0.9765
    8SAPS   H3R  970   2.944   2.399  10.289 -1.8488  0.0681  0.1610
    8SAPS   H3S  971   3.053   2.547  10.337 -1.3979  0.6484  0.6844
    8SAPS   C24  972   2.900   2.594  10.180  0.1526 -0.2305 -0.8051
    8SAPS   H4R  973   2.881   2.700  10.208  0.0165 -0.7090  1.0231
    8SAPS   H4S  974   2.801   2.550  10.158  0.7659 -2.0356 -0.1371
    8SAPS   C25  975   2.988   2.600  10.061  0.3750 -0.4532 -0.3630
    8SAPS   H5R  976   3.070   2.672  10.070  0.5710 -0.7624  0.4726
    8SAPS   C26  977   2.968   2.550   9.939 -0.2318  0.4723  0.2025
    8SAPS   H6R  978   3.055   2.552   9.872 -0.1887 -1.1377  0.1717
    8SAPS   C27  979   2.848   2.474   9.887 -0.4375 -0.5092 -0.6962
    8SAPS   H7R  980   2.806   2.524   9.797  2.7988  1.7422 -1.1173
    8SAPS   H7S  981   2.772   2.477   9.969  1.6995  0.3348  1.3768
    8SAPS   C28  982   2.899   2.337   9.854 -0.6201 -0.4232 -0.1424
    8SAPS   H8R  983   2.962   2.292   9.933 -1.9942  1.2881  2.0429
    8SAPS   C29  984   2.861   2.256   9.747 -0.2265  0.4446  0.4780
    8SAPS   H9R  985   2.905   2.156   9.729  0.6471  0.7252  0.9655
    8SAPS  C210  986   2.766   2.295   9.640  0.0805  0.1506 -0.1013
    8SAPS  H10R  987   2.825   2.319   9.549 -0.1240  0.6373 -0.1107
    8SAPS  H10S  988   2.713   2.389   9.667  0.0552 -0.5690  2.6160
    8SAPS  C211  989   2.675   2.180   9.591 -0.3455  0.2602 -0.1320
    8SAPS  H11R  990   2.632   2.114   9.668  0.8738 -1.0445 -0.5381
    8SAPS  C212  991   2.656   2.137   9.465 -0.3157 -0.0818  0.7522
    8SAPS  H12R  992   2.599   2.045   9.447  1.5245 -1.4420  1.6425
    8SAPS  C213  993   2.705   2.211   9.342  0.7023  0.4459  0.2530
    8SAPS  H13R  994   2.816   2.210   9.345  0.7936 -3.1299 -0.1106
    8SAPS  H13S  995   2.664   2.314   9.347  0.9042  0.5044  0.6902
    8SAPS  C214  996   2.665   2.165   9.207  0.1564  0.2195  0.2623
    8SAPS  H14R  997   2.612   2.069   9.203  0.9113 -0.1981 -0.0321
    8SAPS  C215  998   2.709   2.214   9.092  0.5673  0.6012  0.4903
    8SAPS  H15R  999   2.673   2.164   9.001  0.1878  0.7914  0.5335
    8SAPS  C216 1000   2.793   2.341   9.068 -0.3140  0.2149 -0.3998
    8SAPS  H16R 1001   2.898   2.325   9.098 -0.6983  0.1920  1.0353
    8SAPS  H16S 1002   2.758   2.424   9.133 -0.6523  1.4554 -2.1071
    8SAPS  C217 1003   2.781   2.395   8.925  0.1898 -0.0468 -0.1148
    8SAPS  H17R 1004   2.839   2.489   8.916  1.5470 -0.9241 -0.8187
    8SAPS  H17S 1005   2.675   2.411   8.895  0.5707  2.8826 -0.0994
    8SAPS  C218 1006   2.837   2.303   8.813  0.2029 -0.0516 -0.0329
    8SAPS  H18R 1007   2.803   2.198   8.823  0.6809 -0.4210 -1.8697
    8SAPS  H18S 1008   2.945   2.311   8.836 -0.3535  2.4612  2.2110
    8SAPS  C219 1009   2.825   2.363   8.667 -0.8649  0.0846  0.4231
    8SAPS  H19R 1010   2.804   2.470   8.689  1.3537  0.9620 -1.2878
    8SAPS  H19S 1011   2.740   2.309   8.620 -0.0136 -0.3349 -0.6978
    8SAPS  C220 1012   2.949   2.368   8.579  0.3480 -0.2197  0.5601
    8SAPS  H20R 1013   2.922   2.414   8.481  0.4432 -2.2752 -0.4747
    8SAPS  H20S 1014   2.980   2.264   8.555  0.4619  0.4894 -2.7990
    8SAPS  H20T 1015   3.032   2.417   8.634 -0.5405  1.1747  0.7147
    8SAPS   C33 1016   3.224   2.250  10.372 -0.1434 -0.5511 -0.1695
    8SAPS   H3X 1017   3.315   2.238  10.434  0.0320  0.6973 -0.1584
    8SAPS   H3Y 1018   3.186   2.351  10.401  1.0677 -0.4123  1.0061
    8SAPS   C34 1019   3.258   2.253  10.225  0.7802 -0.3019  0.5282
    8SAPS   H4X 1020   3.335   2.329  10.198 -1.0036  0.7541 -1.9261
    8SAPS   H4Y 1021   3.163   2.274  10.171  1.3476  1.1649  0.0369
    8SAPS   C35 1022   3.335   2.128  10.172  0.2119 -0.3552  0.3908
    8SAPS   H5X 1023   3.267   2.040  10.167 -3.9411  2.5922 -0.9344
    8SAPS   H5Y 1024   3.421   2.108  10.240  0.4796  0.3251  0.2547
    8SAPS   C36 1025   3.396   2.155  10.032 -0.0504  0.5571 -0.1704
    8SAPS   H6X 1026   3.479   2.081  10.022  0.9686  1.4136  1.4920
    8SAPS   H6Y 1027   3.446   2.254  10.025 -1.0280  1.4028  3.1892
    8SAPS   C37 1028   3.303   2.145   9.907  0.2438  0.2510  0.5198
    8SAPS   H7X 1029   3.227   2.225   9.905  1.3411  1.3088  0.3119
    8SAPS   H7Y 1030   3.242   2.052   9.898  0.2525  0.2997 -0.0902
    8SAPS   C38 1031   3.385   2.174   9.780  0.4803  0.2360  0.5389
    8SAPS   H8X 1032   3.415   2.082   9.724 -1.4937 -0.8711  1.1876
    8SAPS   H8Y 1033   3.472   2.237   9.807 -0.9377  2.5241  0.0058
    8SAPS   C39 1034   3.311   2.262   9.676 -0.0619  0.1585 -0.0611
    8SAPS   H9X 1035   3.389   2.298   9.606 -0.8135  2.8687  0.3912
    8SAPS   H9Y 1036   3.261   2.353   9.715  2.1847  1.6315 -0.4560
    8SAPS  C310 1037   3.211   2.185   9.591 -0.4093  0.6297  0.1846
    8SAPS  H10X 1038   3.112   2.234   9.599  0.5479  2.3038  2.8375
    8SAPS  H10Y 1039   3.198   2.080   9.624  1.4461  0.3190  0.0324
    8SAPS  C311 1040   3.248   2.172   9.448 -0.3814 -0.3265  0.1116
    8SAPS  H11X 1041   3.181   2.099   9.398 -1.8792  0.5031  0.8285
    8SAPS  H11Y 1042   3.353   2.137   9.451 -0.7100 -1.3545 -0.2026
    8SAPS  C312 1043   3.251   2.307   9.373 -0.2896  0.0088 -0.2942
    8SAPS  H12X 1044   3.317   2.384   9.419 -1.3778  1.5019 -1.1438
    8SAPS  H12Y 1045   3.152   2.356   9.365 -0.0146  0.4785 -0.9249
    8SAPS  C313 1046   3.305   2.288   9.226  0.6059 -0.0058 -0.2941
    8SAPS  H13X 1047   3.406   2.243   9.224  1.2616  1.3800  0.0147
    8SAPS  H13Y 1048   3.304   2.395   9.195  0.8412 -0.1590 -0.8422
    8SAPS  C314 1049   3.208   2.196   9.144 -0.1549  0.0451  0.3510
    8SAPS  H14X 1050   3.103   2.227   9.163 -1.0477 -3.0263  1.0521
    8SAPS  H14Y 1051   3.207   2.095   9.190 -1.0811  0.5817  1.5956
    8SAPS  C315 1052   3.241   2.177   8.990 -0.6102  0.7151  0.4370
    8SAPS  H15X 1053   3.343   2.133   8.982 -0.7915  0.3942 -0.1078
    8SAPS  H15Y 1054   3.242   2.268   8.926  0.1446  0.4511  0.0592
    8SAPS  C316 1055   3.141   2.077   8.922 -0.3837 -0.4007  0.0448
    8SAPS  H16X 1056   3.048   2.125   8.959 -0.6915  0.5863 -1.8822
    8SAPS  H16Y 1057   3.149   1.979   8.973 -0.4799 -0.9064 -0.8918
    8SAPS  C317 1058   3.147   2.061   8.774 -0.1425 -0.7678  0.0645
    8SAPS  H17X 1059   3.247   2.030   8.735  0.3343  0.2470  0.4686
    8SAPS  H17Y 1060   3.130   2.164   8.736 -0.1601 -0.1424  1.7144
    8SAPS  C318 1061   3.040   1.973   8.726 -0.2738  0.3008  0.7553
    8SAPS  H18X 1062   3.068   1.868   8.747  2.6243  1.3840  3.0571
    8SAPS  H18Y 1063   3.039   1.971   8.614 -2.5250  0.2279  0.7232
    8SAPS  H18Z 1064   2.940   1.984   8.773  1.4216  1.1651  4.4657
    9SAPS     N 1065   6.740   2.815   6.080 -1.1355  0.0735 -0.1420
    9SAPS   HN1 1066   6.732   2.751   5.999 -0.7023 -1.2770  0.8395
    9SAPS   HN2 1067   6.821   2.875   6.054 -0.2110 -1.9281 -2.1690
    9SAPS   HN3 1068   6.763   2.766   6.169  2.0119  0.5739 -0.5788
    9SAPS   C12 1069   6.622   2.902   6.085 -1.1474 -0.3784 -0.4671
    9SAPS  H12A 1070   6.621   2.962   5.995  1.0586  3.4511  1.7611
    9SAPS   C13 1071   6.491   2.825   6.098  0.3257  0.0920  0.1475
    9SAPS  O13A 1072   6.483   2.699   6.100  0.4364  0.3415  0.2416
    9SAPS  O13B 1073   6.382   2.892   6.107  0.1186 -0.3215 -0.0001
    9SAPS   C11 1074   6.630   2.983   6.214  0.3193 -0.3445 -0.5104
    9SAPS  H11A 1075   6.645   2.921   6.305  1.6032  2.4124  1.2966
    9SAPS  H11B 1076   6.534   3.038   6.225 -0.2857 -0.9249 -2.5660
    9SAPS     P 1077   6.719   3.199   6.320  0.2324  0.4252 -0.0573
    9SAPS   O13 1078   6.849   3.271   6.325 -0.0477  0.5659 -0.1384
    9SAPS   O14 1079   6.608   3.284   6.278  0.3057  0.6146 -0.5508
    9SAPS   O12 1080   6.743   3.074   6.222 -0.5957 -0.1702 -0.4076
    9SAPS   O11 1081   6.686   3.134   6.463 -0.6510 -0.3445  0.2444
    9SAPS    C1 1082   6.785   3.048   6.524  0.4163  0.1199 -0.3773
    9SAPS    HA 1083   6.810   2.965   6.455 -0.9820  1.2148 -2.3093
    9SAPS    HB 1084   6.878   3.109   6.534  0.9929 -0.7208 -0.5266
    9SAPS    C2 1085   6.746   3.003   6.663  0.2242 -0.0377  0.9573
    9SAPS    HS 1086   6.818   2.936   6.713 -2.2247 -2.2602  1.7217
    9SAPS   O21 1087   6.624   2.934   6.636 -0.3094 -0.7776 -0.1753
    9SAPS   C21 1088   6.633   2.814   6.578 -0.3156  0.3185  0.0798
    9SAPS   O22 1089   6.740   2.758   6.550 -0.0786 -0.4522 -0.0472
    9SAPS   C22 1090   6.500   2.749   6.582  0.2640  0.1200 -0.2174
    9SAPS   H2R 1091   6.476   2.743   6.690  1.7110 -1.2723  0.0763
    9SAPS   H2S 1092   6.425   2.813   6.531 -0.6867 -1.9393 -1.5781
    9SAPS    C3 1093   6.711   3.121   6.757 -0.0591  0.5671 -0.2365
    9SAPS    HX 1094   6.625   3.181   6.721  0.3998  2.5511  1.7138
    9SAPS    HY 1095   6.796   3.192   6.762 -0.4966  1.0147  1.7357
    9SAPS   O31 1096   6.667   3.073   6.885 -0.0649 -0.4767  0.2695
    9SAPS   C31 1097   6.756   3.050   6.972 -0.1185 -0.2401 -0.7950
    9SAPS   O32 1098   6.877   3.049   6.958  0.1523 -0.1011  0.0122
    9SAPS   C32 1099   6.685   2.988   7.092  0.1245 -0.2234  0.1284
    9SAPS   H2X 1100   6.623   2.906   7.049  0.7596  0.1070 -1.4912
    9SAPS   H2Y 1101   6.611   3.060   7.133  1.2141 -0.3590  2.5195
    9SAPS   C23 1102   6.488   2.605   6.514  0.5390  0.1809  0.3114
    9SAPS   H3R 1103   6.525   2.604   6.409  0.9657 -1.8558  0.4502
    9SAPS   H3S 1104   6.378   2.590   6.515 -0.0113  3.2632  3.0574
    9SAPS   C24 1105   6.559   2.493   6.598 -0.7286  0.4049  0.4039
    9SAPS   H4R 1106   6.661   2.535   6.609  0.3040 -1.9106  0.2231
    9SAPS   H4S 1107   6.575   2.418   6.518 -2.5193 -0.4243  0.7719
    9SAPS   C25 1108   6.480   2.421   6.706  0.3242 -0.1940 -0.6111
    9SAPS   H5R 1109   6.412   2.346   6.664 -1.2998 -0.0014  1.4997
    9SAPS   C26 1110   6.483   2.433   6.846 -0.0985  0.6538 -0.7065
    9SAPS   H6R 1111   6.432   2.357   6.906  3.5450 -1.8300 -0.4100
    9SAPS   C27 1112   6.570   2.527   6.926  0.9702  0.4080  0.2750
    9SAPS   H7R 1113   6.504   2.556   7.010  0.9508  1.2494 -0.0204
    9SAPS   H7S 1114   6.604   2.617   6.870 -2.3067  0.5890 -1.6924
    9SAPS   C28 1115   6.699   2.469   6.986  0.1743  0.1446  0.2896
    9SAPS   H8R 1116   6.788   2.486   6.923  0.7351 -0.0272  1.0154
    9SAPS   C29 1117   6.713   2.424   7.114 -0.5044 -0.7048 -1.0818
    9SAPS   H9R 1118   6.816   2.394   7.139 -0.1691  0.4041 -1.0839
    9SAPS  C210 1119   6.612   2.408   7.227  0.0808  0.9269 -0.1369
    9SAPS  H10R 1120   6.510   2.421   7.185  0.8206  0.5619 -2.1184
    9SAPS  H10S 1121   6.620   2.494   7.297 -1.4795  2.0351 -1.2557
    9SAPS  C211 1122   6.625   2.271   7.288 -0.0084  0.1316 -0.6865
    9SAPS  H11R 1123   6.661   2.275   7.392  1.3682  0.6248 -1.1556
    9SAPS  C212 1124   6.602   2.151   7.236 -0.4233  0.8462  0.2782
    9SAPS  H12R 1125   6.626   2.061   7.294  0.1263 -0.9954 -2.5989
    9SAPS  C213 1126   6.552   2.125   7.095  0.0219 -0.5894  0.0029
    9SAPS  H13R 1127   6.506   2.216   7.050 -1.0617 -0.4462  1.3262
    9SAPS  H13S 1128   6.470   2.050   7.101  1.3648 -1.9942  1.8047
    9SAPS  C214 1129   6.663   2.073   7.006 -0.6147 -0.1523  0.4158
    9SAPS  H14R 1130   6.762   2.089   7.051 -0.4719  0.7210 -0.1795
    9SAPS  C215 1131   6.649   2.023   6.883 -0.2063 -0.8002  0.2623
    9SAPS  H15R 1132   6.741   1.995   6.828  0.6023  0.9197  0.6754
    9SAPS  C216 1133   6.522   2.006   6.805 -0.7470 -0.0950 -0.0190
    9SAPS  H16R 1134   6.526   2.033   6.698 -0.6132 -1.5232 -0.3982
    9SAPS  H16S 1135   6.443   2.074   6.844  1.2364  2.0191  0.5306
    9SAPS  C217 1136   6.465   1.862   6.804  0.2496 -0.5606 -0.0913
    9SAPS  H17R 1137   6.535   1.788   6.760  1.2619  0.8867 -0.9905
    9SAPS  H17S 1138   6.384   1.865   6.728  0.8759  1.2744 -0.7485
    9SAPS  C218 1139   6.415   1.825   6.944 -0.6684 -0.6833  0.7364
    9SAPS  H18R 1140   6.355   1.912   6.975  1.3775  1.2043 -0.3154
    9SAPS  H18S 1141   6.507   1.820   7.006  1.6896 -0.2915 -2.4438
    9SAPS  C219 1142   6.341   1.694   6.927  0.1628 -0.5085 -0.1710
    9SAPS  H19R 1143   6.417   1.614   6.911  0.6172 -0.0452 -0.3259
    9SAPS  H19S 1144   6.293   1.701   6.827  1.1787  1.9997 -0.5405
    9SAPS  C220 1145   6.249   1.660   7.036  0.1913 -0.2942  0.0401
    9SAPS  H20R 1146   6.197   1.754   7.063  1.3231 -0.1063  1.7144
    9SAPS  H20S 1147   6.300   1.621   7.127  0.1787 -0.5910 -0.0776
    9SAPS  H20T 1148   6.169   1.587   7.009  0.2894 -0.4731  0.2316
    9SAPS   C33 1149   6.784   2.943   7.210 -0.4847 -0.3706  0.4150
    9SAPS   H3X 1150   6.890   2.963   7.188 -0.8321  1.4112  0.2327
    9SAPS   H3Y 1151   6.766   2.836   7.238 -0.5044 -0.9368 -1.6402
    9SAPS   C34 1152   6.748   3.020   7.341  0.1307  0.3930 -0.7392
    9SAPS   H4X 1153   6.642   2.991   7.355 -0.1367  0.8713 -1.6467
    9SAPS   H4Y 1154   6.758   3.130   7.325 -0.7704  0.8541  1.4968
    9SAPS   C35 1155   6.842   2.980   7.458 -0.7474  0.5493  0.0585
    9SAPS   H5X 1156   6.935   3.035   7.431 -0.8598  0.3735 -0.7155
    9SAPS   H5Y 1157   6.863   2.871   7.467  1.6918  0.9486 -0.0178
    9SAPS   C36 1158   6.787   3.017   7.600 -0.4439 -0.4827  0.1731
    9SAPS   H6X 1159   6.780   3.128   7.605 -0.9873 -0.4740 -0.6492
    9SAPS   H6Y 1160   6.867   2.990   7.673  0.3730 -1.1475 -0.9394
    9SAPS   C37 1161   6.662   2.946   7.646 -0.1752  0.0589  0.2884
    9SAPS   H7X 1162   6.673   2.842   7.610  0.1724  0.0626  0.3789
    9SAPS   H7Y 1163   6.570   2.991   7.603  1.2804  2.7560 -0.2158
    9SAPS   C38 1164   6.657   2.943   7.794  0.6168 -0.2745 -0.0120
    9SAPS   H8X 1165   6.662   3.047   7.832  1.4547 -1.0270  2.0969
    9SAPS   H8Y 1166   6.748   2.886   7.824  0.3403  0.4655  2.4485
    9SAPS   C39 1167   6.526   2.891   7.860  0.5664  0.3643 -0.7374
    9SAPS   H9X 1168   6.483   2.813   7.793  3.2550 -1.1178 -0.8837
    9SAPS   H9Y 1169   6.447   2.968   7.877 -1.9867 -2.4732  1.2714
    9SAPS  C310 1170   6.566   2.837   7.999 -0.0696  0.3693  0.6866
    9SAPS  H10X 1171   6.626   2.910   8.058 -1.5547  2.6016 -0.4024
    9SAPS  H10Y 1172   6.622   2.743   7.988 -3.2536 -1.7757  1.3346
    9SAPS  C311 1173   6.437   2.801   8.072 -0.3094  0.2095 -0.1446
    9SAPS  H11X 1174   6.372   2.757   7.993  1.1997 -3.0216  0.2364
    9SAPS  H11Y 1175   6.394   2.895   8.112 -0.9977  0.2382 -0.9383
    9SAPS  C312 1176   6.460   2.697   8.193 -0.5571  0.7536 -0.6692
    9SAPS  H12X 1177   6.495   2.598   8.158  0.9204  0.3730  1.7008
    9SAPS  H12Y 1178   6.367   2.674   8.249 -0.5638 -0.2306 -1.0639
    9SAPS  C313 1179   6.563   2.739   8.300 -0.7158 -0.9176  0.5785
    9SAPS  H13X 1180   6.657   2.767   8.248 -1.8776 -3.1694 -3.1814
    9SAPS  H13Y 1181   6.588   2.654   8.367 -0.9306  0.3582  2.3241
    9SAPS  C314 1182   6.512   2.854   8.382 -0.1494 -0.0872 -0.5522
    9SAPS  H14X 1183   6.415   2.825   8.427 -1.0753  1.1031 -1.7039
    9SAPS  H14Y 1184   6.485   2.940   8.316  1.3070  0.8244 -0.0236
    9SAPS  C315 1185   6.606   2.895   8.495  0.0600  0.2599 -0.0529
    9SAPS  H15X 1186   6.707   2.919   8.455  0.3801  2.0163  1.6333
    9SAPS  H15Y 1187   6.614   2.812   8.568 -0.9068  0.4856  0.3279
    9SAPS  C316 1188   6.555   3.017   8.575 -0.7343 -0.7943 -0.4130
    9SAPS  H16X 1189   6.563   3.096   8.497 -0.1968 -1.3558 -0.9398
    9SAPS  H16Y 1190   6.617   3.027   8.666  1.4685  0.0557 -1.9044
    9SAPS  C317 1191   6.408   3.005   8.623  0.6119 -0.1162  0.7671
    9SAPS  H17X 1192   6.329   2.991   8.546  0.8529  1.4376  0.2026
    9SAPS  H17Y 1193   6.383   3.106   8.664 -1.3257 -0.6888  1.1069
    9SAPS  C318 1194   6.390   2.905   8.734  0.1705 -0.5869 -0.9417
    9SAPS  H18X 1195   6.286   2.919   8.770  0.6108 -0.2693  0.2588
    9SAPS  H18Y 1196   6.453   2.919   8.824 -0.6088 -3.1244  0.1083
    9SAPS  H18Z 1197   6.413   2.804   8.692 -0.0583 -0.6295 -0.9667
   10SAPS     N 1198   0.586   4.323   6.134 -0.0416 -0.4859  0.4498
   10SAPS   HN1 1199   0.621   4.344   6.039 -1.3929 -0.6082 -0.0880
   10SAPS   HN2 1200   0.576   4.405   6.198 -2.2818 -1.9847  2.1759
   10SAPS   HN3 1201   0.654   4.255   6.173  1.1768  0.2940 -0.2492
   10SAPS   C12 1202   0.453   4.254   6.139  0.3244  0.2947  0.2714
   10SAPS  H12A 1203   0.380   4.322   6.099  0.5458  1.0361  1.1044
   10SAPS   C13 1204   0.458   4.122   6.063  0.1933 -0.8942 -0.9239
   10SAPS  O13A 1205   0.562   4.090   6.002 -0.0892 -0.1288 -0.7202
   10SAPS  O13B 1206   0.349   4.058   6.050  0.2600  0.0737 -0.4418
   10SAPS   C11 1207   0.430   4.237   6.285  0.1165  0.5358 -0.0996
   10SAPS  H11A 1208   0.515   4.192   6.341 -1.1610 -0.3271  1.2323
   10SAPS  H11B 1209   0.341   4.175   6.310  0.6490 -1.1721 -2.2362
   10SAPS     P 1210   0.462   4.414   6.484 -0.3275  0.2396  0.2257
   10SAPS   O13 1211   0.609   4.409   6.486  0.0948 -0.4530  0.0390
   10SAPS   O14 1212   0.383   4.531   6.526  0.2449  0.1073  0.9042
   10SAPS   O12 1213   0.407   4.369   6.339  0.2375 -0.0463 -0.1024
   10SAPS   O11 1214   0.412   4.302   6.588  0.0612 -0.3835 -0.0808
   10SAPS    C1 1215   0.275   4.246   6.590 -0.2810 -0.6046  0.6677
   10SAPS    HA 1216   0.209   4.330   6.559  0.0020  0.3003  2.3970
   10SAPS    HB 1217   0.264   4.167   6.513  2.7398 -0.7792  0.2976
   10SAPS    C2 1218   0.228   4.203   6.725 -0.3909  0.7541  0.1449
   10SAPS    HS 1219   0.118   4.193   6.715 -0.3556  0.3796  0.0990
   10SAPS   O21 1220   0.275   4.300   6.829 -0.0240 -0.0793  0.2748
   10SAPS   C21 1221   0.199   4.415   6.816  0.0945  0.6442 -0.7373
   10SAPS   O22 1222   0.095   4.427   6.752 -0.0228 -0.1160  0.5452
   10SAPS   C22 1223   0.258   4.520   6.910 -0.4317 -0.4712 -0.2427
   10SAPS   H2R 1224   0.342   4.569   6.856 -0.5178 -0.0966 -0.0357
   10SAPS   H2S 1225   0.174   4.588   6.936 -0.5901 -0.1806 -1.4296
   10SAPS    C3 1226   0.284   4.055   6.759 -0.9260  0.5136 -0.6198
   10SAPS    HX 1227   0.395   4.065   6.758 -0.6117 -1.6170  2.1908
   10SAPS    HY 1228   0.253   3.984   6.680  0.0045  0.0553 -0.5788
   10SAPS   O31 1229   0.232   4.005   6.888 -0.8768 -0.2784 -0.3261
   10SAPS   C31 1230   0.330   3.977   6.976 -0.0593  0.1595 -0.5413
   10SAPS   O32 1231   0.448   3.967   6.955 -0.4151 -0.2275 -0.5234
   10SAPS   C32 1232   0.264   3.955   7.113  0.4916 -0.6040  0.4979
   10SAPS   H2X 1233   0.346   3.915   7.177  1.0862 -0.0084  0.1165
   10SAPS   H2Y 1234   0.181   3.884   7.093 -0.1698  0.0490  0.8836
   10SAPS   C23 1235   0.309   4.463   7.043 -0.2705  0.2343 -0.1099
   10SAPS   H3R 1236   0.409   4.419   7.025 -0.1503  0.7955 -0.8634
   10SAPS   H3S 1237   0.248   4.378   7.080 -0.7010  0.7016  0.2695
   10SAPS   C24 1238   0.308   4.567   7.152 -0.0554 -0.1926 -0.7173
   10SAPS   H4R 1239   0.322   4.513   7.248  1.7856 -0.5705 -1.1680
   10SAPS   H4S 1240   0.204   4.608   7.154 -0.0951 -0.1261 -2.5084
   10SAPS   C25 1241   0.408   4.679   7.146 -0.6868  0.3197  0.2923
   10SAPS   H5R 1242   0.385   4.736   7.054  0.5878 -2.6054 -2.0036
   10SAPS   C26 1243   0.519   4.711   7.225 -0.2115  0.3523 -0.2942
   10SAPS   H6R 1244   0.582   4.796   7.199 -0.3587 -0.3722 -3.3417
   10SAPS   C27 1245   0.563   4.642   7.353  0.1539 -0.3788 -0.1050
   10SAPS   H7R 1246   0.660   4.591   7.333 -0.5354 -2.3811  1.2845
   10SAPS   H7S 1247   0.495   4.557   7.373  0.1478  0.0944  2.0321
   10SAPS   C28 1248   0.579   4.723   7.487  0.1939  0.1794  0.1533
   10SAPS   H8R 1249   0.600   4.830   7.471  3.1729 -0.5966 -2.3194
   10SAPS   C29 1250   0.569   4.677   7.610  0.0360  0.1263  0.0267
   10SAPS   H9R 1251   0.579   4.752   7.689  1.1844  1.0507 -0.9624
   10SAPS  C210 1252   0.556   4.535   7.647  0.8711 -0.2421  0.1194
   10SAPS  H10R 1253   0.513   4.476   7.564  0.4831 -3.6733  2.5179
   10SAPS  H10S 1254   0.477   4.518   7.723  1.6723  1.4913  1.4370
   10SAPS  C211 1255   0.682   4.464   7.687 -1.0765 -0.2031 -0.0170
   10SAPS  H11R 1256   0.747   4.441   7.601 -0.4622 -2.3736  0.9536
   10SAPS  C212 1257   0.728   4.422   7.810  0.9889  0.0429 -0.3887
   10SAPS  H12R 1258   0.822   4.368   7.827  0.1967 -1.1646  0.3234
   10SAPS  C213 1259   0.650   4.449   7.937 -0.5154  0.2238 -0.2397
   10SAPS  H13R 1260   0.560   4.514   7.929 -0.7114 -0.2309 -1.9893
   10SAPS  H13S 1261   0.717   4.513   7.998 -0.0066 -0.8508  0.3655
   10SAPS  C214 1262   0.614   4.320   8.006  0.0181  0.2525 -0.1696
   10SAPS  H14R 1263   0.631   4.220   7.962  0.0706 -1.2831  3.0755
   10SAPS  C215 1264   0.552   4.320   8.120  0.2208  0.3662  0.8351
   10SAPS  H15R 1265   0.524   4.221   8.159  1.1375 -0.2665 -0.0607
   10SAPS  C216 1266   0.502   4.431   8.205  0.6417 -0.5605 -0.0684
   10SAPS  H16R 1267   0.397   4.410   8.235  0.5708  1.0194  0.8705
   10SAPS  H16S 1268   0.498   4.528   8.151  1.9220  0.7779  2.0872
   10SAPS  C217 1269   0.595   4.444   8.327  0.2685  0.6009  0.2765
   10SAPS  H17R 1270   0.664   4.357   8.329  0.1514  0.4550 -1.0963
   10SAPS  H17S 1271   0.535   4.436   8.421  1.6180  0.2452  1.1461
   10SAPS  C218 1272   0.683   4.572   8.308 -0.4317 -0.4332 -0.3958
   10SAPS  H18R 1273   0.610   4.655   8.311 -1.7970 -1.5855  2.1564
   10SAPS  H18S 1274   0.736   4.574   8.211  1.4473  2.7760  0.5557
   10SAPS  C219 1275   0.783   4.584   8.430  0.2999 -0.4949 -0.3238
   10SAPS  H19R 1276   0.849   4.495   8.428  0.6587 -0.2832  1.1856
   10SAPS  H19S 1277   0.716   4.591   8.518  1.3630  2.5546  0.3685
   10SAPS  C220 1278   0.869   4.714   8.421 -1.1879 -0.0466  0.1541
   10SAPS  H20R 1279   0.812   4.808   8.437 -1.8590 -0.2732 -0.8051
   10SAPS  H20S 1280   0.915   4.722   8.320  0.7543  4.1042  1.1265
   10SAPS  H20T 1281   0.950   4.712   8.497 -1.7402  0.4765  0.7633
   10SAPS   C33 1282   0.210   4.093   7.167 -0.2581 -0.4791 -0.0744
   10SAPS   H3X 1283   0.099   4.089   7.166 -0.2643 -0.7094  1.0003
   10SAPS   H3Y 1284   0.258   4.168   7.100  0.8429 -0.2415  0.9566
   10SAPS   C34 1285   0.265   4.117   7.308  0.4068 -0.0150  0.3505
   10SAPS   H4X 1286   0.374   4.136   7.298  0.1825  1.3546  0.3677
   10SAPS   H4Y 1287   0.248   4.023   7.365  1.2366 -0.3818  0.0003
   10SAPS   C35 1288   0.214   4.252   7.383 -0.2294 -0.0535 -0.5135
   10SAPS   H5X 1289   0.104   4.242   7.395 -0.0307 -0.1598  1.6996
   10SAPS   H5Y 1290   0.233   4.340   7.319 -0.8784  1.7729  1.6802
   10SAPS   C36 1291   0.287   4.279   7.515  0.1994 -0.1650  0.7135
   10SAPS   H6X 1292   0.255   4.378   7.553  2.0908 -0.2770  2.8156
   10SAPS   H6Y 1293   0.397   4.275   7.505  0.3846 -1.2843  2.5298
   10SAPS   C37 1294   0.264   4.182   7.635 -0.3056  0.1161 -0.0035
   10SAPS   H7X 1295   0.276   4.078   7.597  0.0810 -0.5111  1.7217
   10SAPS   H7Y 1296   0.159   4.179   7.671  0.2423 -2.8209  1.6468
   10SAPS   C38 1297   0.365   4.211   7.746 -0.2817 -0.3661 -0.2182
   10SAPS   H8X 1298   0.336   4.308   7.792  3.9238  1.4019 -0.8284
   10SAPS   H8Y 1299   0.470   4.219   7.710  0.1035  1.4962  1.1547
   10SAPS   C39 1300   0.356   4.104   7.855  0.3186  0.3935 -0.5247
   10SAPS   H9X 1301   0.457   4.081   7.896  0.4806  2.4745  0.3592
   10SAPS   H9Y 1302   0.296   4.023   7.808  2.5243 -0.3395 -2.3062
   10SAPS  C310 1303   0.283   4.143   7.981  0.4615  0.5550  0.3264
   10SAPS  H10X 1304   0.174   4.136   7.960  0.6999 -2.0584 -0.4785
   10SAPS  H10Y 1305   0.311   4.247   8.010  1.3332  0.5598 -0.4702
   10SAPS  C311 1306   0.301   4.037   8.093 -0.2953 -0.7844 -0.3279
   10SAPS  H11X 1307   0.407   4.005   8.101 -0.4113 -1.9659 -2.7426
   10SAPS  H11Y 1308   0.241   3.945   8.080  0.5167 -1.3711  0.0305
   10SAPS  C312 1309   0.244   4.094   8.226 -0.1016 -0.4531 -0.7896
   10SAPS  H12X 1310   0.138   4.127   8.219  0.8783  3.3977 -0.0397
   10SAPS  H12Y 1311   0.304   4.186   8.245 -1.2650  0.5703 -1.9205
   10SAPS  C313 1312   0.262   3.995   8.343  0.2176 -0.4246  0.8759
   10SAPS  H13X 1313   0.371   3.998   8.369  0.7852 -0.9307 -1.2873
   10SAPS  H13Y 1314   0.242   3.890   8.314  2.8493 -1.1380  1.2938
   10SAPS  C314 1315   0.171   4.020   8.461  0.7400 -0.2188 -0.0946
   10SAPS  H14X 1316   0.184   3.937   8.534  1.8849 -0.9447 -1.0723
   10SAPS  H14Y 1317   0.068   4.034   8.423  0.6743 -0.3549  0.0327
   10SAPS  C315 1318   0.190   4.150   8.533 -0.0527 -0.1817  0.3629
   10SAPS  H15X 1319   0.109   4.160   8.608 -0.2521 -2.0072  0.4279
   10SAPS  H15Y 1320   0.184   4.229   8.454  0.4485  0.6109  1.0936
   10SAPS  C316 1321   0.318   4.166   8.614 -0.4654 -0.4828 -0.1972
   10SAPS  H16X 1322   0.389   4.206   8.539 -1.8540 -2.3557 -2.6833
   10SAPS  H16Y 1323   0.350   4.070   8.661 -0.1051 -0.2105  0.1173
   10SAPS  C317 1324   0.307   4.270   8.726 -0.0478 -0.0927  0.3512
   10SAPS  H17X 1325   0.240   4.231   8.805  0.8583 -0.3563  1.0026
   10SAPS  H17Y 1326   0.261   4.365   8.691  1.5584  1.0831  1.2747
   10SAPS  C318 1327   0.438   4.309   8.780 -0.4486  0.8103 -0.4399
   10SAPS  H18X 1328   0.482   4.224   8.835 -2.8622  0.5203  1.2141
   10SAPS  H18Y 1329   0.421   4.389   8.855  0.9298  0.9534 -0.2595
   10SAPS  H18Z 1330   0.511   4.345   8.704  0.8012 -0.8808 -0.0781
   11SAPS     N 1331   0.811   0.448   6.084  0.0120 -0.0264  0.1748
   11SAPS   HN1 1332   0.715   0.425   6.115 -0.0087 -0.0279  0.1098
   11SAPS   HN2 1333   0.877   0.416   6.157  1.5257  0.3023 -0.9931
   11SAPS   HN3 1334   0.820   0.549   6.061 -1.2614  0.1208  0.2560
   11SAPS   C12 1335   0.840   0.369   5.957  0.2003 -0.5205  0.1112
   11SAPS  H12A 1336   0.785   0.420   5.879  3.3200  0.2738 -1.7371
   11SAPS   C13 1337   0.992   0.383   5.916  0.6937  0.4671 -0.6452
   11SAPS  O13A 1338   1.060   0.491   5.949  0.0844  0.6006 -0.3589
   11SAPS  O13B 1339   1.021   0.315   5.815 -0.6396  0.4014 -0.0630
   11SAPS   C11 1340   0.821   0.217   5.969  0.5418 -0.2406  0.3817
   11SAPS  H11A 1341   0.895   0.180   6.044  0.6764 -1.8885 -0.5092
   11SAPS  H11B 1342   0.840   0.160   5.875 -2.4161  0.6648 -0.8758
   11SAPS     P 1343   0.637   0.063   6.052  0.0133 -0.4387 -0.2986
   11SAPS   O13 1344   0.492   0.070   6.048  0.1812  0.6802 -0.1791
   11SAPS   O14 1345   0.705  -0.037   5.972 -0.3649 -0.2888  0.2825
   11SAPS   O12 1346   0.687   0.205   6.019  0.4723 -0.0058 -0.1410
   11SAPS   O11 1347   0.688   0.041   6.202  0.9044  0.5488 -0.6681
   11SAPS    C1 1348   0.702   0.161   6.288  0.5221 -0.0703  0.2876
   11SAPS    HA 1349   0.790   0.216   6.249  0.3641  0.2949  0.4355
   11SAPS    HB 1350   0.618   0.234   6.280  0.9088  0.3300 -0.1802
   11SAPS    C2 1351   0.688   0.126   6.443  0.0941  0.3823 -0.3278
   11SAPS    HS 1352   0.771   0.053   6.458  0.2113  0.7128  0.6736
   11SAPS   O21 1353   0.554   0.084   6.473  0.2392  0.3383  0.0478
   11SAPS   C21 1354   0.549  -0.028   6.540 -0.2784  0.5163 -0.5969
   11SAPS   O22 1355   0.644  -0.098   6.577 -0.4860  0.3724 -0.6722
   11SAPS   C22 1356   0.401  -0.059   6.551 -0.1122  0.5041  0.6613
   11SAPS   H2R 1357   0.350  -0.035   6.455 -0.5604 -0.7264  0.5663
   11SAPS   H2S 1358   0.402  -0.170   6.562  1.8039  0.2780 -1.0838
   11SAPS    C3 1359   0.736   0.250   6.531 -0.0634 -0.1489 -0.2287
   11SAPS    HX 1360   0.653   0.324   6.532  1.3753  1.5772 -1.8081
   11SAPS    HY 1361   0.828   0.287   6.482 -0.7384 -0.1740 -1.5612
   11SAPS   O31 1362   0.768   0.216   6.669 -0.0862 -0.7401  0.1162
   11SAPS   C31 1363   0.674   0.214   6.757 -0.0636 -0.1897 -0.1838
   11SAPS   O32 1364   0.564   0.261   6.744  0.5010 -0.3768  0.2545
   11SAPS   C32 1365   0.726   0.138   6.878 -0.5644  0.2189  0.1507
   11SAPS   H2X 1366   0.831   0.169   6.898 -0.3832 -0.0681 -0.3602
   11SAPS   H2Y 1367   0.728   0.032   6.846  2.8906  0.1415  0.2357
   11SAPS   C23 1368   0.329  -0.004   6.679 -0.9365 -0.2141 -0.8068
   11SAPS   H3R 1369   0.219   0.005   6.665 -0.9685 -0.1498 -0.5326
   11SAPS   H3S 1370   0.378   0.095   6.695  1.0097 -1.0341 -1.4733
   11SAPS   C24 1371   0.357  -0.089   6.805  0.4622 -0.9477  0.5953
   11SAPS   H4R 1372   0.369  -0.007   6.880 -2.7335 -1.1473  1.4872
   11SAPS   H4S 1373   0.454  -0.141   6.790 -0.0279 -1.1201 -2.6494
   11SAPS   C25 1374   0.243  -0.182   6.860  0.4250  0.4251  0.3560
   11SAPS   H5R 1375   0.226  -0.275   6.803  0.7236  1.2198 -1.0790
   11SAPS   C26 1376   0.155  -0.165   6.962  0.2090 -0.0988 -1.0074
   11SAPS   H6R 1377   0.082  -0.244   6.984  0.7352 -0.3957 -0.3322
   11SAPS   C27 1378   0.145  -0.039   7.046  0.0842 -0.5147  0.0183
   11SAPS   H7R 1379   0.038  -0.017   7.066  0.3652  1.0310 -0.1065
   11SAPS   H7S 1380   0.189   0.045   6.988  2.8980 -1.8491  0.0415
   11SAPS   C28 1381   0.216  -0.042   7.178  0.6165  0.5978 -0.1736
   11SAPS   H8R 1382   0.325  -0.050   7.160  0.5902 -0.0090 -0.1112
   11SAPS   C29 1383   0.165  -0.031   7.307 -0.5891 -0.5363  0.2358
   11SAPS   H9R 1384   0.235  -0.067   7.384  0.7538 -3.3683 -2.1062
   11SAPS  C210 1385   0.024  -0.001   7.347  0.0866 -0.6710  0.1036
   11SAPS  H10R 1386  -0.033  -0.096   7.342 -2.5327  0.8098  0.0283
   11SAPS  H10S 1387  -0.024   0.063   7.270  1.7863  2.0131  1.1562
   11SAPS  C211 1388  -0.002   0.069   7.477 -0.5377 -0.2665  0.7247
   11SAPS  H11R 1389  -0.008   0.178   7.471  2.4033  0.0345  1.6225
   11SAPS  C212 1390   0.005   0.014   7.603 -0.2539  0.6484  0.4647
   11SAPS  H12R 1391  -0.005   0.077   7.692 -0.8447 -0.0567  0.9097
   11SAPS  C213 1392   0.031  -0.131   7.637  0.5100  0.0069 -1.0489
   11SAPS  H13R 1393   0.037  -0.194   7.545  1.0780 -2.2253  0.4300
   11SAPS  H13S 1394  -0.047  -0.177   7.701  0.5443  0.8821 -0.3607
   11SAPS  C214 1395   0.165  -0.140   7.697 -0.3243  0.3686  0.3553
   11SAPS  H14R 1396   0.252  -0.105   7.640 -0.0720  0.8424  1.0141
   11SAPS  C215 1397   0.187  -0.198   7.814 -0.7607 -0.0423 -0.2766
   11SAPS  H15R 1398   0.295  -0.194   7.836 -1.1487  0.8382  1.6356
   11SAPS  C216 1399   0.092  -0.248   7.918  0.2892 -0.1776  0.1641
   11SAPS  H16R 1400   0.034  -0.329   7.869 -2.8400  1.1062  1.4716
   11SAPS  H16S 1401   0.022  -0.169   7.953  1.4703  0.7483  0.5208
   11SAPS  C217 1402   0.160  -0.303   8.046 -0.1046 -0.1498  0.7961
   11SAPS  H17R 1403   0.218  -0.223   8.097 -1.0424  1.5412 -0.6832
   11SAPS  H17S 1404   0.230  -0.380   8.007  0.6666 -0.2402  2.2721
   11SAPS  C218 1405   0.064  -0.366   8.152  0.8177 -0.4622 -0.3966
   11SAPS  H18R 1406   0.004  -0.445   8.103  4.0065 -2.0851 -1.9685
   11SAPS  H18S 1407  -0.000  -0.281   8.184  0.9075  1.2341 -4.1561
   11SAPS  C219 1408   0.130  -0.441   8.271  0.0229  0.0504  0.3211
   11SAPS  H19R 1409   0.185  -0.526   8.226 -0.4037  0.5130 -1.1333
   11SAPS  H19S 1410   0.047  -0.483   8.332  0.0527 -0.2540  0.1558
   11SAPS  C220 1411   0.210  -0.353   8.372 -0.2095 -1.3771  0.0802
   11SAPS  H20R 1412   0.269  -0.284   8.309 -1.5856 -0.7028 -0.5198
   11SAPS  H20S 1413   0.271  -0.422   8.434 -0.8931 -0.8485  1.4023
   11SAPS  H20T 1414   0.135  -0.296   8.432 -0.4976  2.1180 -3.1915
   11SAPS   C33 1415   0.635   0.136   7.002 -0.4577 -0.0389 -0.4630
   11SAPS   H3X 1416   0.545   0.085   6.963 -0.8194 -1.6468  2.2182
   11SAPS   H3Y 1417   0.610   0.240   7.033  1.3697  0.2996  0.0077
   11SAPS   C34 1418   0.689   0.058   7.117 -0.3182 -0.2475 -0.5557
   11SAPS   H4X 1419   0.790   0.090   7.152  0.4179 -3.0927  0.1536
   11SAPS   H4Y 1420   0.703  -0.047   7.084  1.3707 -0.0709 -0.4976
   11SAPS   C35 1421   0.601   0.062   7.244 -0.0942 -0.6390  0.2921
   11SAPS   H5X 1422   0.495   0.085   7.220  0.0776  0.3371  0.4156
   11SAPS   H5Y 1423   0.620   0.152   7.307  0.8293 -0.5414 -0.1072
   11SAPS   C36 1424   0.617  -0.063   7.332 -0.4597  0.5437 -0.2627
   11SAPS   H6X 1425   0.719  -0.107   7.341 -0.7833  0.0551  1.4726
   11SAPS   H6Y 1426   0.571  -0.151   7.282  0.9007 -0.7006  0.5935
   11SAPS   C37 1427   0.540  -0.056   7.471  0.2790  0.2103 -0.4986
   11SAPS   H7X 1428   0.434  -0.051   7.439  0.1483  0.9085  0.0125
   11SAPS   H7Y 1429   0.568   0.037   7.525  2.7769 -0.5118 -0.4227
   11SAPS   C38 1430   0.570  -0.174   7.567  0.5973 -0.0697 -0.0675
   11SAPS   H8X 1431   0.675  -0.206   7.551 -0.1430 -3.3844  1.0522
   11SAPS   H8Y 1432   0.510  -0.263   7.537  1.5810  0.0720 -2.6748
   11SAPS   C39 1433   0.550  -0.141   7.714 -0.5695 -0.4352  0.1368
   11SAPS   H9X 1434   0.448  -0.102   7.733 -0.6603 -0.0993 -0.9849
   11SAPS   H9Y 1435   0.624  -0.063   7.743  1.5133 -1.4234 -2.1816
   11SAPS  C310 1436   0.551  -0.265   7.819 -0.5044 -0.6340  0.5134
   11SAPS  H10X 1437   0.634  -0.336   7.804 -0.4160 -0.8301  1.8342
   11SAPS  H10Y 1438   0.472  -0.343   7.811  0.8168 -1.9113 -0.3971
   11SAPS  C311 1439   0.545  -0.202   7.957  0.5204 -0.1832  0.4075
   11SAPS  H11X 1440   0.464  -0.129   7.977 -0.6603 -0.9801 -1.1849
   11SAPS  H11Y 1441   0.636  -0.139   7.968  2.3146 -2.5967  0.1564
   11SAPS  C312 1442   0.551  -0.310   8.067  0.3265 -0.3779  0.0879
   11SAPS  H12X 1443   0.618  -0.394   8.043  0.6198 -0.5952  1.5934
   11SAPS  H12Y 1444   0.446  -0.347   8.071 -0.3470  1.2512 -1.1390
   11SAPS  C313 1445   0.597  -0.240   8.198 -0.5575  0.1410 -0.0215
   11SAPS  H13X 1446   0.533  -0.151   8.214 -3.3014 -1.4838 -1.2579
   11SAPS  H13Y 1447   0.700  -0.203   8.178 -0.9765  2.6388  1.8340
   11SAPS  C314 1448   0.609  -0.330   8.324 -0.7651  0.1168 -0.3043
   11SAPS  H14X 1449   0.625  -0.434   8.288 -2.5915 -0.3140  0.0329
   11SAPS  H14Y 1450   0.524  -0.324   8.395  0.2545  0.5313  0.9302
   11SAPS  C315 1451   0.732  -0.298   8.410 -0.6851 -0.4355  0.4419
   11SAPS  H15X 1452   0.716  -0.199   8.458 -1.8967  0.1868 -1.1851
   11SAPS  H15Y 1453   0.821  -0.310   8.344 -0.5445  0.8533  0.3766
   11SAPS  C316 1454   0.754  -0.397   8.530  0.6592 -0.0792 -0.2803
   11SAPS  H16X 1455   0.777  -0.497   8.486 -1.7131 -0.8487  0.0829
   11SAPS  H16Y 1456   0.662  -0.410   8.590  1.1038 -0.7906  0.2620
   11SAPS  C317 1457   0.866  -0.352   8.634  0.1031 -0.7011  0.1080
   11SAPS  H17X 1458   0.840  -0.249   8.667 -1.2033 -0.3719 -1.7625
   11SAPS  H17Y 1459   0.959  -0.339   8.575 -0.9023  0.7286 -1.2479
   11SAPS  C318 1460   0.890  -0.450   8.756  0.0442  0.8513 -0.2220
   11SAPS  H18X 1461   0.909  -0.552   8.716 -0.0214  0.9458 -0.4962
   11SAPS  H18Y 1462   0.804  -0.451   8.827  0.6495 -1.0533  0.5599
   11SAPS  H18Z 1463   0.986  -0.421   8.802  0.5863  0.0700 -0.8318
   12SAPS     N 1464   5.880   0.446   6.433  0.3326  0.2449 -0.7298
   12SAPS   HN1 1465   5.947   0.404   6.501 -0.9969 -0.0017  0.4784
   12SAPS   HN2 1466   5.880   0.549   6.448  4.0479 -0.0409  3.0318
   12SAPS   HN3 1467   5.785   0.405   6.447  1.6256 -2.9480 -0.4043
   12SAPS   C12 1468   5.926   0.414   6.303  0.5328  0.0531 -0.1653
   12SAPS  H12A 1469   5.948   0.309   6.296  2.2806  0.4071 -0.6317
   12SAPS   C13 1470   5.824   0.452   6.190 -0.2852  0.4988 -0.4566
   12SAPS  O13A 1471   5.721   0.518   6.213 -0.1489 -0.2116 -0.4192
   12SAPS  O13B 1472   5.867   0.429   6.073 -0.1836 -0.3869  0.6136
   12SAPS   C11 1473   6.066   0.490   6.280 -0.3309  0.5472 -0.2984
   12SAPS  H11A 1474   6.054   0.596   6.312  0.1287 -0.1376  2.3691
   12SAPS  H11B 1475   6.105   0.478   6.177 -0.7227 -3.0412 -0.1458
   12SAPS     P 1476   6.238   0.304   6.365  0.0056  0.1374  0.1866
   12SAPS   O13 1477   6.152   0.191   6.396  0.4070 -0.1598 -0.7405
   12SAPS   O14 1478   6.300   0.307   6.227  0.7692  0.0557 -0.2477
   12SAPS   O12 1479   6.154   0.437   6.379 -0.2732 -0.2373  0.3811
   12SAPS   O11 1480   6.354   0.324   6.470 -0.4041  0.2762 -0.3154
   12SAPS    C1 1481   6.437   0.441   6.471  0.2340 -0.2149 -0.1005
   12SAPS    HA 1482   6.516   0.445   6.394  1.0868 -0.7159  0.7184
   12SAPS    HB 1483   6.372   0.529   6.457  0.5988 -0.2075 -1.9924
   12SAPS    C2 1484   6.508   0.467   6.606  0.5753  0.1887 -0.0693
   12SAPS    HS 1485   6.536   0.574   6.593  1.7422 -0.0322  0.5919
   12SAPS   O21 1486   6.614   0.371   6.639 -0.2705  0.1128 -0.4137
   12SAPS   C21 1487   6.737   0.402   6.602 -0.0556 -0.0339  0.3206
   12SAPS   O22 1488   6.768   0.501   6.538  0.5938  1.1516 -0.8805
   12SAPS   C22 1489   6.837   0.291   6.637  0.2184 -0.6910 -0.0051
   12SAPS   H2R 1490   6.792   0.191   6.620  1.6948 -1.2171 -1.0727
   12SAPS   H2S 1491   6.923   0.309   6.569 -0.3882  3.5750  0.0580
   12SAPS    C3 1492   6.403   0.460   6.720  0.8914  0.9240  0.0228
   12SAPS    HX 1493   6.378   0.353   6.734  1.0697  0.6872 -1.3028
   12SAPS    HY 1494   6.300   0.496   6.699  0.1122 -1.3169 -0.2878
   12SAPS   O31 1495   6.450   0.505   6.845 -0.4236  0.2641 -0.0225
   12SAPS   C31 1496   6.437   0.635   6.859 -0.0514  1.3678  0.3377
   12SAPS   O32 1497   6.384   0.715   6.781 -0.2916 -0.0113 -0.1797
   12SAPS   C32 1498   6.504   0.670   6.991 -0.2194 -0.0215  0.2743
   12SAPS   H2X 1499   6.436   0.640   7.073  0.1113 -0.6242  0.3289
   12SAPS   H2Y 1500   6.498   0.780   7.008 -3.9344 -0.1565  0.7119
   12SAPS   C23 1501   6.878   0.294   6.787  0.1068 -0.4842 -0.1369
   12SAPS   H3R 1502   6.894   0.189   6.820  0.3095 -0.4224 -0.0384
   12SAPS   H3S 1503   6.799   0.328   6.857  0.9269  0.3378  0.4066
   12SAPS   C24 1504   7.013   0.375   6.807  0.8597 -0.4638  0.1362
   12SAPS   H4R 1505   7.064   0.370   6.708  0.9622  1.4258  0.0663
   12SAPS   H4S 1506   7.082   0.329   6.881  1.6131 -0.6724 -0.6786
   12SAPS   C25 1507   6.969   0.512   6.840  0.2302  0.0823 -0.0327
   12SAPS   H5R 1508   6.928   0.563   6.752  0.0815  0.9349  0.5233
   12SAPS   C26 1509   6.982   0.570   6.962  0.1548  0.5642 -0.7664
   12SAPS   H6R 1510   6.933   0.666   6.983 -1.4866 -0.4757  0.4532
   12SAPS   C27 1511   7.043   0.500   7.086  0.3895 -0.8920  0.6933
   12SAPS   H7R 1512   7.056   0.578   7.164  1.9726 -0.7906  0.3549
   12SAPS   H7S 1513   7.148   0.469   7.066  0.3154  0.0451 -1.4756
   12SAPS   C28 1514   6.975   0.373   7.133  0.6517 -0.1073  0.4374
   12SAPS   H8R 1515   6.945   0.312   7.046 -2.1577 -0.2769  1.4310
   12SAPS   C29 1516   6.965   0.315   7.249 -0.7831  0.2919 -0.1259
   12SAPS   H9R 1517   6.913   0.218   7.250  0.0366 -0.1640  1.2401
   12SAPS  C210 1518   7.021   0.375   7.382  0.4436 -0.7477  0.0081
   12SAPS  H10R 1519   6.945   0.357   7.460  0.1148  0.2362 -0.0735
   12SAPS  H10S 1520   7.023   0.485   7.364  0.7138 -1.0755 -2.2670
   12SAPS  C211 1521   7.165   0.342   7.425 -0.2232 -0.0986 -0.3401
   12SAPS  H11R 1522   7.232   0.326   7.340 -0.7642 -0.0745 -0.7782
   12SAPS  C212 1523   7.205   0.338   7.552 -0.5763  0.0812  0.3926
   12SAPS  H12R 1524   7.307   0.303   7.573 -0.2220  1.2898  0.7907
   12SAPS  C213 1525   7.133   0.363   7.687  0.0518  0.0872  0.1029
   12SAPS  H13R 1526   7.064   0.450   7.680  0.1788  0.1439 -0.5031
   12SAPS  H13S 1527   7.197   0.407   7.766 -1.4909  2.8972 -0.0808
   12SAPS  C214 1528   7.055   0.248   7.741 -0.6021 -0.6433  0.0618
   12SAPS  H14R 1529   6.963   0.228   7.683 -0.2259  0.4166 -0.9251
   12SAPS  C215 1530   7.091   0.162   7.836 -0.3866  0.4854 -0.6689
   12SAPS  H15R 1531   7.011   0.095   7.870  1.6237 -1.2352  0.9891
   12SAPS  C216 1532   7.220   0.159   7.918  0.6433  1.0606  1.2282
   12SAPS  H16R 1533   7.304   0.224   7.883  2.3831 -0.4564  2.3930
   12SAPS  H16S 1534   7.276   0.064   7.927  2.1487  1.7986  0.1132
   12SAPS  C217 1535   7.187   0.218   8.062  0.3805 -0.0563 -0.3761
   12SAPS  H17R 1536   7.139   0.317   8.054  1.6135  0.6073  0.1837
   12SAPS  H17S 1537   7.278   0.206   8.125 -0.9807  0.6444  1.8242
   12SAPS  C218 1538   7.081   0.129   8.133  0.7005  0.8268 -0.4257
   12SAPS  H18R 1539   7.119   0.025   8.136 -2.7777 -0.6252 -2.0685
   12SAPS  H18S 1540   6.986   0.123   8.076  0.8576  0.1852 -0.6229
   12SAPS  C219 1541   7.048   0.165   8.281 -0.0707  0.5127  0.2853
   12SAPS  H19R 1542   6.958   0.112   8.320 -1.3898  2.7761  0.4565
   12SAPS  H19S 1543   7.014   0.270   8.272 -2.4516 -0.2167 -0.1741
   12SAPS  C220 1544   7.164   0.153   8.382  0.8117  0.2228 -0.2943
   12SAPS  H20R 1545   7.176   0.043   8.392 -0.1410  0.2014  0.8143
   12SAPS  H20S 1546   7.127   0.192   8.479  0.5992  1.5583 -0.8857
   12SAPS  H20T 1547   7.259   0.203   8.354  2.1142  0.1207  3.4985
   12SAPS   C33 1548   6.653   0.618   7.007 -0.3920  0.4182  0.5209
   12SAPS   H3X 1549   6.721   0.689   6.956 -0.8014  0.5147  0.1029
   12SAPS   H3Y 1550   6.667   0.514   6.972 -2.5555 -0.0434  0.8728
   12SAPS   C34 1551   6.696   0.631   7.159 -0.4056 -0.6287  0.0801
   12SAPS   H4X 1552   6.670   0.737   7.179  1.4565 -0.0398 -0.4584
   12SAPS   H4Y 1553   6.801   0.607   7.184 -0.7915 -0.9238  1.5714
   12SAPS   C35 1554   6.618   0.547   7.254  0.3404 -0.2481 -1.3038
   12SAPS   H5X 1555   6.647   0.442   7.233  0.8923 -0.6603  1.1978
   12SAPS   H5Y 1556   6.507   0.556   7.256  0.2914  0.7325  3.2923
   12SAPS   C36 1557   6.665   0.560   7.399  1.0168  0.0034 -0.1767
   12SAPS   H6X 1558   6.620   0.653   7.440 -0.4978 -0.6707 -0.2685
   12SAPS   H6Y 1559   6.776   0.564   7.411  1.5105 -0.5170 -3.5150
   12SAPS   C37 1560   6.607   0.447   7.480  0.6428  0.5919 -0.1489
   12SAPS   H7X 1561   6.614   0.352   7.423 -0.4281  0.9012 -0.8366
   12SAPS   H7Y 1562   6.500   0.476   7.489  0.4127 -0.0690 -0.7212
   12SAPS   C38 1563   6.672   0.432   7.622  0.2179 -0.7860  0.7199
   12SAPS   H8X 1564   6.774   0.389   7.612 -0.4519 -2.3473  0.4058
   12SAPS   H8Y 1565   6.605   0.353   7.662 -1.6469  0.3695  0.0050
   12SAPS   C39 1566   6.664   0.565   7.700 -0.4014  0.4269  0.1442
   12SAPS   H9X 1567   6.556   0.588   7.712  0.2778  2.6126  3.5721
   12SAPS   H9Y 1568   6.718   0.643   7.643  0.8812  0.1415  0.9268
   12SAPS  C310 1569   6.718   0.568   7.846  0.2427 -0.2039  0.4334
   12SAPS  H10X 1570   6.828   0.578   7.851  0.2092  0.3814  0.0795
   12SAPS  H10Y 1571   6.684   0.478   7.902  1.8031 -1.2478 -0.2350
   12SAPS  C311 1572   6.668   0.689   7.925 -0.6680  0.2243 -0.6243
   12SAPS  H11X 1573   6.557   0.688   7.934 -0.5644 -0.9745  0.9440
   12SAPS  H11Y 1574   6.711   0.782   7.881  0.0630 -0.0587 -0.5195
   12SAPS  C312 1575   6.710   0.700   8.074  0.8187  0.2120  0.0753
   12SAPS  H12X 1576   6.733   0.803   8.109 -0.5146 -0.3850  2.8989
   12SAPS  H12Y 1577   6.799   0.640   8.104  0.9108  1.4474  2.5159
   12SAPS  C313 1578   6.595   0.661   8.173 -0.3528 -0.4647  0.5103
   12SAPS  H13X 1579   6.594   0.551   8.180  4.0175 -0.6558  0.5740
   12SAPS  H13Y 1580   6.507   0.721   8.140  0.5846  0.0317 -1.2572
   12SAPS  C314 1581   6.619   0.710   8.320 -0.1059 -0.0424 -0.1877
   12SAPS  H14X 1582   6.528   0.679   8.376 -1.5021 -0.1553 -2.3698
   12SAPS  H14Y 1583   6.634   0.820   8.309 -1.5276  0.2895  0.9097
   12SAPS  C315 1584   6.740   0.647   8.395 -0.1653  0.1068 -0.7819
   12SAPS  H15X 1585   6.831   0.657   8.333  0.2935  0.1806 -0.1037
   12SAPS  H15Y 1586   6.717   0.539   8.408  0.6472 -0.1337 -1.2916
   12SAPS  C316 1587   6.774   0.691   8.543 -0.0800 -0.5406 -0.4510
   12SAPS  H16X 1588   6.675   0.718   8.586  1.0334  0.1673  1.8150
   12SAPS  H16Y 1589   6.838   0.782   8.541  0.1239 -0.6718 -0.0071
   12SAPS  C317 1590   6.840   0.580   8.633  0.1903 -0.2552  0.3270
   12SAPS  H17X 1591   6.775   0.491   8.648  0.7567 -0.9170 -0.9671
   12SAPS  H17Y 1592   6.858   0.625   8.733  1.3853 -1.8893  0.8911
   12SAPS  C318 1593   6.970   0.525   8.578 -0.2164  0.8578  0.6961
   12SAPS  H18X 1594   7.044   0.607   8.582 -0.1646  0.8157  0.6181
   12SAPS  H18Y 1595   6.961   0.478   8.477 -0.0846  1.1263  0.5571
   12SAPS  H18Z 1596   7.007   0.447   8.648 -1.3765  1.3747  1.9169
   13SAPS     N 1597   1.762   5.820   6.308 -0.1708  0.5895  0.1958
   13SAPS   HN1 1598   1.845   5.883   6.312  0.1539  0.3138 -1.5850
   13SAPS   HN2 1599   1.708   5.839   6.395  0.6120  0.0328  0.8284
   13SAPS   HN3 1600   1.782   5.718   6.312  0.6762  0.7194 -0.4906
   13SAPS   C12 1601   1.666   5.850   6.198 -0.7149 -0.1990 -0.6449
   13SAPS  H12A 1602   1.650   5.957   6.200 -1.7212 -0.2746  3.2520
   13SAPS   C13 1603   1.727   5.822   6.059 -0.0807  0.7719  0.4111
   13SAPS  O13A 1604   1.824   5.741   6.050  0.4146 -0.5571 -0.3133
   13SAPS  O13B 1605   1.662   5.853   5.956  0.1046 -0.2504 -0.2771
   13SAPS   C11 1606   1.533   5.787   6.226  0.4539 -0.5798 -0.6460
   13SAPS  H11A 1607   1.530   5.676   6.231  0.2590 -0.5412  2.4614
   13SAPS  H11B 1608   1.460   5.820   6.149 -0.8017 -0.1609  0.6756
   13SAPS     P 1609   1.338   5.864   6.385  0.0163  0.2181  0.1362
   13SAPS   O13 1610   1.283   5.953   6.280  0.1888 -0.4402 -0.7202
   13SAPS   O14 1611   1.275   5.730   6.392 -0.3304 -0.3891 -0.1493
   13SAPS   O12 1612   1.491   5.841   6.349 -0.0806 -0.3037 -0.6656
   13SAPS   O11 1613   1.322   5.950   6.517 -0.2433  0.5832  0.5530
   13SAPS    C1 1614   1.408   6.061   6.543  0.1426 -0.6244  0.1039
   13SAPS    HA 1615   1.494   6.077   6.475  0.3578  1.2497  0.7748
   13SAPS    HB 1616   1.353   6.156   6.542  0.7740 -0.2595 -0.7017
   13SAPS    C2 1617   1.473   6.051   6.683 -0.2626 -0.0285  0.4608
   13SAPS    HS 1618   1.548   5.971   6.665  0.9833  1.4152 -1.0371
   13SAPS   O21 1619   1.372   6.020   6.786  0.1076 -0.5261  0.0074
   13SAPS   C21 1620   1.398   5.910   6.859 -0.6304  0.4037 -0.6679
   13SAPS   O22 1621   1.493   5.835   6.837  0.1997  0.6853 -0.2533
   13SAPS   C22 1622   1.282   5.884   6.963  0.0827  0.1180 -0.2599
   13SAPS   H2R 1623   1.201   5.953   6.931 -1.1374 -0.2131  1.8965
   13SAPS   H2S 1624   1.252   5.777   6.959  0.8471 -0.0790 -1.4058
   13SAPS    C3 1625   1.553   6.177   6.720  0.0823  0.0826 -0.4176
   13SAPS    HX 1626   1.475   6.255   6.712  1.2486  1.4235  0.8035
   13SAPS    HY 1627   1.630   6.187   6.640  0.5188  1.5786  0.1670
   13SAPS   O31 1628   1.618   6.157   6.849  0.5969 -0.2531  0.4155
   13SAPS   C31 1629   1.726   6.220   6.864  0.7594  0.9618  0.2506
   13SAPS   O32 1630   1.764   6.321   6.798  0.9421  0.0016  0.4747
   13SAPS   C32 1631   1.803   6.149   6.976  0.2350  0.3384  0.1733
   13SAPS   H2X 1632   1.837   6.047   6.949  0.8227  0.9111 -1.3793
   13SAPS   H2Y 1633   1.734   6.152   7.063 -0.9144  0.1345 -0.7093
   13SAPS   C23 1634   1.312   5.939   7.104  0.1801 -0.2486  0.2190
   13SAPS   H3R 1635   1.422   5.927   7.117 -0.2243 -1.5737  3.3479
   13SAPS   H3S 1636   1.260   5.867   7.171 -1.7764 -0.0984 -1.0700
   13SAPS   C24 1637   1.267   6.080   7.147  0.2556 -0.2007 -0.3717
   13SAPS   H4R 1638   1.289   6.099   7.254  0.4811  3.5374 -0.9417
   13SAPS   H4S 1639   1.156   6.075   7.147  0.2676 -0.5783 -0.8789
   13SAPS   C25 1640   1.333   6.193   7.065 -0.4057  0.7566  0.4640
   13SAPS   H5R 1641   1.278   6.223   6.974  1.6101  3.0764 -0.0964
   13SAPS   C26 1642   1.434   6.276   7.101  0.0501 -0.8688 -0.1584
   13SAPS   H6R 1643   1.473   6.350   7.031  1.1112 -0.3116  0.9984
   13SAPS   C27 1644   1.518   6.275   7.223 -0.4937  0.5160 -0.2368
   13SAPS   H7R 1645   1.601   6.347   7.207  2.5489 -2.6928 -0.2224
   13SAPS   H7S 1646   1.567   6.176   7.235 -1.4985  0.0692  0.3439
   13SAPS   C28 1647   1.444   6.319   7.351 -0.4548  0.2749 -0.4337
   13SAPS   H8R 1648   1.345   6.364   7.332 -1.3101 -1.6245 -0.6867
   13SAPS   C29 1649   1.480   6.278   7.474 -0.0173  0.3309 -0.2616
   13SAPS   H9R 1650   1.441   6.330   7.563 -0.6155 -0.3037 -0.1501
   13SAPS  C210 1651   1.607   6.201   7.499 -0.3402 -0.3132 -0.4125
   13SAPS  H10R 1652   1.673   6.204   7.409 -1.2502 -0.1716 -1.0923
   13SAPS  H10S 1653   1.591   6.091   7.505  1.1793 -0.5768 -0.8247
   13SAPS  C211 1654   1.694   6.246   7.617  0.0967  0.5337 -0.4880
   13SAPS  H11R 1655   1.782   6.301   7.581  0.6666  0.9334  1.3785
   13SAPS  C212 1656   1.676   6.223   7.749  0.6821 -0.8254  0.9158
   13SAPS  H12R 1657   1.751   6.265   7.818 -0.6693  0.0280  1.9133
   13SAPS  C213 1658   1.552   6.159   7.812 -0.0131 -0.8316 -0.6875
   13SAPS  H13R 1659   1.579   6.105   7.906  1.6393  1.4479  0.2468
   13SAPS  H13S 1660   1.512   6.087   7.738  0.5193 -0.0996 -1.7121
   13SAPS  C214 1661   1.449   6.258   7.850  0.1446  0.0059  0.2789
   13SAPS  H14R 1662   1.378   6.290   7.771  0.4858 -0.5195 -0.2414
   13SAPS  C215 1663   1.445   6.319   7.968  1.0804 -0.1501  0.0796
   13SAPS  H15R 1664   1.363   6.389   7.992  0.3515 -1.7926  2.7750
   13SAPS  C216 1665   1.539   6.306   8.078 -0.5733 -0.3280  0.1571
   13SAPS  H16R 1666   1.571   6.405   8.115  2.1716 -1.6598  1.6830
   13SAPS  H16S 1667   1.634   6.260   8.042  1.7242  3.7398  0.3980
   13SAPS  C217 1668   1.488   6.228   8.197  0.3831 -0.1815 -0.3410
   13SAPS  H17R 1669   1.566   6.221   8.276  0.4538  1.8339 -0.1950
   13SAPS  H17S 1670   1.461   6.123   8.169 -0.2717 -0.3141  0.7232
   13SAPS  C218 1671   1.365   6.286   8.264 -0.1366  0.9053 -0.3409
   13SAPS  H18R 1672   1.268   6.280   8.210 -0.5784  1.1126  0.4097
   13SAPS  H18S 1673   1.395   6.389   8.295  0.5240 -0.4921  4.3700
   13SAPS  C219 1674   1.333   6.200   8.394 -0.5590  0.2891  0.3618
   13SAPS  H19R 1675   1.433   6.185   8.440 -0.4262 -0.9504 -0.2915
   13SAPS  H19S 1676   1.299   6.098   8.366 -1.8163  0.5803  0.7656
   13SAPS  C220 1677   1.232   6.251   8.501  0.6698  0.2803  0.3807
   13SAPS  H20R 1678   1.275   6.338   8.556  0.3074 -0.0820  1.2551
   13SAPS  H20S 1679   1.199   6.174   8.573  0.4075  2.0765  2.2760
   13SAPS  H20T 1680   1.136   6.282   8.455  0.7719 -0.9351 -0.7068
   13SAPS   C33 1681   1.924   6.229   7.017 -1.0668  0.3609  0.0200
   13SAPS   H3X 1682   1.898   6.336   7.033 -0.4790  0.8932 -2.2393
   13SAPS   H3Y 1683   2.001   6.219   6.937 -2.3812  0.6688 -1.3336
   13SAPS   C34 1684   1.988   6.189   7.147 -0.2686  0.5554 -0.4689
   13SAPS   H4X 1685   2.067   6.265   7.168 -0.4457  0.7679 -0.5653
   13SAPS   H4Y 1686   2.026   6.085   7.144  0.4004  0.7594  0.4531
   13SAPS   C35 1687   1.907   6.187   7.276  0.0943 -0.1214  0.0589
   13SAPS   H5X 1688   1.844   6.096   7.291  0.1727 -0.1210  0.4010
   13SAPS   H5Y 1689   1.833   6.269   7.277 -2.1012 -1.9830  1.0522
   13SAPS   C36 1690   1.991   6.186   7.402  0.6958  0.0063 -0.2914
   13SAPS   H6X 1691   1.945   6.236   7.490 -1.1332 -1.1482 -0.5570
   13SAPS   H6Y 1692   2.088   6.236   7.377  0.8124  0.1042  0.3238
   13SAPS   C37 1693   2.031   6.046   7.454 -0.2363  0.1820 -0.3813
   13SAPS   H7X 1694   2.027   5.979   7.366 -0.4262  0.8061 -0.8637
   13SAPS   H7Y 1695   1.964   6.004   7.532 -2.0548 -0.1568 -2.0367
   13SAPS   C38 1696   2.178   6.052   7.511  0.6626 -0.1976  0.4683
   13SAPS   H8X 1697   2.247   6.080   7.428  0.2298 -2.3155 -0.6901
   13SAPS   H8Y 1698   2.210   5.949   7.537 -0.9201 -0.2819  2.3193
   13SAPS   C39 1699   2.210   6.159   7.618  0.5947  0.1752 -0.2551
   13SAPS   H9X 1700   2.206   6.254   7.560  2.5367 -0.1834 -1.0454
   13SAPS   H9Y 1701   2.307   6.151   7.671  0.3490  3.6696  1.0012
   13SAPS  C310 1702   2.103   6.165   7.728  0.3599 -0.1148  0.2932
   13SAPS  H10X 1703   2.109   6.063   7.771  1.7459 -1.9347 -3.7156
   13SAPS  H10Y 1704   2.003   6.180   7.682  0.0717  0.8224  1.1914
   13SAPS  C311 1705   2.135   6.254   7.847 -0.0971  0.2249 -0.2147
   13SAPS  H11X 1706   2.151   6.358   7.811  0.0016  0.2852 -0.0018
   13SAPS  H11Y 1707   2.232   6.233   7.897 -0.2675  0.7866  0.3700
   13SAPS  C312 1708   2.023   6.256   7.954 -0.5449 -0.3199  0.3284
   13SAPS  H12X 1709   1.926   6.281   7.906 -0.1257 -0.5690 -0.6897
   13SAPS  H12Y 1710   2.044   6.346   8.016 -1.0509 -0.2863  0.4564
   13SAPS  C313 1711   2.020   6.127   8.039 -0.2373 -0.1779 -0.3065
   13SAPS  H13X 1712   2.126   6.110   8.066  0.1161  3.0411  0.7197
   13SAPS  H13Y 1713   1.978   6.044   7.978  0.8266  1.2841 -3.2303
   13SAPS  C314 1714   1.928   6.146   8.166  0.2104  0.1633  0.4737
   13SAPS  H14X 1715   1.822   6.132   8.138  0.8660 -4.5203 -0.4618
   13SAPS  H14Y 1716   1.937   6.252   8.198 -1.4799  0.1904  0.9341
   13SAPS  C315 1717   1.947   6.050   8.285 -0.3804 -0.3147 -0.2054
   13SAPS  H15X 1718   1.891   5.957   8.262  0.9497 -1.0976 -0.3760
   13SAPS  H15Y 1719   1.894   6.099   8.369 -0.1080  1.0288 -0.7862
   13SAPS  C316 1720   2.093   6.017   8.328  0.9835  0.2536  0.1177
   13SAPS  H16X 1721   2.150   6.112   8.316 -2.7360  2.6939  0.1187
   13SAPS  H16Y 1722   2.132   5.944   8.253  0.1220 -0.1334  0.0429
   13SAPS  C317 1723   2.094   5.982   8.476 -0.1428  0.2398  0.0411
   13SAPS  H17X 1724   2.044   5.884   8.491  1.2736 -0.4662  0.3522
   13SAPS  H17Y 1725   2.043   6.058   8.538  2.1993  1.3816  0.6852
   13SAPS  C318 1726   2.238   5.975   8.523 -0.0805  0.0159 -0.3277
   13SAPS  H18X 1727   2.285   6.075   8.515  0.4257 -0.2756 -1.0778
   13SAPS  H18Y 1728   2.293   5.897   8.467  1.0279  1.4364 -1.2943
   13SAPS  H18Z 1729   2.233   5.947   8.631  1.0566  2.7490  0.5299
   14SAPS     N 1730   5.799   2.103   5.870  0.1914  0.4765  0.2152
   14SAPS   HN1 1731   5.783   2.030   5.799  0.7994  1.8041 -1.3400
   14SAPS   HN2 1732   5.764   2.191   5.827  1.6114  1.4331  0.9452
   14SAPS   HN3 1733   5.901   2.121   5.862  0.4008 -1.2420 -1.5967
   14SAPS   C12 1734   5.752   2.068   6.009  0.7085  0.4875  0.1479
   14SAPS  H12A 1735   5.773   2.151   6.075  1.1741 -0.0665  0.7126
   14SAPS   C13 1736   5.603   2.036   6.009  0.1765  0.2321  0.0568
   14SAPS  O13A 1737   5.543   2.013   5.899  0.0519  0.4217  0.2269
   14SAPS  O13B 1738   5.553   1.998   6.119 -0.2926 -0.1015  0.5323
   14SAPS   C11 1739   5.833   1.938   6.052 -0.1843 -0.6404 -0.0893
   14SAPS  H11A 1740   5.796   1.854   5.989 -0.1909 -1.1465  0.5822
   14SAPS  H11B 1741   5.810   1.913   6.157  0.5733  0.4540  0.3569
   14SAPS     P 1742   6.079   1.855   6.090  0.0118 -0.2828 -0.1350
   14SAPS   O13 1743   6.080   1.724   6.019  0.2131 -0.0474 -0.4293
   14SAPS   O14 1744   6.206   1.928   6.097  0.0425  0.2279 -0.0059
   14SAPS   O12 1745   5.972   1.956   6.030  0.1005 -0.4302 -0.0197
   14SAPS   O11 1746   6.019   1.828   6.234  0.6246 -1.5965 -0.4531
   14SAPS    C1 1747   6.023   1.923   6.340  0.1934 -0.0511 -0.2181
   14SAPS    HA 1748   5.998   2.024   6.304  0.3194  0.0737  0.0410
   14SAPS    HB 1749   5.936   1.892   6.402  0.2416 -2.4246 -1.2185
   14SAPS    C2 1750   6.158   1.915   6.416 -0.0338 -0.5830 -0.1629
   14SAPS    HS 1751   6.238   1.937   6.342 -2.7486  1.9043 -2.6313
   14SAPS   O21 1752   6.167   1.788   6.489 -0.1650  0.3633 -0.0324
   14SAPS   C21 1753   6.289   1.729   6.496  0.8568  0.2323  0.0593
   14SAPS   O22 1754   6.394   1.782   6.490  0.0801  0.3849  0.0450
   14SAPS   C22 1755   6.252   1.585   6.528 -0.3785  0.6136  0.4397
   14SAPS   H2R 1756   6.162   1.595   6.592 -0.5476  0.4949  0.2251
   14SAPS   H2S 1757   6.211   1.533   6.438  1.9243  1.1473 -1.0190
   14SAPS    C3 1758   6.189   2.035   6.510  0.5321  0.7101  0.6122
   14SAPS    HX 1759   6.174   2.124   6.445 -1.2053  0.0673  0.0640
   14SAPS    HY 1760   6.294   2.034   6.547  0.8792  0.0026 -0.3521
   14SAPS   O31 1761   6.097   2.037   6.622  0.1586  0.0074  0.3655
   14SAPS   C31 1762   6.116   2.138   6.707 -0.6546 -0.1409  0.5572
   14SAPS   O32 1763   6.195   2.229   6.696 -0.1669  0.4824  0.0253
   14SAPS   C32 1764   6.011   2.124   6.822 -0.5020 -0.6877  0.5934
   14SAPS   H2X 1765   5.971   2.020   6.827 -2.7538  0.1952  4.2176
   14SAPS   H2Y 1766   5.921   2.184   6.796 -0.2008  0.0447  1.2035
   14SAPS   C23 1767   6.361   1.487   6.589  0.7822  0.1928  0.7698
   14SAPS   H3R 1768   6.417   1.533   6.673 -0.5721  1.4807  0.9982
   14SAPS   H3S 1769   6.439   1.464   6.513 -0.6429 -1.2414 -0.3245
   14SAPS   C24 1770   6.297   1.366   6.651 -1.0578  0.5212 -0.0467
   14SAPS   H4R 1771   6.228   1.394   6.734 -1.4994  1.2671 -0.6488
   14SAPS   H4S 1772   6.377   1.313   6.707  0.1391  2.1637 -0.1373
   14SAPS   C25 1773   6.249   1.262   6.556 -0.4858 -0.6046  0.3763
   14SAPS   H5R 1774   6.317   1.248   6.471 -1.1653  2.5495 -0.8127
   14SAPS   C26 1775   6.143   1.178   6.578  0.1040  0.0571  0.2408
   14SAPS   H6R 1776   6.121   1.101   6.502  1.2816 -1.1656  1.1074
   14SAPS   C27 1777   6.062   1.168   6.705  0.4046  0.9966  0.5642
   14SAPS   H7R 1778   5.952   1.172   6.688  0.0664 -0.5352  2.1033
   14SAPS   H7S 1779   6.069   1.252   6.778  0.5697  0.2202  1.4677
   14SAPS   C28 1780   6.098   1.029   6.762 -0.2608 -0.1241  0.3681
   14SAPS   H8R 1781   6.042   0.946   6.715  0.4555  0.7391 -2.2093
   14SAPS   C29 1782   6.175   1.009   6.872  0.1738 -0.0068  0.3878
   14SAPS   H9R 1783   6.184   0.904   6.902 -0.6407 -0.8955 -2.1536
   14SAPS  C210 1784   6.250   1.114   6.948  0.0372  0.8357  0.2653
   14SAPS  H10R 1785   6.251   1.207   6.889  0.2425 -0.3602 -1.6947
   14SAPS  H10S 1786   6.355   1.079   6.956 -0.2279 -0.0920 -0.1750
   14SAPS  C211 1787   6.178   1.127   7.079  0.1629  0.6292 -0.5382
   14SAPS  H11R 1788   6.076   1.167   7.074 -0.4301 -0.6921  0.4360
   14SAPS  C212 1789   6.217   1.068   7.195 -0.1328 -0.8157 -0.5271
   14SAPS  H12R 1790   6.159   1.091   7.286 -1.9240  1.5738 -2.1643
   14SAPS  C213 1791   6.354   0.997   7.227 -0.1609 -0.1954  0.7188
   14SAPS  H13R 1792   6.412   1.047   7.308  0.0187 -0.2111  0.6004
   14SAPS  H13S 1793   6.428   0.999   7.143  0.9231  0.3215  1.6620
   14SAPS  C214 1794   6.321   0.850   7.261  0.4945 -0.3905 -0.0789
   14SAPS  H14R 1795   6.279   0.793   7.177 -1.9052 -0.2232  0.9244
   14SAPS  C215 1796   6.347   0.783   7.374  1.0888  0.1130 -0.2021
   14SAPS  H15R 1797   6.329   0.675   7.375 -1.4095  0.4565 -1.4868
   14SAPS  C216 1798   6.415   0.835   7.497 -0.0446  0.3838  0.1856
   14SAPS  H16R 1799   6.495   0.911   7.477  0.4017 -0.0183  0.4240
   14SAPS  H16S 1800   6.475   0.751   7.538  1.5035  1.4028  0.1184
   14SAPS  C217 1801   6.314   0.886   7.600  0.3809  0.3515 -0.1332
   14SAPS  H17R 1802   6.254   0.801   7.638 -0.9182  1.1826 -0.2698
   14SAPS  H17S 1803   6.238   0.953   7.554 -0.6224 -0.3187  0.4914
   14SAPS  C218 1804   6.384   0.943   7.718 -0.5302 -0.7174 -0.4002
   14SAPS  H18R 1805   6.465   1.010   7.681  0.8661 -1.3611  1.3433
   14SAPS  H18S 1806   6.442   0.868   7.776  2.7696  0.0764 -2.3755
   14SAPS  C219 1807   6.294   1.016   7.820  0.1731  0.5597 -0.3477
   14SAPS  H19R 1808   6.214   0.941   7.834  0.0245  0.9621  1.1326
   14SAPS  H19S 1809   6.251   1.109   7.777 -0.3101 -1.0209 -3.6227
   14SAPS  C220 1810   6.366   1.052   7.954  0.0406 -0.2885 -0.1750
   14SAPS  H20R 1811   6.401   0.955   7.995 -1.7389 -0.6901  0.5042
   14SAPS  H20S 1812   6.303   1.103   8.030 -1.3446 -2.7614  0.4726
   14SAPS  H20T 1813   6.457   1.107   7.924  0.9192 -1.9785 -0.7535
   14SAPS   C33 1814   6.053   2.167   6.968 -0.1153 -0.4121  0.6399
   14SAPS   H3X 1815   5.964   2.219   7.009  0.4917  0.2014  1.2211
   14SAPS   H3Y 1816   6.132   2.245   6.963  0.1550 -0.7097  0.2359
   14SAPS   C34 1817   6.084   2.057   7.057  0.0175  0.4469  0.9919
   14SAPS   H4X 1818   6.159   1.999   7.000 -1.0098 -1.3178  1.3403
   14SAPS   H4Y 1819   5.992   1.998   7.083 -0.3367  1.0206  1.0522
   14SAPS   C35 1820   6.147   2.098   7.188  0.4711 -0.1989  0.0951
   14SAPS   H5X 1821   6.079   2.150   7.258  1.6042  0.1237  0.9849
   14SAPS   H5Y 1822   6.227   2.165   7.153 -0.5210  0.2655 -1.3594
   14SAPS   C36 1823   6.210   1.977   7.267  0.2098  0.9688  0.1177
   14SAPS   H6X 1824   6.277   1.918   7.201 -1.3141  1.3253 -1.8819
   14SAPS   H6Y 1825   6.125   1.909   7.288  1.0266 -0.5343 -1.2426
   14SAPS   C37 1826   6.287   2.018   7.393  0.5232  0.1399  0.0080
   14SAPS   H7X 1827   6.222   2.083   7.456  0.6230  0.4313 -0.1898
   14SAPS   H7Y 1828   6.368   2.085   7.358  0.1226  0.2825 -0.6789
   14SAPS   C38 1829   6.344   1.892   7.472 -0.2852 -0.7451  1.1743
   14SAPS   H8X 1830   6.400   1.836   7.394  0.2158  0.0063  0.9790
   14SAPS   H8Y 1831   6.257   1.830   7.500  0.7263 -3.4587 -1.2056
   14SAPS   C39 1832   6.426   1.917   7.596 -0.6358 -0.5197  0.4574
   14SAPS   H9X 1833   6.373   1.980   7.670 -1.0579 -0.7534  0.3609
   14SAPS   H9Y 1834   6.524   1.965   7.577 -0.3962  0.2139  3.1382
   14SAPS  C310 1835   6.478   1.791   7.662 -0.3786 -0.5321 -1.1785
   14SAPS  H10X 1836   6.539   1.733   7.589  2.1235  0.8380 -0.3188
   14SAPS  H10Y 1837   6.398   1.724   7.700  0.1723 -1.2054 -1.1913
   14SAPS  C311 1838   6.573   1.839   7.779 -0.4633  0.0474  0.3066
   14SAPS  H11X 1839   6.531   1.932   7.823  0.1300  0.6786 -0.4450
   14SAPS  H11Y 1840   6.669   1.859   7.729 -0.6156  2.3304  0.8229
   14SAPS  C312 1841   6.586   1.742   7.896 -0.4542 -0.4379  0.1787
   14SAPS  H12X 1842   6.619   1.644   7.856 -0.9935 -0.9758  1.0104
   14SAPS  H12Y 1843   6.489   1.738   7.950 -0.8352  2.1442 -0.2093
   14SAPS  C313 1844   6.681   1.804   7.996 -0.3640  0.7043  0.0139
   14SAPS  H13X 1845   6.640   1.904   8.024 -0.3508  0.3975  1.1778
   14SAPS  H13Y 1846   6.784   1.822   7.959  0.3260 -0.6039  1.2235
   14SAPS  C314 1847   6.681   1.736   8.139  0.7051 -0.7726 -0.3865
   14SAPS  H14X 1848   6.734   1.638   8.141  2.6938  0.2386  1.6767
   14SAPS  H14Y 1849   6.578   1.717   8.174  0.0525  2.1065 -0.5006
   14SAPS  C315 1850   6.727   1.830   8.245 -0.2988 -0.4109  0.8260
   14SAPS  H15X 1851   6.648   1.902   8.274  0.2613  0.1791  0.9277
   14SAPS  H15Y 1852   6.806   1.885   8.190 -0.2483 -1.9620 -0.7543
   14SAPS  C316 1853   6.778   1.765   8.374  0.2491  1.2328  0.3683
   14SAPS  H16X 1854   6.859   1.695   8.346 -0.6102 -0.2779  1.4824
   14SAPS  H16Y 1855   6.701   1.701   8.423  1.1134  0.6206  0.9395
   14SAPS  C317 1856   6.819   1.859   8.485  0.1369  0.1574  0.3611
   14SAPS  H17X 1857   6.833   1.798   8.577  0.4082 -0.7815 -0.2945
   14SAPS  H17Y 1858   6.738   1.934   8.503 -0.7603 -0.2333 -1.7248
   14SAPS  C318 1859   6.952   1.933   8.472 -0.5794  0.1428  0.3878
   14SAPS  H18X 1860   7.032   1.859   8.491 -1.1622 -1.0232 -1.4863
   14SAPS  H18Y 1861   6.969   2.005   8.555 -0.4334  0.2346  0.2778
   14SAPS  H18Z 1862   6.980   1.980   8.376  1.7829  0.7566  1.3062
   15SAPS     N 1863   0.131   0.618   6.054  0.2319 -0.6934 -0.6721
   15SAPS   HN1 1864   0.094   0.625   6.151 -1.3255 -2.7759 -1.0462
   15SAPS   HN2 1865   0.135   0.516   6.035 -0.1371 -0.6505 -0.9872
   15SAPS   HN3 1866   0.227   0.653   6.069  0.0794 -1.1493  1.7141
   15SAPS   C12 1867   0.049   0.688   5.963 -0.8184 -0.5212 -0.0023
   15SAPS  H12A 1868   0.091   0.679   5.864  1.5002  1.4953  0.6988
   15SAPS   C13 1869  -0.103   0.643   5.958 -0.2515  0.8351 -0.1342
   15SAPS  O13A 1870  -0.142   0.541   6.020  0.8749  0.5316  0.2730
   15SAPS  O13B 1871  -0.177   0.690   5.869  0.8511 -0.4167 -0.0778
   15SAPS   C11 1872   0.050   0.836   6.020 -0.4739 -0.9805  0.4990
   15SAPS  H11A 1873   0.015   0.843   6.125 -1.9935  1.7460 -0.0876
   15SAPS  H11B 1874  -0.016   0.895   5.953 -3.7197 -4.2134  0.5855
   15SAPS     P 1875   0.240   1.019   5.973 -0.0192  0.1877  0.3580
   15SAPS   O13 1876   0.384   1.013   5.948  0.1044 -0.4220  0.0331
   15SAPS   O14 1877   0.161   1.064   5.859  0.8262 -0.4049 -0.1256
   15SAPS   O12 1878   0.194   0.875   6.023  0.0936  0.6852 -0.0431
   15SAPS   O11 1879   0.206   1.103   6.102 -0.6440  0.1285 -0.0828
   15SAPS    C1 1880   0.269   1.064   6.225  0.4314  0.3576 -1.0709
   15SAPS    HA 1881   0.263   0.956   6.247  0.2704  0.9056  2.0326
   15SAPS    HB 1882   0.379   1.083   6.231  0.0946  2.2238  0.0141
   15SAPS    C2 1883   0.209   1.141   6.345  0.5253 -0.1802  0.0343
   15SAPS    HS 1884   0.265   1.099   6.431  1.5977  2.3960  0.6976
   15SAPS   O21 1885   0.072   1.109   6.351  0.3909  0.1249 -0.0328
   15SAPS   C21 1886   0.035   0.985   6.384 -0.0469 -0.3233  0.7858
   15SAPS   O22 1887   0.104   0.886   6.407  0.2766  0.1374 -0.1965
   15SAPS   C22 1888  -0.115   0.986   6.402 -0.3542 -0.5296 -0.1170
   15SAPS   H2R 1889  -0.162   1.049   6.323 -1.0549  0.7318  1.2615
   15SAPS   H2S 1890  -0.155   0.883   6.389 -3.4035  0.5216  0.1277
   15SAPS    C3 1891   0.240   1.289   6.340  0.4947  0.3591 -0.2064
   15SAPS    HX 1892   0.179   1.330   6.257  2.0044 -0.8645 -1.9805
   15SAPS    HY 1893   0.344   1.296   6.302  0.1586  0.4052 -1.1414
   15SAPS   O31 1894   0.215   1.350   6.468  0.6009 -0.1840  0.0087
   15SAPS   C31 1895   0.092   1.389   6.482 -0.7985  0.8388  0.5037
   15SAPS   O32 1896   0.004   1.376   6.395  0.1608 -0.4460  0.8859
   15SAPS   C32 1897   0.071   1.463   6.619  0.8678 -0.9386  0.1861
   15SAPS   H2X 1898   0.052   1.570   6.599 -0.2674 -1.5228 -2.2512
   15SAPS   H2Y 1899   0.166   1.454   6.675  1.1226 -0.7383 -0.2090
   15SAPS   C23 1900  -0.163   1.043   6.533  1.0118  0.3171  0.4369
   15SAPS   H3R 1901  -0.270   1.072   6.526  1.0499  0.5740  0.8637
   15SAPS   H3S 1902  -0.106   1.136   6.553  0.2047  1.0296 -0.4485
   15SAPS   C24 1903  -0.144   0.949   6.648 -0.0313  0.9822  0.0386
   15SAPS   H4R 1904  -0.035   0.926   6.639  0.0286  1.7134 -1.4033
   15SAPS   H4S 1905  -0.194   0.850   6.644  2.4231 -0.3394 -0.4276
   15SAPS   C25 1906  -0.179   1.002   6.782 -0.2692 -0.4576 -0.1418
   15SAPS   H5R 1907  -0.285   1.013   6.807 -0.6320  0.3351 -1.9011
   15SAPS   C26 1908  -0.092   1.043   6.878  0.1338  1.0109  0.0783
   15SAPS   H6R 1909  -0.123   1.073   6.979 -2.0810  2.1337 -0.8675
   15SAPS   C27 1910   0.059   1.039   6.862 -0.4892 -0.9514  0.1754
   15SAPS   H7R 1911   0.096   1.078   6.765 -1.0565 -1.5799 -0.3062
   15SAPS   H7S 1912   0.095   0.934   6.867 -0.2583 -0.8704  0.2357
   15SAPS   C28 1913   0.124   1.122   6.969 -1.0682 -0.2914 -0.1413
   15SAPS   H8R 1914   0.129   1.229   6.947  1.5679 -0.4221 -0.6004
   15SAPS   C29 1915   0.172   1.077   7.092  0.9918  0.0629  0.1931
   15SAPS   H9R 1916   0.225   1.151   7.154 -0.8262  0.3037  1.5215
   15SAPS  C210 1917   0.160   0.938   7.143 -0.4971  0.4498 -0.2073
   15SAPS  H10R 1918   0.261   0.894   7.152 -1.1198 -1.2202 -0.9017
   15SAPS  H10S 1919   0.103   0.872   7.073  0.4433 -0.0709 -0.4973
   15SAPS  C211 1920   0.082   0.939   7.272  0.1515  0.3544 -0.0606
   15SAPS  H11R 1921  -0.027   0.950   7.261 -0.1246 -2.2563 -0.6939
   15SAPS  C212 1922   0.135   0.924   7.399  0.1717 -0.2861 -0.4949
   15SAPS  H12R 1923   0.073   0.930   7.490  1.1867  2.8925  0.1076
   15SAPS  C213 1924   0.273   0.906   7.436 -0.0147  0.3871 -0.0267
   15SAPS  H13R 1925   0.316   1.001   7.473 -1.9572  2.0144 -1.6740
   15SAPS  H13S 1926   0.340   0.877   7.351  0.5435 -0.2247  0.6110
   15SAPS  C214 1927   0.280   0.783   7.524 -0.7227 -0.0191 -0.2315
   15SAPS  H14R 1928   0.265   0.691   7.465 -0.8528  0.6794 -1.3077
   15SAPS  C215 1929   0.311   0.775   7.656  0.6591 -0.2661  0.1013
   15SAPS  H15R 1930   0.328   0.674   7.697  1.9283 -0.2737 -0.4145
   15SAPS  C216 1931   0.332   0.893   7.752 -0.6923  0.0617  0.3255
   15SAPS  H16R 1932   0.282   0.983   7.710 -3.1085 -2.0402 -1.6636
   15SAPS  H16S 1933   0.442   0.903   7.758 -0.3522 -3.2649  1.9900
   15SAPS  C217 1934   0.277   0.875   7.894  0.7478  0.2531  0.0441
   15SAPS  H17R 1935   0.318   0.776   7.924 -0.6243 -0.6800 -1.0117
   15SAPS  H17S 1936   0.166   0.869   7.897  0.8482 -2.7537  2.1399
   15SAPS  C218 1937   0.330   0.969   7.996 -0.7352 -0.3498 -0.6446
   15SAPS  H18R 1938   0.291   1.068   7.965  0.5247 -0.1183 -1.6245
   15SAPS  H18S 1939   0.437   0.985   7.970 -1.0178 -0.8465 -2.2687
   15SAPS  C219 1940   0.310   0.929   8.147 -0.2399  0.3436 -0.3217
   15SAPS  H19R 1941   0.355   0.829   8.168  0.3582  1.1155  2.4780
   15SAPS  H19S 1942   0.200   0.915   8.153 -0.2182 -0.8057 -1.9042
   15SAPS  C220 1943   0.359   1.031   8.250  0.2379 -0.6691  0.5709
   15SAPS  H20R 1944   0.469   1.032   8.266  0.0862  0.0897  1.6384
   15SAPS  H20S 1945   0.322   0.997   8.349  1.2378  0.2181  1.2708
   15SAPS  H20T 1946   0.318   1.130   8.221  1.9764  0.0782  0.5446
   15SAPS   C33 1947  -0.048   1.402   6.690  0.7247  0.5455 -0.4637
   15SAPS   H3X 1948  -0.024   1.295   6.706  2.4805  1.0990  0.9497
   15SAPS   H3Y 1949  -0.141   1.418   6.632 -0.9424 -1.4678  1.4454
   15SAPS   C34 1950  -0.062   1.450   6.830 -0.3229  0.0709 -0.6562
   15SAPS   H4X 1951  -0.116   1.547   6.817 -2.3428 -0.6618  1.6703
   15SAPS   H4Y 1952   0.039   1.467   6.873  0.0485 -1.1590 -1.0060
   15SAPS   C35 1953  -0.143   1.363   6.927 -0.1098 -0.3488 -0.1978
   15SAPS   H5X 1954  -0.089   1.266   6.933  0.1423 -0.2414 -0.7073
   15SAPS   H5Y 1955  -0.250   1.348   6.901 -0.2611 -2.6026  1.4651
   15SAPS   C36 1956  -0.160   1.425   7.066 -0.4311 -0.5021  0.2489
   15SAPS   H6X 1957  -0.227   1.514   7.060 -0.2356 -0.3762 -0.0831
   15SAPS   H6Y 1958  -0.057   1.452   7.099 -1.0680  0.5708  1.4685
   15SAPS   C37 1959  -0.214   1.330   7.173 -0.0350 -0.0295  0.1872
   15SAPS   H7X 1960  -0.161   1.232   7.173 -3.0528 -1.7910  0.1805
   15SAPS   H7Y 1961  -0.316   1.304   7.137  0.8452 -2.7852 -0.5780
   15SAPS   C38 1962  -0.220   1.388   7.310  0.1185  0.6130  0.2164
   15SAPS   H8X 1963  -0.280   1.482   7.316 -0.4322  0.2237  1.1567
   15SAPS   H8Y 1964  -0.113   1.399   7.336  0.4545 -0.8133 -0.4836
   15SAPS   C39 1965  -0.280   1.275   7.403 -0.2189 -0.5235  0.2140
   15SAPS   H9X 1966  -0.212   1.187   7.400  0.9770  0.3668  0.4080
   15SAPS   H9Y 1967  -0.379   1.247   7.363  0.0252  2.0545 -2.5140
   15SAPS  C310 1968  -0.293   1.307   7.555  1.0476 -0.3836  0.1207
   15SAPS  H10X 1969  -0.345   1.219   7.598  2.1339 -1.5077 -0.8078
   15SAPS  H10Y 1970  -0.372   1.384   7.570 -1.5730 -2.9492  0.5064
   15SAPS  C311 1971  -0.167   1.344   7.630 -0.2012 -0.7386  0.5904
   15SAPS  H11X 1972  -0.150   1.453   7.618  2.5348 -1.0833  0.6232
   15SAPS  H11Y 1973  -0.080   1.302   7.575  0.9211 -0.6512  2.2248
   15SAPS  C312 1974  -0.180   1.279   7.764 -0.3032  0.0836  0.5163
   15SAPS  H12X 1975  -0.177   1.169   7.752  1.3361  0.4121 -3.2117
   15SAPS  H12Y 1976  -0.284   1.305   7.793 -0.7688  0.3304 -1.2518
   15SAPS  C313 1977  -0.073   1.320   7.874 -0.1498 -0.0886  0.4879
   15SAPS  H13X 1978  -0.088   1.427   7.902 -0.1373  0.2596 -0.7942
   15SAPS  H13Y 1979   0.030   1.295   7.841  0.0468  0.9033  0.3145
   15SAPS  C314 1980  -0.111   1.244   8.005 -0.0653 -0.8308 -0.8075
   15SAPS  H14X 1981  -0.113   1.138   7.973  1.5629 -1.1410  0.0194
   15SAPS  H14Y 1982  -0.215   1.273   8.031  0.6844  0.7451  0.6286
   15SAPS  C315 1983  -0.025   1.255   8.135 -0.0953 -0.0427 -0.4031
   15SAPS  H15X 1984  -0.010   1.360   8.168  3.5882 -0.8291  0.8886
   15SAPS  H15Y 1985   0.075   1.222   8.100 -0.2298  0.9650 -1.7905
   15SAPS  C316 1986  -0.073   1.161   8.252 -0.1553 -0.1763  0.1209
   15SAPS  H16X 1987  -0.058   1.058   8.214  2.1364  0.5734 -1.1831
   15SAPS  H16Y 1988  -0.181   1.181   8.271  0.1830  2.5105 -0.4077
   15SAPS  C317 1989  -0.006   1.188   8.384  0.5336 -0.1431  0.3612
   15SAPS  H17X 1990  -0.025   1.295   8.404 -0.7933  0.2346 -2.4486
   15SAPS  H17Y 1991   0.104   1.180   8.378  0.6753 -0.1051  2.1927
   15SAPS  C318 1992  -0.052   1.099   8.488  0.1970  0.3478 -0.4975
   15SAPS  H18X 1993  -0.159   1.119   8.512  0.0222 -0.3964 -0.6112
   15SAPS  H18Y 1994   0.011   1.108   8.580 -0.1320  1.6776 -0.3874
   15SAPS  H18Z 1995  -0.049   0.992   8.460 -0.0359 -0.8844  3.4711
   16SAPS     N 1996   1.849   3.160   6.196 -0.1200  1.0389  0.2564
   16SAPS   HN1 1997   1.807   3.180   6.289  0.3015  1.9623  0.2516
   16SAPS   HN2 1998   1.940   3.208   6.191  1.4615 -1.7564  0.2090
   16SAPS   HN3 1999   1.788   3.209   6.128  0.3496  1.5060  0.1755
   16SAPS   C12 2000   1.861   3.009   6.169 -0.2290  0.0446  0.0665
   16SAPS  H12A 2001   1.761   2.968   6.162  0.1233 -1.2950  2.1947
   16SAPS   C13 2002   1.930   2.985   6.030  0.6926  0.5757 -0.6056
   16SAPS  O13A 2003   1.958   3.086   5.962 -0.5328 -0.2951 -0.7537
   16SAPS  O13B 2004   1.934   2.870   5.984 -0.0331 -0.1855 -0.2261
   16SAPS   C11 2005   1.945   2.949   6.287  0.8461  0.1872  0.1311
   16SAPS  H11A 2006   2.038   3.010   6.286  1.6725 -1.0461 -0.0820
   16SAPS  H11B 2007   1.964   2.841   6.271  0.4700  0.4148 -2.2696
   16SAPS     P 2008   1.819   2.871   6.506 -0.2201 -0.0047  0.1257
   16SAPS   O13 2009   1.911   2.754   6.507  0.1194  0.2151  0.2110
   16SAPS   O14 2010   1.793   2.928   6.640  1.1269 -0.0068  0.5370
   16SAPS   O12 2011   1.886   2.979   6.419  0.7619  0.1863 -0.2398
   16SAPS   O11 2012   1.687   2.838   6.419 -0.7882 -0.1533  0.6022
   16SAPS    C1 2013   1.598   2.740   6.468 -0.1749  0.9855  0.3247
   16SAPS    HA 2014   1.526   2.705   6.391 -0.5602 -0.6218  1.3714
   16SAPS    HB 2015   1.652   2.650   6.505  0.9283  2.2517  1.9734
   16SAPS    C2 2016   1.506   2.782   6.589 -0.2140 -0.2096  0.6418
   16SAPS    HS 2017   1.513   2.892   6.601 -1.9829  0.0924 -0.7347
   16SAPS   O21 2018   1.554   2.720   6.710  0.2946 -1.1071  0.0597
   16SAPS   C21 2019   1.568   2.807   6.817  0.0901 -0.2457  0.2073
   16SAPS   O22 2020   1.526   2.920   6.830  0.0117  0.0824 -0.2283
   16SAPS   C22 2021   1.639   2.721   6.928  0.3065  0.7967  0.3070
   16SAPS   H2R 2022   1.641   2.619   6.884 -2.4574  0.7087  0.2506
   16SAPS   H2S 2023   1.746   2.746   6.947  0.6016 -1.6718  2.4785
   16SAPS    C3 2024   1.359   2.744   6.571 -0.2451  0.0374  0.7088
   16SAPS    HX 2025   1.355   2.638   6.537 -0.4173  1.1966 -3.4082
   16SAPS    HY 2026   1.322   2.808   6.488  1.2992  1.9953  1.4642
   16SAPS   O31 2027   1.275   2.763   6.687  0.0706  0.1402 -0.2448
   16SAPS   C31 2028   1.241   2.883   6.717 -0.0848 -0.8032 -0.3703
   16SAPS   O32 2029   1.240   2.981   6.640  0.0556 -0.7041 -0.8032
   16SAPS   C32 2030   1.204   2.875   6.867 -0.0294 -0.7109 -0.0809
   16SAPS   H2X 2031   1.288   2.830   6.924  1.5452 -1.1248 -2.5817
   16SAPS   H2Y 2032   1.113   2.813   6.874 -0.9917  0.6992  0.4727
   16SAPS   C23 2033   1.549   2.721   7.060 -0.3817  0.6686  0.9027
   16SAPS   H3R 2034   1.443   2.698   7.039 -0.5012  0.1642  2.0252
   16SAPS   H3S 2035   1.547   2.827   7.092  1.5292  0.5909  1.4435
   16SAPS   C24 2036   1.588   2.626   7.168 -0.1720  0.2729 -0.5387
   16SAPS   H4R 2037   1.699   2.631   7.180 -0.1336 -1.7172  0.2821
   16SAPS   H4S 2038   1.562   2.521   7.143  0.4998 -0.4934  1.7290
   16SAPS   C25 2039   1.523   2.666   7.296  0.1554 -0.2250 -0.2457
   16SAPS   H5R 2040   1.547   2.767   7.333  3.0875 -0.3090 -1.6894
   16SAPS   C26 2041   1.454   2.593   7.382  0.7941 -0.6274  0.4254
   16SAPS   H6R 2042   1.411   2.647   7.468  0.9733  0.4930 -0.1753
   16SAPS   C27 2043   1.429   2.442   7.367  0.3789 -0.6319 -0.2913
   16SAPS   H7R 2044   1.457   2.403   7.267 -1.5624  0.5101 -1.3555
   16SAPS   H7S 2045   1.320   2.432   7.389  0.5592  1.9400  2.2504
   16SAPS   C28 2046   1.489   2.350   7.468 -0.7207  0.3698  0.0039
   16SAPS   H8R 2047   1.576   2.294   7.432 -0.5570  0.4870  0.2152
   16SAPS   C29 2048   1.452   2.325   7.595 -0.0360  0.6230 -0.0761
   16SAPS   H9R 2049   1.519   2.274   7.666  0.3687  1.8636  0.4434
   16SAPS  C210 2050   1.332   2.389   7.665 -0.8077 -0.8216  0.3285
   16SAPS  H10R 2051   1.257   2.313   7.696  0.1026 -2.1461 -0.6202
   16SAPS  H10S 2052   1.268   2.443   7.591 -0.7627 -0.8083  0.2992
   16SAPS  C211 2053   1.378   2.481   7.778 -0.6676 -0.5286  0.2424
   16SAPS  H11R 2054   1.474   2.531   7.759 -1.5380  0.2512 -2.6976
   16SAPS  C212 2055   1.318   2.512   7.893  0.2241 -0.2874  0.0851
   16SAPS  H12R 2056   1.366   2.564   7.977  0.5754 -1.7505  0.8133
   16SAPS  C213 2057   1.191   2.456   7.943  0.4584  0.2752 -0.2597
   16SAPS  H13R 2058   1.116   2.430   7.865 -1.3675  0.2430  1.4603
   16SAPS  H13S 2059   1.142   2.543   7.991 -0.3705 -0.3872  0.1117
   16SAPS  C214 2060   1.219   2.334   8.028 -0.0384 -0.1335 -0.0707
   16SAPS  H14R 2061   1.252   2.250   7.965 -0.8624 -0.8376  0.4159
   16SAPS  C215 2062   1.214   2.313   8.161  0.0220  0.3108 -0.2560
   16SAPS  H15R 2063   1.226   2.211   8.200  3.0369  1.2700  1.6048
   16SAPS  C216 2064   1.152   2.411   8.258 -0.4063 -0.2115  0.4273
   16SAPS  H16R 2065   1.052   2.373   8.290 -0.6572  0.1662  0.1050
   16SAPS  H16S 2066   1.137   2.505   8.201  0.6074 -0.2521  0.0720
   16SAPS  C217 2067   1.233   2.453   8.386  0.6991 -0.2491  0.7091
   16SAPS  H17R 2068   1.195   2.553   8.416 -3.1551 -0.8766 -1.4484
   16SAPS  H17S 2069   1.339   2.469   8.355  0.9856 -0.6837  1.4273
   16SAPS  C218 2070   1.218   2.348   8.499  0.3001  0.6572  0.8391
   16SAPS  H18R 2071   1.268   2.255   8.465 -2.0120 -0.7266  1.0002
   16SAPS  H18S 2072   1.110   2.324   8.514  0.6973 -1.1176  1.0116
   16SAPS  C219 2073   1.283   2.383   8.636 -0.6899 -0.4433  0.5925
   16SAPS  H19R 2074   1.219   2.466   8.672 -0.4976  0.2208 -0.5429
   16SAPS  H19S 2075   1.384   2.426   8.617 -1.6388  2.1400  1.0003
   16SAPS  C220 2076   1.299   2.256   8.725 -1.2091 -0.1860 -0.6399
   16SAPS  H20R 2077   1.346   2.270   8.824 -0.7193  1.2752 -1.0489
   16SAPS  H20S 2078   1.349   2.176   8.666 -0.3710  1.3372 -2.0927
   16SAPS  H20T 2079   1.194   2.224   8.746 -1.3007  0.6506  0.2716
   16SAPS   C33 2080   1.164   3.013   6.919 -0.2637 -0.5591 -0.0017
   16SAPS   H3X 2081   1.072   3.052   6.870  1.2382  1.8906 -1.0944
   16SAPS   H3Y 2082   1.238   3.088   6.884 -1.5070  0.6331 -0.1466
   16SAPS   C34 2083   1.161   3.030   7.076  0.3162 -0.3252  0.7093
   16SAPS   H4X 2084   1.083   2.957   7.107 -1.7724  1.1558 -0.7782
   16SAPS   H4Y 2085   1.127   3.133   7.100 -1.0873  0.0591 -2.3691
   16SAPS   C35 2086   1.295   2.998   7.147 -0.3586  0.0101  0.0666
   16SAPS   H5X 2087   1.384   3.049   7.105 -1.4504  0.0741 -2.3002
   16SAPS   H5Y 2088   1.304   2.890   7.126 -0.3968  0.0017  0.0932
   16SAPS   C36 2089   1.277   3.020   7.296  0.0267 -0.0909 -0.1435
   16SAPS   H6X 2090   1.216   2.935   7.334 -0.5673 -0.2891 -1.4549
   16SAPS   H6Y 2091   1.213   3.108   7.317  1.8910  1.2575  0.0609
   16SAPS   C37 2092   1.399   3.029   7.386 -0.0100  0.3844 -0.6132
   16SAPS   H7X 2093   1.451   3.127   7.372  1.0013  0.1330  1.0937
   16SAPS   H7Y 2094   1.470   2.948   7.358 -0.9173 -0.1755 -1.3083
   16SAPS   C38 2095   1.347   3.013   7.538 -0.1287  0.2390 -0.6842
   16SAPS   H8X 2096   1.326   2.904   7.541 -1.4562  0.4656 -1.1330
   16SAPS   H8Y 2097   1.255   3.076   7.539 -0.4207 -0.0128  2.8456
   16SAPS   C39 2098   1.448   3.060   7.641  0.4478 -0.8894  0.5118
   16SAPS   H9X 2099   1.462   3.169   7.623 -0.0025 -0.9724 -0.4454
   16SAPS   H9Y 2100   1.546   3.009   7.624  0.7585 -0.6348  1.4889
   16SAPS  C310 2101   1.392   3.057   7.777  0.4276  0.1059 -0.2334
   16SAPS  H10X 2102   1.370   2.951   7.803 -1.9494  0.5462 -0.1961
   16SAPS  H10Y 2103   1.296   3.113   7.773  0.1659 -0.3367 -0.1489
   16SAPS  C311 2104   1.486   3.126   7.877 -0.4054 -0.0005 -0.2798
   16SAPS  H11X 2105   1.489   3.232   7.845  1.2894 -0.4949 -1.9061
   16SAPS  H11Y 2106   1.592   3.094   7.863 -0.0777  0.1080  1.6835
   16SAPS  C312 2107   1.435   3.114   8.020 -0.2172  0.6034  1.2993
   16SAPS  H12X 2108   1.501   3.166   8.092 -0.1233  1.4860  0.5982
   16SAPS  H12Y 2109   1.435   3.005   8.044  2.1020 -0.4423 -2.4796
   16SAPS  C313 2110   1.286   3.163   8.041 -0.2846 -0.5141  0.0898
   16SAPS  H13X 2111   1.216   3.111   7.971  1.4665 -1.6023 -0.9297
   16SAPS  H13Y 2112   1.275   3.269   8.013 -4.6428 -1.4093 -2.5419
   16SAPS  C314 2113   1.249   3.151   8.185 -0.1413 -0.6007 -0.2301
   16SAPS  H14X 2114   1.344   3.149   8.244 -1.2188  0.4056  1.6623
   16SAPS  H14Y 2115   1.191   3.058   8.202  0.0088 -1.1309 -2.4348
   16SAPS  C315 2116   1.166   3.275   8.232 -0.1236  0.3275 -0.1552
   16SAPS  H15X 2117   1.067   3.282   8.183 -1.7005 -2.5784  2.2848
   16SAPS  H15Y 2118   1.217   3.371   8.213 -0.2316  0.4876  0.3438
   16SAPS  C316 2119   1.118   3.272   8.377 -0.0801 -0.4386 -0.2268
   16SAPS  H16X 2120   1.210   3.268   8.439 -1.8673 -2.0525  2.5010
   16SAPS  H16Y 2121   1.064   3.177   8.398 -0.0713 -0.8516 -1.8759
   16SAPS  C317 2122   1.033   3.392   8.419  0.2693  0.1698 -0.4250
   16SAPS  H17X 2123   0.949   3.419   8.351  0.8507  1.4109 -0.6794
   16SAPS  H17Y 2124   1.095   3.483   8.434  0.6569 -0.6000  3.9260
   16SAPS  C318 2125   0.964   3.366   8.557  0.8612 -0.3673 -0.3368
   16SAPS  H18X 2126   0.915   3.460   8.590  0.0438 -0.3257 -1.5937
   16SAPS  H18Y 2127   1.048   3.351   8.628  1.2366 -0.4613 -0.7985
   16SAPS  H18Z 2128   0.904   3.273   8.569 -0.5239  0.4872 -0.4522
   17SAPC     N 2129   2.039   4.555  11.232  0.2280  0.1342 -0.7119
   17SAPC   C12 2130   1.937   4.538  11.114  0.5529  0.4273 -0.4266
   17SAPC  H12A 2131   1.860   4.612  11.127  1.7223  1.8803 -1.3694
   17SAPC  H12B 2132   1.898   4.438  11.124 -1.9613  1.4414  0.6836
   17SAPC   C13 2133   1.953   4.523  11.353  0.5446 -0.6798 -0.0928
   17SAPC  H13A 2134   2.018   4.506  11.437  0.3770 -1.5592 -0.1275
   17SAPC  H13B 2135   1.885   4.603  11.377  0.1949 -0.4548 -1.6979
   17SAPC  H13C 2136   1.902   4.427  11.345 -1.4522  0.2753  0.4421
   17SAPC   C14 2137   2.148   4.461  11.217 -0.3369  0.0236  0.3087
   17SAPC  H14A 2138   2.192   4.467  11.119 -1.9289 -0.6064 -0.4820
   17SAPC  H14B 2139   2.229   4.477  11.287  0.1698  0.0932 -0.2855
   17SAPC  H14C 2140   2.115   4.360  11.236  1.8286 -0.9700 -0.8653
   17SAPC   C15 2141   2.076   4.702  11.226 -0.0913  0.5585  0.3273
   17SAPC  H15A 2142   1.988   4.765  11.235 -1.7305 -1.8540  3.3915
   17SAPC  H15B 2143   2.156   4.724  11.295  1.8951  1.4884 -2.1172
   17SAPC  H15C 2144   2.118   4.710  11.127  1.8208 -0.2663  1.0256
   17SAPC   C11 2145   1.996   4.547  10.967  0.2035  0.0147 -0.6262
   17SAPC  H11A 2146   1.918   4.506  10.899  0.0585 -0.9622  0.1007
   17SAPC  H11B 2147   2.078   4.474  10.952 -1.4317 -2.0285 -0.0357
   17SAPC     P 2148   1.922   4.789  10.885  0.4311  0.3439  0.0460
   17SAPC   O13 2149   1.855   4.834  11.012  0.6097  0.5171 -0.3868
   17SAPC   O14 2150   1.979   4.900  10.802  0.1381  0.0307  0.5441
   17SAPC   O12 2151   2.034   4.686  10.927 -0.9155 -0.1054  0.1480
   17SAPC   O11 2152   1.816   4.704  10.807 -0.2515  0.3617  0.0114
   17SAPC    C1 2153   1.846   4.646  10.678  0.1356 -0.4960  0.1950
   17SAPC    HA 2154   1.955   4.634  10.664  0.2622  0.5146  0.2557
   17SAPC    HB 2155   1.803   4.546  10.657 -2.0269  0.9174 -3.0028
   17SAPC    C2 2156   1.771   4.725  10.558 -0.3448  0.5699 -0.3964
   17SAPC    HS 2157   1.801   4.668  10.467 -1.0463 -0.8940  0.2638
   17SAPC   O21 2158   1.818   4.860  10.561  0.4643 -0.2829 -0.3668
   17SAPC   C21 2159   1.936   4.876  10.503 -0.4203  0.5573 -0.0062
   17SAPC   O22 2160   2.010   4.791  10.457  0.1391  0.2957 -0.3322
   17SAPC   C22 2161   1.959   5.029  10.493 -0.0824  0.0587  0.2482
   17SAPC   H2R 2162   1.949   5.091  10.584  0.1986  1.2976 -0.5456
   17SAPC   H2S 2163   2.061   5.047  10.454 -0.4336 -2.6014 -2.2664
   17SAPC    C3 2164   1.614   4.712  10.563  0.5186 -0.0767 -0.0656
   17SAPC    HX 2165   1.596   4.758  10.663 -1.1557  0.1659 -0.4464
   17SAPC    HY 2166   1.579   4.607  10.560 -0.0511  0.1317 -2.2994
   17SAPC   O31 2167   1.542   4.795  10.461 -0.5700 -0.0184  0.0875
   17SAPC   C31 2168   1.553   4.741  10.348 -0.0892  0.1685  0.2188
   17SAPC   O32 2169   1.606   4.628  10.332 -1.6418  0.0902  0.8732
   17SAPC   C32 2170   1.500   4.832  10.228  0.7239  0.2295  0.4953
   17SAPC   H2X 2171   1.482   4.938  10.253  1.6079 -0.1486  2.9958
   17SAPC   H2Y 2172   1.401   4.789  10.202  0.3444  0.9239  0.7738
   17SAPC   C23 2173   1.859   5.089  10.395 -0.0327 -0.1607  0.3983
   17SAPC   H3R 2174   1.859   5.199  10.390  2.4109 -0.0581  1.1822
   17SAPC   H3S 2175   1.757   5.053  10.419 -0.9325  0.6781 -1.9142
   17SAPC   C24 2176   1.866   5.028  10.251  0.6287 -0.0239 -0.5985
   17SAPC   H4R 2177   1.779   5.068  10.195 -2.3119 -2.1375  2.0509
   17SAPC   H4S 2178   1.845   4.921  10.274  1.3390  0.3296  1.9696
   17SAPC   C25 2179   1.998   5.046  10.188 -0.1119 -0.0476  0.1498
   17SAPC   H5R 2180   2.077   4.988  10.238 -0.7229 -2.4137 -1.4573
   17SAPC   C26 2181   2.022   5.109  10.071 -0.1078 -0.7815  0.5885
   17SAPC   H6R 2182   2.124   5.119  10.032 -0.9617  1.5554 -1.2846
   17SAPC   C27 2183   1.918   5.186   9.984 -0.8026 -0.3641  0.1827
   17SAPC   H7R 2184   1.964   5.278   9.941 -3.2206  1.1963  0.7183
   17SAPC   H7S 2185   1.840   5.229  10.050  1.1489  0.2798  2.1827
   17SAPC   C28 2186   1.860   5.110   9.867  0.4604 -0.1856 -0.1189
   17SAPC   H8R 2187   1.761   5.075   9.900 -0.8467  2.5527 -0.8025
   17SAPC   C29 2188   1.925   5.075   9.751 -0.1480  0.6029 -0.2297
   17SAPC   H9R 2189   1.867   5.045   9.662 -1.1726 -0.1175  0.6650
   17SAPC  C210 2190   2.076   5.094   9.719  1.0201 -0.1529  0.0752
   17SAPC  H10R 2191   2.121   5.164   9.793  2.6415  0.0662 -1.0762
   17SAPC  H10S 2192   2.087   5.134   9.616 -2.1453 -1.2989 -0.8494
   17SAPC  C211 2193   2.138   4.958   9.739 -0.6245  0.7734  0.2403
   17SAPC  H11R 2194   2.152   4.919   9.841  0.0919 -2.5990 -1.0279
   17SAPC  C212 2195   2.201   4.883   9.640 -0.2804 -0.2243 -0.0458
   17SAPC  H12R 2196   2.242   4.783   9.661 -1.3446 -1.2734 -2.4596
   17SAPC  C213 2197   2.204   4.912   9.490  0.4631 -0.1634 -0.0083
   17SAPC  H13R 2198   2.279   4.848   9.440  3.2502  3.3043 -0.6794
   17SAPC  H13S 2199   2.231   5.020   9.481  0.0098 -0.0610 -0.1817
   17SAPC  C214 2200   2.074   4.892   9.424 -0.3573 -0.8133 -0.5232
   17SAPC  H14R 2201   1.985   4.905   9.487  0.6356  0.3261  0.7121
   17SAPC  C215 2202   2.053   4.856   9.293 -0.1355 -0.3471  0.4995
   17SAPC  H15R 2203   1.952   4.824   9.264 -1.2022  2.1773  1.1109
   17SAPC  C216 2204   2.166   4.847   9.195  0.4927  1.0173  0.0024
   17SAPC  H16R 2205   2.187   4.741   9.166  0.1570  0.7582  0.6842
   17SAPC  H16S 2206   2.266   4.887   9.221  1.0612 -0.6859  0.6079
   17SAPC  C217 2207   2.141   4.933   9.068 -0.2885  0.6487 -0.3620
   17SAPC  H17R 2208   2.121   5.040   9.086 -3.7425 -0.0010  0.4124
   17SAPC  H17S 2209   2.049   4.890   9.023  0.2567  0.2236 -1.1010
   17SAPC  C218 2210   2.254   4.925   8.964 -0.7860  0.5928 -0.1291
   17SAPC  H18R 2211   2.219   4.957   8.863 -1.6065 -1.2124 -0.4623
   17SAPC  H18S 2212   2.292   4.821   8.955 -0.0352  0.8554 -0.0692
   17SAPC  C219 2213   2.385   5.009   8.995  0.0613 -0.2312 -0.2806
   17SAPC  H19R 2214   2.455   4.988   8.911 -1.5198 -0.1098 -1.6738
   17SAPC  H19S 2215   2.428   4.963   9.086 -0.9889 -0.1822  0.2496
   17SAPC  C220 2216   2.371   5.165   9.000  0.5571 -0.2095 -0.5210
   17SAPC  H20R 2217   2.300   5.200   8.923  0.2571  0.2465 -0.0409
   17SAPC  H20S 2218   2.475   5.201   8.983  1.3780 -1.3092  1.7499
   17SAPC  H20T 2219   2.336   5.199   9.100 -2.4357 -1.9158 -0.9040
   17SAPC   C33 2220   1.588   4.812  10.101  0.0246  0.1926 -0.3795
   17SAPC   H3X 2221   1.604   4.704  10.080  0.4678  0.1862 -0.0243
   17SAPC   H3Y 2222   1.688   4.858  10.116  0.8058 -0.6570 -2.6242
   17SAPC   C34 2223   1.527   4.868   9.975  0.9814 -0.0115  0.5174
   17SAPC   H4X 2224   1.551   4.976   9.968  2.0676 -0.3442 -1.2015
   17SAPC   H4Y 2225   1.417   4.848   9.974  0.3437  2.7824  2.1875
   17SAPC   C35 2226   1.585   4.820   9.843 -0.2934  0.6342 -0.2852
   17SAPC   H5X 2227   1.541   4.719   9.833  1.4807 -0.2658  0.5372
   17SAPC   H5Y 2228   1.696   4.813   9.838 -0.2420  1.2081  0.0308
   17SAPC   C36 2229   1.541   4.899   9.726  0.6813 -0.3917  0.1498
   17SAPC   H6X 2230   1.568   5.004   9.751 -0.4407 -0.0453 -0.0247
   17SAPC   H6Y 2231   1.430   4.892   9.725  0.6264  0.3702  0.2129
   17SAPC   C37 2232   1.607   4.861   9.592 -0.0826  0.3774  0.5911
   17SAPC   H7X 2233   1.545   4.781   9.546 -0.2819  1.9579 -2.0680
   17SAPC   H7Y 2234   1.710   4.828   9.616 -1.4611 -1.5248  4.9852
   17SAPC   C38 2235   1.608   4.979   9.493  0.3854  0.7308 -0.0229
   17SAPC   H8X 2236   1.683   5.056   9.521 -0.1769  0.8404  1.2793
   17SAPC   H8Y 2237   1.505   5.020   9.502  0.0606 -0.0556 -0.0648
   17SAPC   C39 2238   1.624   4.940   9.344  0.2057  0.0749 -0.9839
   17SAPC   H9X 2239   1.710   4.873   9.323 -2.5424 -3.7520 -1.1245
   17SAPC   H9Y 2240   1.663   5.031   9.293  0.6267  0.5471  0.1338
   17SAPC  C310 2241   1.486   4.902   9.277  0.1829 -0.7802 -0.2772
   17SAPC  H10X 2242   1.405   4.959   9.326 -1.0262 -2.3139 -0.4239
   17SAPC  H10Y 2243   1.474   4.795   9.305  1.4234 -0.9823 -0.4501
   17SAPC  C311 2244   1.508   4.916   9.130 -0.0346 -0.7613  0.4310
   17SAPC  H11X 2245   1.548   5.014   9.098 -1.6405 -0.0315  0.5316
   17SAPC  H11Y 2246   1.415   4.888   9.075 -0.6441 -0.2131  1.1636
   17SAPC  C312 2247   1.589   4.803   9.068 -0.0127 -0.1494  0.1551
   17SAPC  H12X 2248   1.526   4.712   9.075  1.1364 -0.8253  4.0282
   17SAPC  H12Y 2249   1.689   4.800   9.116  2.0725  1.3980 -3.6475
   17SAPC  C313 2250   1.604   4.829   8.916 -0.2803  0.3024 -0.0214
   17SAPC  H13X 2251   1.630   4.936   8.906  1.9958 -0.1728  0.2224
   17SAPC  H13Y 2252   1.510   4.808   8.861 -0.1460  0.1250 -0.1867
   17SAPC  C314 2253   1.715   4.744   8.853  0.2392  0.0639 -0.5617
   17SAPC  H14X 2254   1.703   4.643   8.897 -1.6302  0.4395 -0.1032
   17SAPC  H14Y 2255   1.814   4.785   8.880 -0.2579  3.1821 -2.8463
   17SAPC  C315 2256   1.706   4.719   8.701 -0.0545  0.1450  0.3897
   17SAPC  H15X 2257   1.711   4.819   8.653 -0.1911  1.1567  2.3776
   17SAPC  H15Y 2258   1.607   4.673   8.678 -0.1011  0.2642  0.3537
   17SAPC  C316 2259   1.818   4.622   8.641 -0.1844 -0.1380 -0.3366
   17SAPC  H16X 2260   1.914   4.659   8.681 -0.6805  1.2092 -0.3601
   17SAPC  H16Y 2261   1.810   4.654   8.535  0.0931 -0.8859 -0.5975
   17SAPC  C317 2262   1.800   4.476   8.658 -0.2289 -0.0666  0.1032
   17SAPC  H17X 2263   1.702   4.452   8.610  0.2367 -0.1095 -0.8329
   17SAPC  H17Y 2264   1.809   4.462   8.768 -1.4446 -1.7534  0.0241
   17SAPC  C318 2265   1.904   4.399   8.580  0.6175 -0.9220 -0.2389
   17SAPC  H18X 2266   2.001   4.398   8.635 -0.1663  0.8665  1.3160
   17SAPC  H18Y 2267   1.883   4.291   8.575 -1.8743 -0.5093  0.2308
   17SAPC  H18Z 2268   1.912   4.447   8.480 -0.1622  1.7058  0.8679
   18SAPC     N 2269   0.696   4.123  10.778 -0.0431 -0.0987  0.1834
   18SAPC   C12 2270   0.820   4.112  10.689 -0.0982 -0.7422 -0.1636
   18SAPC  H12A 2271   0.837   4.202  10.631  1.4447 -0.3286  0.8659
   18SAPC  H12B 2272   0.810   4.038  10.611  1.2986 -1.5924  0.4332
   18SAPC   C13 2273   0.584   4.177  10.689  0.1271 -0.4356  0.9600
   18SAPC  H13A 2274   0.489   4.191  10.738 -1.1750  1.5465 -1.8364
   18SAPC  H13B 2275   0.616   4.271  10.646  0.6098 -1.3161 -0.6795
   18SAPC  H13C 2276   0.570   4.122  10.598  1.2267  2.9612 -1.4723
   18SAPC   C14 2277   0.650   3.989  10.818  0.1156 -0.2523  0.4455
   18SAPC  H14A 2278   0.701   3.944  10.902 -1.0465 -0.1826  1.2110
   18SAPC  H14B 2279   0.543   3.985  10.831  0.1293  1.8899  1.6963
   18SAPC  H14C 2280   0.667   3.925  10.732  0.1296 -2.0538  1.7320
   18SAPC   C15 2281   0.709   4.210  10.895  0.6527  0.5664 -0.5072
   18SAPC  H15A 2282   0.759   4.162  10.977 -0.7532 -0.8679 -0.4446
   18SAPC  H15B 2283   0.742   4.310  10.870 -1.0021  1.4756  0.7653
   18SAPC  H15C 2284   0.610   4.225  10.937  0.9909  0.6662  0.2645
   18SAPC   C11 2285   0.960   4.058  10.741  0.2654  0.1203 -0.6553
   18SAPC  H11A 2286   1.000   4.139  10.805  1.5303 -0.2634 -0.9324
   18SAPC  H11B 2287   1.032   4.049  10.657  1.5652  1.4202  0.2790
   18SAPC     P 2288   1.007   3.795  10.742 -0.0636 -0.2251  0.0638
   18SAPC   O13 2289   1.154   3.791  10.775 -0.0855 -0.3422  0.4204
   18SAPC   O14 2290   0.933   3.678  10.792  0.9532  0.5289  0.2949
   18SAPC   O12 2291   0.948   3.929  10.804  0.9742 -0.1974 -0.0907
   18SAPC   O11 2292   0.989   3.808  10.584  0.2048 -0.1246  0.2682
   18SAPC    C1 2293   1.047   3.707  10.500  0.7414 -0.2260 -0.7383
   18SAPC    HA 2294   1.055   3.610  10.553 -1.4269  1.0498  2.2037
   18SAPC    HB 2295   0.982   3.696  10.411 -3.3519 -0.0237  1.9481
   18SAPC    C2 2296   1.186   3.765  10.444 -0.2690  1.0007 -0.6401
   18SAPC    HS 2297   1.259   3.756  10.527 -0.3419  0.2921 -0.6461
   18SAPC   O21 2298   1.172   3.901  10.405  0.4607  0.2342  0.0078
   18SAPC   C21 2299   1.283   3.967  10.378 -0.2504 -0.1106 -0.2603
   18SAPC   O22 2300   1.393   3.915  10.384 -0.2513 -0.1166 -0.3031
   18SAPC   C22 2301   1.251   4.112  10.341  0.1447 -0.2327  0.3826
   18SAPC   H2R 2302   1.147   4.137  10.374 -0.7536 -0.2370 -2.1797
   18SAPC   H2S 2303   1.326   4.166  10.403  2.6386 -2.5220 -0.4455
   18SAPC    C3 2304   1.242   3.660  10.340 -0.6249 -0.4566  1.0473
   18SAPC    HX 2305   1.275   3.567  10.392 -1.1323 -1.1240  0.2152
   18SAPC    HY 2306   1.336   3.699  10.295 -0.4117 -1.9518  0.1253
   18SAPC   O31 2307   1.150   3.637  10.227  0.6263  0.0637  0.0485
   18SAPC   C31 2308   1.102   3.517  10.201 -0.6203 -0.8142 -0.4418
   18SAPC   O32 2309   1.152   3.413  10.252  0.2803  0.0928  0.2622
   18SAPC   C32 2310   0.985   3.523  10.107  0.6508 -0.5797  0.0976
   18SAPC   H2X 2311   0.994   3.612  10.041  0.3627 -1.9243 -1.8062
   18SAPC   H2Y 2312   0.898   3.545  10.172  0.0107  1.1703 -1.2685
   18SAPC   C23 2313   1.266   4.126  10.187 -0.2215  0.7867  0.3680
   18SAPC   H3R 2314   1.227   4.224  10.154  0.8040  1.6222  1.5624
   18SAPC   H3S 2315   1.194   4.056  10.138  0.2985  0.5104 -0.0033
   18SAPC   C24 2316   1.412   4.123  10.128 -0.2255 -0.2983 -0.5942
   18SAPC   H4R 2317   1.403   4.136  10.018  3.8460 -0.7495 -1.1331
   18SAPC   H4S 2318   1.465   4.027  10.144 -0.3463 -0.2675  0.0436
   18SAPC   C25 2319   1.509   4.225  10.185  0.4326 -0.3286 -0.1998
   18SAPC   H5R 2320   1.567   4.192  10.272  0.1474  0.3424  0.2492
   18SAPC   C26 2321   1.527   4.348  10.136 -0.5323  0.4063  0.4812
   18SAPC   H6R 2322   1.595   4.424  10.177 -0.5075 -0.6809  2.5809
   18SAPC   C27 2323   1.449   4.397  10.016 -0.1670 -0.1070 -0.3742
   18SAPC   H7R 2324   1.427   4.504  10.040 -1.3055 -0.4769  0.3354
   18SAPC   H7S 2325   1.350   4.346  10.013 -0.7350  0.9897 -0.9752
   18SAPC   C28 2326   1.501   4.384   9.881  0.6163 -0.0282  0.5685
   18SAPC   H8R 2327   1.608   4.362   9.879  0.4968 -0.5873 -0.2239
   18SAPC   C29 2328   1.434   4.386   9.761  0.4935 -0.8132  0.4542
   18SAPC   H9R 2329   1.499   4.390   9.672  0.6479  0.4402  0.6018
   18SAPC  C210 2330   1.283   4.406   9.735  0.2349 -0.1744  0.0600
   18SAPC  H10R 2331   1.251   4.512   9.732 -0.5251 -0.4125 -0.7711
   18SAPC  H10S 2332   1.244   4.364   9.830  1.1658 -0.5533  0.2863
   18SAPC  C211 2333   1.238   4.339   9.609 -0.1263  0.5663  0.5269
   18SAPC  H11R 2334   1.235   4.230   9.622  1.2292  0.3551 -0.6797
   18SAPC  C212 2335   1.194   4.396   9.491  0.6239  0.5958 -0.3998
   18SAPC  H12R 2336   1.144   4.334   9.415  0.4874  0.9865 -0.6293
   18SAPC  C213 2337   1.181   4.537   9.456  0.1693  0.5462 -0.2535
   18SAPC  H13R 2338   1.226   4.591   9.542  1.3781 -1.3687  0.3915
   18SAPC  H13S 2339   1.074   4.563   9.443  0.6856  1.9382 -2.3576
   18SAPC  C214 2340   1.255   4.575   9.327  0.0027 -0.0661  0.0974
   18SAPC  H14R 2341   1.365   4.581   9.337  0.1518 -2.1277  0.0537
   18SAPC  C215 2342   1.202   4.581   9.206  0.2941 -0.0670  0.1503
   18SAPC  H15R 2343   1.272   4.602   9.124  0.6387  1.1985  0.7242
   18SAPC  C216 2344   1.057   4.553   9.164 -0.3832 -0.3755  0.0917
   18SAPC  H16R 2345   0.997   4.484   9.227  1.4496 -3.3427 -1.1926
   18SAPC  H16S 2346   1.068   4.502   9.066  1.2185 -0.9773  0.5569
   18SAPC  C217 2347   0.976   4.684   9.138  0.1043  0.4943 -0.5041
   18SAPC  H17R 2348   0.949   4.734   9.233  1.8479  0.4616  0.0561
   18SAPC  H17S 2349   0.877   4.657   9.096  0.4661  0.6934 -1.5103
   18SAPC  C218 2350   1.037   4.791   9.046 -0.3757 -0.1458 -0.1568
   18SAPC  H18R 2351   1.143   4.805   9.075 -1.1973  3.0396  1.8294
   18SAPC  H18S 2352   0.983   4.888   9.055 -0.6703 -0.3307  0.0672
   18SAPC  C219 2353   1.020   4.752   8.896  0.4412 -0.3035  0.5243
   18SAPC  H19R 2354   0.923   4.701   8.878 -0.4486  0.9660  1.5417
   18SAPC  H19S 2355   1.103   4.690   8.856  1.1676 -0.2799  1.9042
   18SAPC  C220 2356   1.031   4.873   8.794 -0.5550 -0.5531 -0.2797
   18SAPC  H20R 2357   1.131   4.918   8.813  0.2988 -2.4378  0.0156
   18SAPC  H20S 2358   0.955   4.950   8.816  2.6717  2.6901  0.3500
   18SAPC  H20T 2359   1.021   4.822   8.695  1.2202 -1.6830  0.0683
   18SAPC   C33 2360   0.976   3.390  10.028 -0.0573 -0.6883 -0.0257
   18SAPC   H3X 2361   0.911   3.323  10.089 -0.2546 -2.2287 -1.8345
   18SAPC   H3Y 2362   1.079   3.348  10.022 -0.8317 -2.8700  0.9828
   18SAPC   C34 2363   0.926   3.400   9.883 -0.0139 -0.2051 -0.5103
   18SAPC   H4X 2364   0.822   3.440   9.883  0.1853  0.3244  0.3126
   18SAPC   H4Y 2365   0.927   3.302   9.829 -0.5630  0.2174 -1.3008
   18SAPC   C35 2366   1.010   3.498   9.799  1.2006  0.0331 -0.4268
   18SAPC   H5X 2367   1.110   3.505   9.846  0.6018  0.3842  0.8514
   18SAPC   H5Y 2368   0.965   3.599   9.807  0.2488 -0.2802 -1.5631
   18SAPC   C36 2369   1.018   3.458   9.652 -0.3530 -1.5814 -0.0537
   18SAPC   H6X 2370   0.926   3.439   9.593  0.7701 -1.7656 -1.7968
   18SAPC   H6Y 2371   1.085   3.370   9.639  1.7070 -0.5109  2.3865
   18SAPC   C37 2372   1.088   3.575   9.581 -0.0944 -0.1683  0.5748
   18SAPC   H7X 2373   1.181   3.577   9.641 -0.5916 -0.8067  1.3911
   18SAPC   H7Y 2374   1.036   3.673   9.590  0.1354 -0.1489  1.8780
   18SAPC   C38 2375   1.130   3.542   9.432  0.9225 -0.6551 -0.5969
   18SAPC   H8X 2376   1.177   3.442   9.421 -0.7970 -1.7306  1.3067
   18SAPC   H8Y 2377   1.198   3.626   9.405  2.3787 -1.3342  0.8044
   18SAPC   C39 2378   1.009   3.561   9.336  0.3219  0.8522 -1.1672
   18SAPC   H9X 2379   0.933   3.627   9.382 -0.4306  1.2801 -2.9497
   18SAPC   H9Y 2380   0.965   3.462   9.312  0.2404  0.9725 -1.5131
   18SAPC  C310 2381   1.040   3.613   9.196 -0.1742 -0.1046  0.5799
   18SAPC  H10X 2382   1.112   3.542   9.149 -1.8353 -2.4917  1.4407
   18SAPC  H10Y 2383   1.084   3.712   9.218  1.4690 -0.6605  0.0293
   18SAPC  C311 2384   0.918   3.630   9.106  0.2013 -0.6053  0.2962
   18SAPC  H11X 2385   0.826   3.663   9.159  0.4550  1.8208 -0.6714
   18SAPC  H11Y 2386   0.885   3.530   9.069  0.7642 -0.3122 -1.0548
   18SAPC  C312 2387   0.950   3.707   8.983  0.4088  0.3814 -0.3607
   18SAPC  H12X 2388   1.035   3.648   8.945  0.2773  0.4073 -0.6934
   18SAPC  H12Y 2389   0.988   3.811   8.991 -1.7192  1.3633 -1.9677
   18SAPC  C313 2390   0.842   3.691   8.883  0.1246  0.1140 -0.1687
   18SAPC  H13X 2391   0.745   3.699   8.937  1.8107 -0.2125  3.1711
   18SAPC  H13Y 2392   0.835   3.587   8.843 -3.8735  1.1985 -2.8894
   18SAPC  C314 2393   0.857   3.790   8.766  0.1262 -0.6385  0.0298
   18SAPC  H14X 2394   0.960   3.786   8.727 -0.2618  1.2569 -1.3378
   18SAPC  H14Y 2395   0.844   3.890   8.813 -1.7493 -1.3909  1.2401
   18SAPC  C315 2396   0.748   3.780   8.663 -0.1020 -0.2793 -0.8953
   18SAPC  H15X 2397   0.654   3.742   8.708  1.0645 -1.9794  0.2123
   18SAPC  H15Y 2398   0.771   3.698   8.592  0.6262 -3.9445  3.1624
   18SAPC  C316 2399   0.725   3.919   8.597 -0.0156  0.3128  0.3643
   18SAPC  H16X 2400   0.829   3.952   8.578  0.0796 -0.5797 -0.7912
   18SAPC  H16Y 2401   0.674   3.982   8.673  1.6310  1.6490  0.3969
   18SAPC  C317 2402   0.650   3.906   8.468 -0.5614 -0.5152  0.2196
   18SAPC  H17X 2403   0.547   3.864   8.474 -0.2316 -1.5008 -0.6302
   18SAPC  H17Y 2404   0.696   3.821   8.414  1.9254 -0.2353  1.7496
   18SAPC  C318 2405   0.657   4.032   8.383  0.0936 -0.1292 -0.2824
   18SAPC  H18X 2406   0.607   4.115   8.437  0.8211 -1.5363  2.7749
   18SAPC  H18Y 2407   0.598   4.015   8.290  1.7625  0.7319 -1.5392
   18SAPC  H18Z 2408   0.761   4.060   8.359  0.2242 -1.6399 -1.6568
   19SAPC     N 2409   6.088   0.094  11.176 -0.9716 -0.4331 -0.7449
   19SAPC   C12 2410   6.125  -0.047  11.161 -0.6358  0.1823  0.3839
   19SAPC  H12A 2411   6.114  -0.103  11.252  1.0080  1.4075  1.3997
   19SAPC  H12B 2412   6.231  -0.059  11.148 -0.5316 -0.2866  1.6081
   19SAPC   C13 2413   5.941   0.114  11.189 -0.5275  0.3140 -0.3782
   19SAPC  H13A 2414   5.906   0.078  11.285  1.4037 -2.9216 -0.7395
   19SAPC  H13B 2415   5.920   0.219  11.174 -1.8558  0.5346  2.3867
   19SAPC  H13C 2416   5.889   0.056  11.114 -0.4755 -0.8676  0.4726
   19SAPC   C14 2417   6.157   0.157  11.300 -0.0103  0.5814  0.0673
   19SAPC  H14A 2418   6.264   0.163  11.287 -0.1603  0.7544 -1.2509
   19SAPC  H14B 2419   6.123   0.259  11.307 -0.1190  0.4805  1.0884
   19SAPC  H14C 2420   6.136   0.103  11.390  1.7776  1.5502  1.1242
   19SAPC   C15 2421   6.125   0.174  11.057  0.0364  0.7349  0.0481
   19SAPC  H15A 2422   6.072   0.142  10.969  0.9277  2.6509 -1.2779
   19SAPC  H15B 2423   6.104   0.278  11.078 -0.0286  0.4484  1.4891
   19SAPC  H15C 2424   6.225   0.151  11.022 -0.7443  1.8418 -3.2574
   19SAPC   C11 2425   6.055  -0.115  11.036 -0.1701  0.0707 -0.2255
   19SAPC  H11A 2426   5.946  -0.092  11.039 -0.3702 -0.7954 -0.3309
   19SAPC  H11B 2427   6.054  -0.225  11.051  0.5492 -0.0391 -0.9216
   19SAPC     P 2428   6.265  -0.110  10.878 -0.3392  0.2603  0.0668
   19SAPC   O13 2429   6.319   0.003  10.800  0.2290 -0.7806  0.0734
   19SAPC   O14 2430   6.338  -0.152  10.992 -0.1419 -0.1437 -0.4596
   19SAPC   O12 2431   6.122  -0.069  10.915 -0.0803 -0.1013 -0.0215
   19SAPC   O11 2432   6.249  -0.239  10.786 -0.5356 -0.0140 -0.1172
   19SAPC    C1 2433   6.129  -0.314  10.761  0.0890  1.0934  0.6427
   19SAPC    HA 2434   6.089  -0.337  10.862 -0.6091  0.3251  0.2017
   19SAPC    HB 2435   6.057  -0.251  10.703 -0.4299  0.4435  0.5727
   19SAPC    C2 2436   6.155  -0.435  10.672 -0.4245 -0.0109  0.2014
   19SAPC    HS 2437   6.215  -0.502  10.737 -0.9355 -1.3262 -0.6391
   19SAPC   O21 2438   6.232  -0.387  10.559  0.1281 -0.0911  0.5348
   19SAPC   C21 2439   6.319  -0.482  10.508 -0.0821 -0.5331  0.0663
   19SAPC   O22 2440   6.353  -0.581  10.570 -0.0059  0.0088 -0.4364
   19SAPC   C22 2441   6.355  -0.445  10.365  0.3621 -0.3257 -0.2017
   19SAPC   H2R 2442   6.263  -0.467  10.307  0.4195 -0.6084 -0.1888
   19SAPC   H2S 2443   6.383  -0.339  10.346  2.1533 -0.8163 -0.4734
   19SAPC    C3 2444   6.032  -0.515  10.633  0.7102 -0.0965 -0.1649
   19SAPC    HX 2445   5.968  -0.443  10.577 -1.3629 -0.6015  1.4312
   19SAPC    HY 2446   5.965  -0.529  10.720  0.4661  1.9856  0.0380
   19SAPC   O31 2447   6.059  -0.635  10.552 -0.9073  0.0561  0.3296
   19SAPC   C31 2448   6.056  -0.750  10.618  0.0333 -0.0008 -0.6956
   19SAPC   O32 2449   6.024  -0.764  10.737  0.0744  0.0496  0.7231
   19SAPC   C32 2450   6.099  -0.859  10.526  0.1521  0.4947 -0.0609
   19SAPC   H2X 2451   6.073  -0.955  10.576 -3.1082  0.6651 -1.1844
   19SAPC   H2Y 2452   6.210  -0.863  10.521  0.1527  0.6279 -0.1569
   19SAPC   C23 2453   6.453  -0.536  10.291 -0.4118 -0.7000 -0.4005
   19SAPC   H3R 2454   6.440  -0.640  10.328 -1.9678 -1.1063 -1.9649
   19SAPC   H3S 2455   6.548  -0.490  10.328 -1.8221  2.0295  0.0592
   19SAPC   C24 2456   6.461  -0.524  10.138  0.5379  0.3161  0.2089
   19SAPC   H4R 2457   6.556  -0.576  10.115  0.9203  0.4877  1.3148
   19SAPC   H4S 2458   6.469  -0.415  10.114  0.9832  0.4327  0.8566
   19SAPC   C25 2459   6.341  -0.585  10.070 -0.0041  0.1754 -0.5960
   19SAPC   H5R 2460   6.310  -0.673  10.129 -1.9666  0.8444 -0.5461
   19SAPC   C26 2461   6.267  -0.545   9.971  0.6828 -0.2922  0.7119
   19SAPC   H6R 2462   6.181  -0.606   9.939  0.4765 -0.3855  1.4312
   19SAPC   C27 2463   6.276  -0.423   9.885  0.2692 -0.0302 -0.5091
   19SAPC   H7R 2464   6.336  -0.348   9.940  1.0728 -0.6514 -0.5188
   19SAPC   H7S 2465   6.177  -0.376   9.876  0.6545  0.5553 -1.9386
   19SAPC   C28 2466   6.333  -0.445   9.750  0.0348 -0.0168 -0.1647
   19SAPC   H8R 2467   6.436  -0.483   9.745 -0.7969 -2.2889 -1.6805
   19SAPC   C29 2468   6.277  -0.420   9.630  0.0813  0.0204  0.3383
   19SAPC   H9R 2469   6.343  -0.442   9.544 -0.6182 -1.0053  0.0394
   19SAPC  C210 2470   6.148  -0.343   9.601 -0.0559  0.2808 -0.8914
   19SAPC  H10R 2471   6.078  -0.324   9.685  0.5972  1.5272 -0.6060
   19SAPC  H10S 2472   6.091  -0.389   9.518  0.3914  0.3156 -1.2223
   19SAPC  C211 2473   6.197  -0.210   9.559  0.7088  0.2176 -0.1268
   19SAPC  H11R 2474   6.267  -0.160   9.627  0.4373  0.3452  0.0610
   19SAPC  C212 2475   6.178  -0.164   9.434  0.1886  0.5398  0.4573
   19SAPC  H12R 2476   6.231  -0.070   9.416  2.3321 -0.2258  2.2826
   19SAPC  C213 2477   6.109  -0.218   9.312 -0.3455 -0.1579 -0.1248
   19SAPC  H13R 2478   6.124  -0.327   9.298 -0.3612 -0.2842  0.8090
   19SAPC  H13S 2479   6.150  -0.158   9.228 -0.0396  1.9005  1.4457
   19SAPC  C214 2480   5.963  -0.170   9.325  0.2571  0.6276  0.2979
   19SAPC  H14R 2481   5.911  -0.166   9.422 -3.5469 -0.3002 -1.5047
   19SAPC  C215 2482   5.888  -0.141   9.219 -0.4868 -0.4082  0.6994
   19SAPC  H15R 2483   5.786  -0.102   9.234 -0.2420 -0.0952  1.6124
   19SAPC  C216 2484   5.937  -0.159   9.075  0.0946  0.2640  0.3875
   19SAPC  H16R 2485   6.014  -0.239   9.083  1.7534  1.9167  1.7993
   19SAPC  H16S 2486   5.985  -0.065   9.041  0.2322  0.5749  1.4273
   19SAPC  C217 2487   5.844  -0.210   8.964 -0.4810  0.3303 -0.4112
   19SAPC  H17R 2488   5.758  -0.141   8.949  0.5411  2.1008  1.4331
   19SAPC  H17S 2489   5.800  -0.310   8.989  0.9416 -0.2889 -0.3176
   19SAPC  C218 2490   5.917  -0.229   8.830 -0.4447  0.3252 -0.3413
   19SAPC  H18R 2491   5.860  -0.282   8.751  1.6738 -0.4860 -1.4303
   19SAPC  H18S 2492   6.006  -0.295   8.843  0.2806  1.0942 -1.2720
   19SAPC  C219 2493   5.955  -0.098   8.766  0.2892  0.1576 -0.0315
   19SAPC  H19R 2494   6.043  -0.051   8.814  0.1150 -1.1719  1.6785
   19SAPC  H19S 2495   5.867  -0.031   8.778 -0.7384 -0.9500 -1.0936
   19SAPC  C220 2496   5.994  -0.114   8.616  0.4453  0.2941 -0.1207
   19SAPC  H20R 2497   5.906  -0.136   8.551 -1.8819  0.2762  2.7890
   19SAPC  H20S 2498   6.072  -0.192   8.608  1.5555  1.2796  0.8668
   19SAPC  H20T 2499   6.041  -0.020   8.579 -0.0783  0.3743 -0.5928
   19SAPC   C33 2500   6.042  -0.851  10.379  0.4115  0.2247 -0.3086
   19SAPC   H3X 2501   6.063  -0.757  10.325  1.4980  0.2158  0.0756
   19SAPC   H3Y 2502   5.931  -0.860  10.382  0.2990  1.1257 -1.4460
   19SAPC   C34 2503   6.099  -0.963  10.297 -0.4433  0.5138 -0.1355
   19SAPC   H4X 2504   6.094  -1.063  10.346  2.6873 -0.6805 -1.9675
   19SAPC   H4Y 2505   6.207  -0.950  10.273 -0.9550 -0.5603 -3.6249
   19SAPC   C35 2506   6.025  -0.977  10.160  0.6462 -0.5218  0.1229
   19SAPC   H5X 2507   5.920  -0.945  10.179  0.3413 -1.0925 -0.5631
   19SAPC   H5Y 2508   6.017  -1.084  10.131 -1.9839 -0.4041  0.1002
   19SAPC   C36 2509   6.095  -0.908  10.045  0.7627  0.0361  0.0718
   19SAPC   H6X 2510   6.195  -0.954  10.036  0.4493 -0.3297 -2.5439
   19SAPC   H6Y 2511   6.108  -0.799  10.062  3.0988 -0.2661  0.4501
   19SAPC   C37 2512   6.020  -0.939   9.913 -0.6454  0.8538  0.1982
   19SAPC   H7X 2513   5.923  -0.885   9.916 -0.3677  1.3821 -0.2747
   19SAPC   H7Y 2514   6.003  -1.049   9.903  2.6486  0.2482 -0.0145
   19SAPC   C38 2515   6.089  -0.889   9.787  0.4253  0.4894 -0.1105
   19SAPC   H8X 2516   6.182  -0.943   9.760 -0.1338 -0.9483  0.7293
   19SAPC   H8Y 2517   6.112  -0.783   9.811  2.0001  0.2175 -0.3256
   19SAPC   C39 2518   6.002  -0.905   9.663  0.3603 -0.6633 -0.0004
   19SAPC   H9X 2519   5.897  -0.879   9.689  1.3683  1.1758  2.6319
   19SAPC   H9Y 2520   6.011  -1.006   9.619  1.5781 -2.1713  3.3926
   19SAPC  C310 2521   6.050  -0.812   9.555 -0.1155 -1.1927  0.4766
   19SAPC  H10X 2522   6.146  -0.845   9.510  0.0262 -0.2262  0.0386
   19SAPC  H10Y 2523   6.072  -0.716   9.606 -1.4097  0.6316 -2.1578
   19SAPC  C311 2524   5.950  -0.789   9.446 -0.2592 -0.1908 -0.0335
   19SAPC  H11X 2525   5.854  -0.744   9.479  0.1053  0.6849 -0.1331
   19SAPC  H11Y 2526   5.918  -0.881   9.393 -2.2183  0.4130  0.0137
   19SAPC  C312 2527   6.003  -0.705   9.328  0.5094  0.2236 -0.2532
   19SAPC  H12X 2528   6.104  -0.749   9.309  0.1521 -0.4546 -0.6380
   19SAPC  H12Y 2529   6.028  -0.602   9.361  1.4639  0.2563 -1.0256
   19SAPC  C313 2530   5.910  -0.714   9.207 -0.6872  0.0356 -0.6283
   19SAPC  H13X 2531   5.808  -0.682   9.239 -0.3576  0.3739  0.0997
   19SAPC  H13Y 2532   5.895  -0.813   9.160 -0.6091 -1.1988  1.7905
   19SAPC  C314 2533   5.952  -0.623   9.092 -0.2983  0.6576 -0.2458
   19SAPC  H14X 2534   5.959  -0.514   9.115 -1.8045  0.5613  0.8197
   19SAPC  H14Y 2535   5.883  -0.635   9.006  0.2189 -1.7282 -0.4024
   19SAPC  C315 2536   6.083  -0.668   9.030 -0.2814  0.2625  0.1818
   19SAPC  H15X 2537   6.083  -0.775   8.999  0.5128  0.5307 -0.7997
   19SAPC  H15Y 2538   6.165  -0.659   9.104 -1.6442  0.8914  1.6593
   19SAPC  C316 2539   6.112  -0.583   8.904 -0.0657 -0.2454  0.2731
   19SAPC  H16X 2540   6.223  -0.584   8.895 -0.2507  0.2559 -3.5384
   19SAPC  H16Y 2541   6.084  -0.479   8.931  2.4342 -0.0199  2.4179
   19SAPC  C317 2542   6.061  -0.631   8.769 -0.7076  0.2282  0.6463
   19SAPC  H17X 2543   5.953  -0.605   8.765 -0.8066 -0.2891 -1.0130
   19SAPC  H17Y 2544   6.076  -0.740   8.759  0.8886  0.6254 -3.2046
   19SAPC  C318 2545   6.138  -0.563   8.650  0.1365 -0.4317 -0.6230
   19SAPC  H18X 2546   6.245  -0.538   8.667  0.6961 -2.6490 -0.5046
   19SAPC  H18Y 2547   6.077  -0.473   8.627  1.7572  1.9501  3.3343
   19SAPC  H18Z 2548   6.136  -0.610   8.549 -1.7114  1.9017 -1.7666
   20SAPC     N 2549   0.880   3.233  11.291 -0.0881  0.2204 -0.5335
   20SAPC   C12 2550   1.015   3.167  11.290  0.5465 -0.2148 -0.6873
   20SAPC  H12A 2551   1.004   3.086  11.361  4.0220  1.1989  1.7032
   20SAPC  H12B 2552   1.092   3.223  11.341  0.7873 -1.1304 -0.0131
   20SAPC   C13 2553   0.831   3.251  11.434  0.5649 -0.9417  0.1186
   20SAPC  H13A 2554   0.909   3.278  11.504  0.4032 -1.4612  0.5073
   20SAPC  H13B 2555   0.746   3.317  11.432  1.9357  0.8867 -0.9438
   20SAPC  H13C 2556   0.792   3.159  11.476  2.1790 -1.3698  0.7776
   20SAPC   C14 2557   0.881   3.367  11.231 -0.5215  0.0403  0.1666
   20SAPC  H14A 2558   0.951   3.369  11.149  1.1253 -0.0027  1.4983
   20SAPC  H14B 2559   0.783   3.389  11.193 -0.2953 -1.3541 -1.3497
   20SAPC  H14C 2560   0.916   3.431  11.311 -3.0072 -2.8838  3.9658
   20SAPC   C15 2561   0.777   3.142  11.227 -0.3656 -0.3262 -0.5584
   20SAPC  H15A 2562   0.780   3.046  11.277 -0.2006  0.7865  1.6914
   20SAPC  H15B 2563   0.678   3.186  11.228  0.0608  0.6388 -0.1536
   20SAPC  H15C 2564   0.800   3.125  11.123 -0.4248 -3.4471 -0.1655
   20SAPC   C11 2565   1.072   3.110  11.156 -0.3970  0.0367  0.8289
   20SAPC  H11A 2566   1.002   3.034  11.116 -0.0185 -0.3458  0.8887
   20SAPC  H11B 2567   1.169   3.061  11.179  1.3268  3.3380  1.2660
   20SAPC     P 2568   1.214   3.247  10.981  0.0397 -0.0353  0.0586
   20SAPC   O13 2569   1.201   3.368  10.903  0.1979  0.2036 -0.3126
   20SAPC   O14 2570   1.332   3.236  11.071 -0.0369  0.6241 -0.5816
   20SAPC   O12 2571   1.077   3.219  11.060  0.1940  0.5452  0.5629
   20SAPC   O11 2572   1.233   3.142  10.869  0.6583  0.0882  0.0359
   20SAPC    C1 2573   1.139   3.051  10.821  0.1551  0.3609 -0.2908
   20SAPC    HA 2574   1.188   2.953  10.807 -4.4760 -2.2672 -0.1752
   20SAPC    HB 2575   1.066   3.028  10.902 -0.9556  1.0484 -1.0700
   20SAPC    C2 2576   1.065   3.092  10.686 -0.0584 -0.1109  0.0460
   20SAPC    HS 2577   0.995   3.013  10.651  0.1710 -0.1203 -0.3984
   20SAPC   O21 2578   1.161   3.127  10.581 -0.1584  0.2658 -0.0575
   20SAPC   C21 2579   1.217   3.023  10.519  0.5549 -0.1451  0.3919
   20SAPC   O22 2580   1.189   2.907  10.545 -0.6666  0.2199  0.2169
   20SAPC   C22 2581   1.280   3.062  10.388  0.9317 -0.2300  0.0327
   20SAPC   H2R 2582   1.330   3.162  10.389  0.3889  0.0427  0.2546
   20SAPC   H2S 2583   1.362   2.988  10.372 -1.8268 -3.2497 -1.0802
   20SAPC    C3 2584   0.968   3.204  10.720  0.4124  0.1269 -0.3258
   20SAPC    HX 2585   1.039   3.285  10.749  1.0760 -0.6917  0.3500
   20SAPC    HY 2586   0.894   3.180  10.799  0.7187  0.5160  0.0864
   20SAPC   O31 2587   0.908   3.254  10.599 -0.2630  0.1012  0.0894
   20SAPC   C31 2588   0.809   3.188  10.557  0.5260 -0.5037  0.9806
   20SAPC   O32 2589   0.756   3.091  10.604 -0.2635  0.1452  0.0328
   20SAPC   C32 2590   0.777   3.233  10.418 -0.0472 -0.5221  0.3860
   20SAPC   H2X 2591   0.867   3.250  10.355  1.5871 -1.9747  2.2009
   20SAPC   H2Y 2592   0.707   3.317  10.435 -1.0799 -1.3590  0.3703
   20SAPC   C23 2593   1.185   3.045  10.265 -0.5516  1.2039 -0.5182
   20SAPC   H3R 2594   1.102   3.118  10.253 -0.6303  1.9454  3.4361
   20SAPC   H3S 2595   1.137   2.947  10.284  1.4056  0.3296  0.1305
   20SAPC   C24 2596   1.261   3.047  10.132 -0.0144  0.3896 -0.1410
   20SAPC   H4R 2597   1.197   3.009  10.049  0.6545 -0.6005 -0.2247
   20SAPC   H4S 2598   1.343   2.973  10.127  0.1996  0.6363 -0.2859
   20SAPC   C25 2599   1.320   3.180  10.099  0.0077 -0.4560  0.3479
   20SAPC   H5R 2600   1.327   3.245  10.187 -0.0470  0.8496 -0.5802
   20SAPC   C26 2601   1.386   3.222   9.989 -0.9813 -0.5964 -0.8140
   20SAPC   H6R 2602   1.411   3.328   9.977 -0.1928 -0.7636 -0.6817
   20SAPC   C27 2603   1.416   3.142   9.865 -0.1170 -0.4737  0.6186
   20SAPC   H7R 2604   1.390   3.036   9.887 -0.3898 -0.5637 -0.1298
   20SAPC   H7S 2605   1.524   3.140   9.841  0.8480  4.6793  3.1624
   20SAPC   C28 2606   1.335   3.193   9.746  0.1673 -0.1837 -0.3924
   20SAPC   H8R 2607   1.226   3.203   9.755  0.2102  2.4918 -2.0208
   20SAPC   C29 2608   1.383   3.193   9.623  0.1995 -0.4825  0.7190
   20SAPC   H9R 2609   1.315   3.227   9.544 -1.3492 -0.7130  1.9109
   20SAPC  C210 2610   1.520   3.163   9.573  0.0312 -0.1362 -0.1155
   20SAPC  H10R 2611   1.588   3.113   9.645  2.5096  1.5383 -1.1407
   20SAPC  H10S 2612   1.575   3.259   9.557  0.6996 -0.4969 -0.0148
   20SAPC  C211 2613   1.513   3.078   9.454  0.5681  0.6530 -0.0371
   20SAPC  H11R 2614   1.537   2.973   9.476 -2.0622 -0.1146 -0.4789
   20SAPC  C212 2615   1.485   3.120   9.329 -0.1993 -0.1019  0.1888
   20SAPC  H12R 2616   1.492   3.045   9.248  0.7667  0.2678 -0.0787
   20SAPC  C213 2617   1.457   3.262   9.289 -0.0800  0.5416  0.7848
   20SAPC  H13R 2618   1.433   3.327   9.377 -0.4426  1.3381  0.1086
   20SAPC  H13S 2619   1.364   3.251   9.230 -1.4605 -0.5553  3.0426
   20SAPC  C214 2620   1.572   3.332   9.216 -0.4592 -0.7767 -0.1820
   20SAPC  H14R 2621   1.656   3.266   9.192 -0.6377 -0.0613 -3.0735
   20SAPC  C215 2622   1.569   3.460   9.180  0.0812 -0.3326  0.8178
   20SAPC  H15R 2623   1.660   3.500   9.134  0.5550 -1.8429  0.3717
   20SAPC  C216 2624   1.454   3.559   9.198  0.5630 -0.1161  0.5196
   20SAPC  H16R 2625   1.481   3.616   9.289  0.8049  1.5062 -0.5281
   20SAPC  H16S 2626   1.354   3.511   9.209  0.7968 -0.4038  1.4634
   20SAPC  C217 2627   1.441   3.647   9.072  1.0313 -0.0693  0.3808
   20SAPC  H17R 2628   1.533   3.695   9.033 -0.0418  0.6322 -1.4160
   20SAPC  H17S 2629   1.376   3.734   9.097  0.3953 -0.6916  0.9391
   20SAPC  C218 2630   1.374   3.574   8.953  0.2569 -0.2569  0.4219
   20SAPC  H18R 2631   1.270   3.541   8.976  0.4188 -2.6330 -1.8109
   20SAPC  H18S 2632   1.433   3.482   8.937  0.2136 -0.2871  0.4385
   20SAPC  C219 2633   1.381   3.665   8.832  0.4547  0.1989 -0.0654
   20SAPC  H19R 2634   1.480   3.674   8.783  1.0137 -0.8208  0.8257
   20SAPC  H19S 2635   1.344   3.765   8.864 -0.2672  0.0241 -0.3354
   20SAPC  C220 2636   1.281   3.619   8.724  0.0955 -0.4504 -0.2467
   20SAPC  H20R 2637   1.326   3.535   8.668 -0.7592 -2.2700  1.6734
   20SAPC  H20S 2638   1.255   3.705   8.658 -0.1742 -1.0988 -0.9937
   20SAPC  H20T 2639   1.191   3.580   8.775 -0.1779 -0.7394 -0.9369
   20SAPC   C33 2640   0.687   3.127  10.347 -0.6592  0.2827 -0.1826
   20SAPC   H3X 2641   0.584   3.124  10.389 -0.7021  2.2414 -0.0880
   20SAPC   H3Y 2642   0.739   3.029  10.338  1.2455  1.3921 -2.1873
   20SAPC   C34 2643   0.674   3.171  10.201 -0.2252 -0.6429  0.5429
   20SAPC   H4X 2644   0.775   3.181  10.157  0.0651  3.5262  1.7974
   20SAPC   H4Y 2645   0.637   3.275  10.199  1.2006 -0.1251 -1.2306
   20SAPC   C35 2646   0.592   3.079  10.109 -0.0704 -0.3949 -0.8805
   20SAPC   H5X 2647   0.488   3.114  10.098  0.0803  0.2290 -0.3539
   20SAPC   H5Y 2648   0.588   2.974  10.144 -1.0087 -0.0507  0.0755
   20SAPC   C36 2649   0.660   3.084   9.973  0.0936 -0.2375  0.2047
   20SAPC   H6X 2650   0.765   3.048   9.981 -0.0624 -1.3998 -2.2254
   20SAPC   H6Y 2651   0.656   3.185   9.927  2.7620 -0.0542  0.2106
   20SAPC   C37 2652   0.596   2.979   9.874 -0.5020 -0.1850 -1.1015
   20SAPC   H7X 2653   0.491   2.999   9.844 -0.3149  1.9294 -0.5074
   20SAPC   H7Y 2654   0.598   2.879   9.922 -0.6509  0.6331  0.6953
   20SAPC   C38 2655   0.679   2.971   9.742  0.1914  0.7740  0.3058
   20SAPC   H8X 2656   0.654   2.873   9.696 -1.0384  0.5373  1.4142
   20SAPC   H8Y 2657   0.784   2.969   9.779 -0.3697  1.4235  2.0444
   20SAPC   C39 2658   0.643   3.091   9.646 -0.4036 -0.3958 -0.6473
   20SAPC   H9X 2659   0.658   3.182   9.707  1.5544 -0.4871 -0.9035
   20SAPC   H9Y 2660   0.540   3.073   9.608 -0.3513  0.0070 -0.9797
   20SAPC  C310 2661   0.743   3.099   9.529 -0.6077  0.3801  0.0248
   20SAPC  H10X 2662   0.762   2.998   9.488 -2.2607 -0.0166  0.1950
   20SAPC  H10Y 2663   0.840   3.145   9.557 -1.6445  3.2110 -0.6872
   20SAPC  C311 2664   0.686   3.194   9.419  0.2603  0.4057 -0.2092
   20SAPC  H11X 2665   0.669   3.293   9.466 -0.2174  0.2522 -0.0518
   20SAPC  H11Y 2666   0.585   3.158   9.390  0.7951 -0.5083 -0.9886
   20SAPC  C312 2667   0.778   3.198   9.292  0.3300  0.0985  0.3484
   20SAPC  H12X 2668   0.774   3.101   9.237  0.0479  1.2118 -1.7138
   20SAPC  H12Y 2669   0.878   3.205   9.339  0.7706 -0.4070 -0.4822
   20SAPC  C313 2670   0.727   3.304   9.194 -0.1566 -0.2577  0.2706
   20SAPC  H13X 2671   0.753   3.406   9.230  0.3661 -0.3305  0.1079
   20SAPC  H13Y 2672   0.621   3.286   9.165 -0.2357  0.8808 -0.2227
   20SAPC  C314 2673   0.796   3.280   9.057  0.5073 -0.0068  0.5075
   20SAPC  H14X 2674   0.784   3.370   8.993 -1.2275 -0.4607  0.1549
   20SAPC  H14Y 2675   0.744   3.191   9.015  1.9371  0.2430 -2.0439
   20SAPC  C315 2676   0.951   3.253   9.067 -0.2624  0.6722 -0.1747
   20SAPC  H15X 2677   0.979   3.161   9.123  0.6427  0.1993 -1.3618
   20SAPC  H15Y 2678   0.988   3.333   9.134 -0.2734 -0.1993  0.8978
   20SAPC  C316 2679   1.035   3.248   8.936 -0.0196  0.2991  0.2166
   20SAPC  H16X 2680   1.023   3.346   8.886 -1.3511  0.0388 -0.0014
   20SAPC  H16Y 2681   0.987   3.171   8.873 -1.4760  2.1548 -1.0543
   20SAPC  C317 2682   1.186   3.223   8.944  0.5694 -0.6024 -0.2934
   20SAPC  H17X 2683   1.210   3.125   8.990  0.8877 -0.4388 -0.1011
   20SAPC  H17Y 2684   1.223   3.306   9.009 -1.6864  0.9693 -0.8777
   20SAPC  C318 2685   1.256   3.240   8.811 -0.6706 -0.2828 -0.3150
   20SAPC  H18X 2686   1.365   3.243   8.832 -0.3154 -0.8677 -1.9157
   20SAPC  H18Y 2687   1.229   3.344   8.782 -1.6986 -0.8398 -1.4698
   20SAPC  H18Z 2688   1.232   3.177   8.723 -1.0457 -1.6338  0.7136
   21SAPC     N 2689   0.360   0.972  11.010  0.1350  0.2231 -0.9415
   21SAPC   C12 2690   0.428   0.861  10.927  0.6225 -0.9282  0.3661
   21SAPC  H12A 2691   0.344   0.809  10.884  1.1055  0.0843 -1.9648
   21SAPC  H12B 2692   0.472   0.782  10.987  1.8319 -1.2376 -0.8568
   21SAPC   C13 2693   0.462   1.063  11.066 -0.0083 -0.2575 -0.0347
   21SAPC  H13A 2694   0.539   1.095  10.998 -1.8816  0.1251 -2.1207
   21SAPC  H13B 2695   0.418   1.151  11.110  0.5753  0.8241 -1.5297
   21SAPC  H13C 2696   0.504   1.019  11.155 -2.4618  1.2598  2.0121
   21SAPC   C14 2697   0.255   1.046  10.933 -0.0869 -0.5035 -0.0635
   21SAPC  H14A 2698   0.196   1.101  11.005  1.9246  0.0740  1.2055
   21SAPC  H14B 2699   0.302   1.122  10.872  2.5700  0.8935  3.4406
   21SAPC  H14C 2700   0.196   0.982  10.868  0.1672  0.8171 -1.6382
   21SAPC   C15 2701   0.298   0.905  11.136  0.1843 -0.5081  1.3130
   21SAPC  H15A 2702   0.269   0.983  11.205  1.1493  0.9090  0.1826
   21SAPC  H15B 2703   0.226   0.826  11.120 -0.0336 -0.0550 -0.1141
   21SAPC  H15C 2704   0.383   0.871  11.194 -0.0098  1.9475  3.2200
   21SAPC   C11 2705   0.513   0.891  10.807 -0.5961 -0.7931  0.0779
   21SAPC  H11A 2706   0.455   0.963  10.746  0.7297 -0.3115 -0.6638
   21SAPC  H11B 2707   0.524   0.798  10.747 -3.0143  0.1269 -1.9889
   21SAPC     P 2708   0.748   0.855  10.915 -0.2087  0.2408  0.3017
   21SAPC   O13 2709   0.803   0.930  11.025  0.0434 -0.0121 -0.0893
   21SAPC   O14 2710   0.696   0.716  10.939 -0.1306 -0.5794  0.4588
   21SAPC   O12 2711   0.630   0.946  10.855  0.0516 -0.7343 -0.3444
   21SAPC   O11 2712   0.858   0.845  10.801 -0.2219  0.1677  0.2894
   21SAPC    C1 2713   0.930   0.957  10.738  0.2238 -0.2298  0.9341
   21SAPC    HA 2714   0.905   1.063  10.763 -0.7588  0.0190 -0.9225
   21SAPC    HB 2715   1.040   0.940  10.740  0.4038  0.2885 -1.4990
   21SAPC    C2 2716   0.899   0.963  10.587  0.0905 -0.9076 -0.3941
   21SAPC    HS 2717   0.949   0.879  10.535 -1.1220 -1.4450 -0.7151
   21SAPC   O21 2718   0.939   1.090  10.534 -0.0309 -0.0406  0.0255
   21SAPC   C21 2719   1.066   1.099  10.506 -0.2260 -0.5868 -0.0571
   21SAPC   O22 2720   1.148   1.006  10.502  0.1266  0.2540 -0.0745
   21SAPC   C22 2721   1.099   1.245  10.464  0.1632 -0.1697  0.5026
   21SAPC   H2R 2722   1.022   1.277  10.391 -0.2112 -2.1554 -0.0296
   21SAPC   H2S 2723   1.102   1.303  10.558 -0.7429 -2.0930  1.7795
   21SAPC    C3 2724   0.750   0.935  10.541  0.4631 -0.3714  0.7702
   21SAPC    HX 2725   0.668   0.995  10.584 -1.6589 -1.1539 -1.8870
   21SAPC    HY 2726   0.732   0.834  10.584 -0.9398  0.5978  2.6055
   21SAPC   O31 2727   0.747   0.927  10.391  0.6324 -0.5917 -0.0269
   21SAPC   C31 2728   0.663   1.015  10.329 -0.3100  0.2046 -0.1104
   21SAPC   O32 2729   0.586   1.084  10.386  0.7938 -0.6436  0.2048
   21SAPC   C32 2730   0.703   1.024  10.184 -0.3650  0.2017  0.1081
   21SAPC   H2X 2731   0.739   0.929  10.139 -0.7235 -0.3380  0.9241
   21SAPC   H2Y 2732   0.778   1.106  10.176 -0.2381  0.1768  0.9097
   21SAPC   C23 2733   1.241   1.243  10.399 -0.8522  0.2893  0.0424
   21SAPC   H3R 2734   1.244   1.155  10.331 -1.4492  0.4286 -0.1673
   21SAPC   H3S 2735   1.309   1.217  10.483  0.1181  0.4805 -0.6717
   21SAPC   C24 2736   1.297   1.378  10.337 -0.0792  0.3278 -0.5811
   21SAPC   H4R 2737   1.404   1.362  10.311  0.0430  0.6236 -0.2739
   21SAPC   H4S 2738   1.298   1.454  10.418  2.2611  0.2902 -0.5121
   21SAPC   C25 2739   1.214   1.437  10.224  0.0239 -0.3075 -0.4057
   21SAPC   H5R 2740   1.111   1.462  10.253 -0.5867 -1.2801 -1.6289
   21SAPC   C26 2741   1.249   1.459  10.097 -0.5802  0.0158  0.4471
   21SAPC   H6R 2742   1.160   1.487  10.040 -0.4526 -1.3481 -0.4776
   21SAPC   C27 2743   1.377   1.428  10.022 -0.2649  0.4032 -0.0952
   21SAPC   H7R 2744   1.457   1.397  10.092 -0.3277  0.6031  0.0650
   21SAPC   H7S 2745   1.409   1.521   9.970 -0.7871  1.5473  1.5528
   21SAPC   C28 2746   1.346   1.314   9.932  0.0144  0.7048  0.3200
   21SAPC   H8R 2747   1.327   1.216   9.980  1.1563 -0.3609 -1.2732
   21SAPC   C29 2748   1.352   1.316   9.793 -0.2085  0.3527 -0.7312
   21SAPC   H9R 2749   1.319   1.230   9.733  1.1971 -1.7513  1.3541
   21SAPC  C210 2750   1.412   1.419   9.704  0.5053 -0.5116  0.7128
   21SAPC  H10R 2751   1.477   1.489   9.760 -0.5514  0.4441  0.7639
   21SAPC  H10S 2752   1.337   1.492   9.667  1.6043  0.0009 -0.6069
   21SAPC  C211 2753   1.496   1.383   9.580  0.1467  0.6907  0.1556
   21SAPC  H11R 2754   1.600   1.369   9.612  0.2322  0.9501 -0.0032
   21SAPC  C212 2755   1.453   1.354   9.452  0.2298 -0.4843  0.0585
   21SAPC  H12R 2756   1.536   1.337   9.382  1.2613  1.3203  0.8028
   21SAPC  C213 2757   1.316   1.350   9.396  1.1181  0.2498 -0.6710
   21SAPC  H13R 2758   1.286   1.452   9.363 -0.6687 -0.4738 -1.4025
   21SAPC  H13S 2759   1.258   1.319   9.485  2.2319  4.3612  1.7096
   21SAPC  C214 2760   1.309   1.248   9.283  0.4758  0.0872  0.1475
   21SAPC  H14R 2761   1.371   1.158   9.299  2.1230  1.2477  0.5521
   21SAPC  C215 2762   1.241   1.264   9.166 -0.3085 -0.0647 -0.2965
   21SAPC  H15R 2763   1.263   1.193   9.085  1.5121  0.0498  0.0385
   21SAPC  C216 2764   1.162   1.389   9.124  0.3485 -0.7604  1.0231
   21SAPC  H16R 2765   1.133   1.433   9.222 -0.0205 -1.0391  1.0398
   21SAPC  H16S 2766   1.068   1.362   9.073  1.2810  0.9407 -1.7831
   21SAPC  C217 2767   1.224   1.493   9.033  0.0414  0.7852  0.1211
   21SAPC  H17R 2768   1.322   1.523   9.075  1.6869 -2.2714 -1.2176
   21SAPC  H17S 2769   1.152   1.576   9.015  0.4702  1.2818  0.6613
   21SAPC  C218 2770   1.243   1.433   8.889 -0.0730  0.6286 -0.0353
   21SAPC  H18R 2771   1.153   1.390   8.840 -0.2370 -1.7208  2.0786
   21SAPC  H18S 2772   1.315   1.348   8.896  0.3653  1.1242  3.3286
   21SAPC  C219 2773   1.316   1.534   8.796 -0.5672 -0.4790 -0.1815
   21SAPC  H19R 2774   1.423   1.531   8.829 -0.0984 -1.4462 -1.6833
   21SAPC  H19S 2775   1.280   1.639   8.805  2.0921  0.7839 -2.6851
   21SAPC  C220 2776   1.300   1.488   8.649 -0.1736 -0.8028  0.0968
   21SAPC  H20R 2777   1.348   1.547   8.568  0.9112 -2.3915 -0.4726
   21SAPC  H20S 2778   1.197   1.484   8.606 -0.8282  1.1592  1.3315
   21SAPC  H20T 2779   1.339   1.384   8.647  1.2200 -0.3765  2.1539
   21SAPC   C33 2780   0.573   1.052  10.101 -0.5419  0.5713  0.9681
   21SAPC   H3X 2781   0.520   1.143  10.137 -0.8529  1.1808 -0.9281
   21SAPC   H3Y 2782   0.507   0.964  10.116 -1.2906  1.2428  1.7171
   21SAPC   C34 2783   0.601   1.082   9.956  0.0541  0.1608 -0.5512
   21SAPC   H4X 2784   0.699   1.133   9.954 -0.0572  0.4750  0.8383
   21SAPC   H4Y 2785   0.527   1.159   9.925  0.4855  0.7978 -0.0067
   21SAPC   C35 2786   0.585   0.961   9.866 -0.4116  0.6798  0.3716
   21SAPC   H5X 2787   0.492   0.909   9.895  1.3265 -0.3693  4.8889
   21SAPC   H5Y 2788   0.668   0.887   9.869 -0.0986  0.6770 -3.3534
   21SAPC   C36 2789   0.572   1.006   9.718  0.2706  0.5371  0.6484
   21SAPC   H6X 2790   0.664   1.059   9.686 -0.5531  1.8106  0.3149
   21SAPC   H6Y 2791   0.484   1.074   9.716 -0.8747 -0.8591  1.3796
   21SAPC   C37 2792   0.534   0.886   9.628 -0.0975 -0.0646 -0.4005
   21SAPC   H7X 2793   0.461   0.816   9.674 -0.4100 -1.6972 -3.1123
   21SAPC   H7Y 2794   0.615   0.810   9.623  0.7198  0.8328 -1.2942
   21SAPC   C38 2795   0.478   0.930   9.495  0.6460 -0.5377  0.2099
   21SAPC   H8X 2796   0.567   0.977   9.448  2.2959 -3.7913 -0.1525
   21SAPC   H8Y 2797   0.392   1.000   9.508  0.3349 -0.7488 -0.6734
   21SAPC   C39 2798   0.445   0.813   9.398 -0.0443  0.0777 -0.2621
   21SAPC   H9X 2799   0.512   0.727   9.420  1.4741  1.2186 -0.2802
   21SAPC   H9Y 2800   0.454   0.842   9.291  0.1562  0.6984 -0.0799
   21SAPC  C310 2801   0.302   0.768   9.424 -0.1445 -0.5263  0.5104
   21SAPC  H10X 2802   0.235   0.829   9.359  0.8054 -0.7791 -0.7588
   21SAPC  H10Y 2803   0.285   0.788   9.532 -1.2497  0.6112  0.1552
   21SAPC  C311 2804   0.279   0.618   9.398 -0.6425 -0.4834 -0.2876
   21SAPC  H11X 2805   0.173   0.599   9.425 -0.8009 -0.6231 -0.9780
   21SAPC  H11Y 2806   0.342   0.560   9.469  1.8981  0.4499 -1.6344
   21SAPC  C312 2807   0.313   0.570   9.260  0.0640  0.5744  0.1406
   21SAPC  H12X 2808   0.417   0.596   9.231  0.8803 -0.3859  2.0473
   21SAPC  H12Y 2809   0.225   0.610   9.206 -1.8168  0.8313  3.1912
   21SAPC  C313 2810   0.307   0.417   9.242  0.1609 -0.5005 -0.3459
   21SAPC  H13X 2811   0.201   0.389   9.257 -0.6021  1.8678 -0.8564
   21SAPC  H13Y 2812   0.371   0.366   9.317 -3.4492 -2.4613  1.6750
   21SAPC  C314 2813   0.345   0.378   9.095 -0.0424  0.8737 -0.1352
   21SAPC  H14X 2814   0.449   0.414   9.077  0.5840  2.1877  4.7347
   21SAPC  H14Y 2815   0.278   0.428   9.022 -1.9349 -1.6537 -0.2788
   21SAPC  C315 2816   0.346   0.226   9.068  0.1745  0.2651 -0.8620
   21SAPC  H15X 2817   0.247   0.186   9.099  0.2378  0.9490  0.2812
   21SAPC  H15Y 2818   0.428   0.178   9.126 -0.6101 -1.3203 -1.0351
   21SAPC  C316 2819   0.365   0.211   8.921 -0.1259  0.9409 -0.3889
   21SAPC  H16X 2820   0.466   0.249   8.893  0.4151 -0.4596 -0.4025
   21SAPC  H16Y 2821   0.293   0.273   8.863  1.0128  3.7986  1.0494
   21SAPC  C317 2822   0.356   0.067   8.876  0.4450  0.1190  0.1373
   21SAPC  H17X 2823   0.436   0.003   8.918  0.7103 -1.3849 -2.3986
   21SAPC  H17Y 2824   0.373   0.054   8.767  0.9040  1.4270  0.0341
   21SAPC  C318 2825   0.210   0.000   8.903 -0.2750 -0.0929  0.3877
   21SAPC  H18X 2826   0.164   0.020   9.002 -1.1186  1.3208 -0.2697
   21SAPC  H18Y 2827   0.212  -0.109   8.885  1.4726 -0.7260  3.5681
   21SAPC  H18Z 2828   0.141   0.042   8.827 -1.8878 -2.7803  0.2485
   22SAPC     N 2829   1.023   0.643  11.081 -0.6956  0.3629  0.5202
   22SAPC   C12 2830   1.153   0.572  11.120 -0.5166  0.0283  0.7543
   22SAPC  H12A 2831   1.226   0.643  11.156 -0.1849 -0.5591  1.2617
   22SAPC  H12B 2832   1.209   0.540  11.033 -1.1626  0.3411  0.2175
   22SAPC   C13 2833   0.939   0.544  11.014  0.0591  0.4115 -0.3222
   22SAPC  H13A 2834   0.976   0.523  10.914  0.2421  0.0071 -0.1709
   22SAPC  H13B 2835   0.929   0.458  11.078  1.9400 -2.0079 -3.0173
   22SAPC  H13C 2836   0.839   0.583  11.001 -0.7686 -1.4368  0.0622
   22SAPC   C14 2837   0.954   0.703  11.196  0.1620 -0.1907 -0.1242
   22SAPC  H14A 2838   0.889   0.788  11.178  0.1232 -0.2245 -0.1437
   22SAPC  H14B 2839   0.902   0.623  11.246 -0.9966  0.5905 -0.0365
   22SAPC  H14C 2840   1.031   0.741  11.262  1.0737 -0.7060 -0.8698
   22SAPC   C15 2841   1.075   0.739  10.986 -0.8222 -0.0212 -0.1309
   22SAPC  H15A 2842   1.125   0.685  10.907  0.7216  1.5769 -0.3314
   22SAPC  H15B 2843   0.998   0.795  10.934 -2.3529 -0.5658  1.4710
   22SAPC  H15C 2844   1.143   0.808  11.034  0.3623  0.5108 -2.4310
   22SAPC   C11 2845   1.137   0.454  11.222  0.2226 -0.4812 -1.3447
   22SAPC  H11A 2846   1.080   0.495  11.308  0.6146 -1.4650 -0.5941
   22SAPC  H11B 2847   1.233   0.427  11.272 -0.9958 -0.1146  1.4023
   22SAPC     P 2848   1.139   0.245  11.052  0.0653  0.1982 -0.0112
   22SAPC   O13 2849   1.279   0.288  11.035 -0.8636  0.4355  0.3589
   22SAPC   O14 2850   1.111   0.105  11.095  0.1538  1.0454  0.2066
   22SAPC   O12 2851   1.074   0.342  11.163  0.6233 -0.1666 -0.0129
   22SAPC   O11 2852   1.058   0.279  10.916  0.0019  0.2965 -0.1364
   22SAPC    C1 2853   0.920   0.251  10.895  0.7576  0.7339 -0.4554
   22SAPC    HA 2854   0.844   0.279  10.970 -0.4188  0.7252 -1.6070
   22SAPC    HB 2855   0.900   0.300  10.797  1.2054 -0.8127 -1.3585
   22SAPC    C2 2856   0.904   0.106  10.849  0.0064  0.5568 -0.2016
   22SAPC    HS 2857   0.911   0.047  10.943 -0.4706  3.4032  1.7409
   22SAPC   O21 2858   1.009   0.075  10.755  0.6882 -0.2656 -0.1045
   22SAPC   C21 2859   1.036  -0.048  10.746  0.0531  0.1548  0.0448
   22SAPC   O22 2860   1.012  -0.133  10.829 -0.1184  0.3268  0.0810
   22SAPC   C22 2861   1.114  -0.069  10.615 -0.3105  0.1363 -0.4380
   22SAPC   H2R 2862   1.168   0.023  10.584 -1.2297  0.9156  0.2304
   22SAPC   H2S 2863   1.178  -0.157  10.641 -0.7123 -0.0795 -0.1672
   22SAPC    C3 2864   0.764   0.082  10.792  0.3094 -0.9264  0.9324
   22SAPC    HX 2865   0.697   0.075  10.880  1.0199 -1.0197  1.4729
   22SAPC    HY 2866   0.758  -0.022  10.754  0.1102 -0.8582  0.7748
   22SAPC   O31 2867   0.712   0.186  10.709  0.6058  0.4211 -0.2420
   22SAPC   C31 2868   0.613   0.150  10.632 -0.3785  0.0808  0.9667
   22SAPC   O32 2869   0.555   0.041  10.640  0.1127 -0.0193  0.2973
   22SAPC   C32 2870   0.593   0.248  10.517  0.5065 -0.5789 -0.2400
   22SAPC   H2X 2871   0.586   0.352  10.555  1.6147 -0.3043 -0.7454
   22SAPC   H2Y 2872   0.498   0.229  10.463  0.6649 -1.1716 -0.3161
   22SAPC   C23 2873   1.033  -0.111  10.486 -0.3252  0.4137 -0.0074
   22SAPC   H3R 2874   0.971  -0.027  10.450  0.0353  1.5237  1.8617
   22SAPC   H3S 2875   0.962  -0.194  10.508 -1.9750  1.9460  0.7236
   22SAPC   C24 2876   1.131  -0.165  10.381 -0.3376  0.3521  0.5630
   22SAPC   H4R 2877   1.200  -0.082  10.357  1.4960 -0.9393  1.0998
   22SAPC   H4S 2878   1.076  -0.183  10.286 -1.7157 -2.8042  1.8023
   22SAPC   C25 2879   1.210  -0.287  10.414  0.4373 -0.0519  0.6948
   22SAPC   H5R 2880   1.159  -0.384  10.422 -1.5769  0.7907 -1.1182
   22SAPC   C26 2881   1.345  -0.290  10.429 -0.1420  0.1975 -0.5090
   22SAPC   H6R 2882   1.387  -0.392  10.438 -1.2767 -0.2550 -0.1670
   22SAPC   C27 2883   1.435  -0.174  10.426 -0.7791  0.3235  0.5751
   22SAPC   H7R 2884   1.504  -0.192  10.511 -1.6972 -2.5232  0.8061
   22SAPC   H7S 2885   1.384  -0.075  10.436 -0.0706  0.7659 -0.0163
   22SAPC   C28 2886   1.525  -0.171  10.310 -0.0488 -0.2024  0.5910
   22SAPC   H8R 2887   1.616  -0.232  10.312  0.0387 -0.0522  1.5138
   22SAPC   C29 2888   1.510  -0.099  10.198  0.0197  0.6329 -0.4404
   22SAPC   H9R 2889   1.582  -0.123  10.119 -1.4846 -1.2106 -1.3165
   22SAPC  C210 2890   1.404   0.002  10.164  0.1892  0.3496  0.0025
   22SAPC  H10R 2891   1.357   0.049  10.252 -0.2743 -0.2654  0.0937
   22SAPC  H10S 2892   1.314  -0.057  10.138 -0.1126  0.5571  0.5714
   22SAPC  C211 2893   1.435   0.104  10.052 -0.2585  0.2639 -0.7096
   22SAPC  H11R 2894   1.438   0.210  10.084  1.3995  0.3815 -1.1348
   22SAPC  C212 2895   1.467   0.069   9.929  0.0205  0.7855 -0.1864
   22SAPC  H12R 2896   1.510   0.142   9.860  0.2194  0.7500 -0.0986
   22SAPC  C213 2897   1.467  -0.078   9.879  0.0169 -0.4938 -0.4150
   22SAPC  H13R 2898   1.389  -0.074   9.800 -0.5340 -1.1634  0.0740
   22SAPC  H13S 2899   1.429  -0.152   9.953 -1.0224  1.0450  0.6519
   22SAPC  C214 2900   1.594  -0.138   9.828  0.0139 -0.1352 -0.5231
   22SAPC  H14R 2901   1.681  -0.122   9.893 -2.3556  0.5902  2.7533
   22SAPC  C215 2902   1.605  -0.197   9.708  0.0727  0.4911  0.3409
   22SAPC  H15R 2903   1.703  -0.238   9.678 -0.7294 -0.0291 -1.7252
   22SAPC  C216 2904   1.505  -0.227   9.601  0.5686 -0.2433  0.1437
   22SAPC  H16R 2905   1.446  -0.138   9.572 -1.5379 -1.9828 -1.2690
   22SAPC  H16S 2906   1.431  -0.301   9.640  0.0941  0.2676  0.2251
   22SAPC  C217 2907   1.564  -0.291   9.473 -0.1915 -0.1251 -0.0688
   22SAPC  H17R 2908   1.482  -0.338   9.414  0.4225 -0.4452 -0.6811
   22SAPC  H17S 2909   1.627  -0.380   9.493  1.1104 -0.0003 -3.0207
   22SAPC  C218 2910   1.644  -0.198   9.380  0.1128  0.2182  0.5233
   22SAPC  H18R 2911   1.731  -0.151   9.429  2.5668 -2.5216 -0.8934
   22SAPC  H18S 2912   1.573  -0.124   9.336  0.3391 -0.2715 -0.6971
   22SAPC  C219 2913   1.715  -0.273   9.270 -0.5417  0.3465 -0.1497
   22SAPC  H19R 2914   1.645  -0.342   9.219  1.2671  0.5249 -3.1718
   22SAPC  H19S 2915   1.793  -0.337   9.316 -0.2253  1.6653  1.2331
   22SAPC  C220 2916   1.790  -0.199   9.164  0.1770 -0.5733  0.1796
   22SAPC  H20R 2917   1.865  -0.134   9.213  0.5147 -1.1195  0.3954
   22SAPC  H20S 2918   1.725  -0.129   9.106  0.6795 -0.8717 -0.7579
   22SAPC  H20T 2919   1.850  -0.254   9.089  0.5429 -1.1613  0.8911
   22SAPC   C33 2920   0.708   0.274  10.414  0.2170  0.4058 -0.3566
   22SAPC   H3X 2921   0.675   0.345  10.335  0.9308 -0.8538 -1.8481
   22SAPC   H3Y 2922   0.736   0.183  10.357 -0.9696  0.6003 -1.2935
   22SAPC   C34 2923   0.844   0.341  10.462  0.7471 -0.3805 -0.2886
   22SAPC   H4X 2924   0.894   0.288  10.546 -0.6101  1.6400  1.9113
   22SAPC   H4Y 2925   0.811   0.436  10.508 -3.1816 -1.6054 -0.1261
   22SAPC   C35 2926   0.927   0.376  10.340  0.3971  0.0186 -0.2972
   22SAPC   H5X 2927   1.014   0.438  10.370  1.4078 -0.0741 -2.7627
   22SAPC   H5Y 2928   0.862   0.431  10.269 -0.8909 -1.7536 -0.5558
   22SAPC   C36 2929   1.005   0.263  10.278  0.5592  0.2651 -0.4406
   22SAPC   H6X 2930   0.931   0.186  10.245  0.6640  0.5526 -1.3944
   22SAPC   H6Y 2931   1.065   0.211  10.355 -0.5779  0.8590  0.8912
   22SAPC   C37 2932   1.082   0.308  10.154  0.5939 -0.2712  0.0402
   22SAPC   H7X 2933   1.156   0.227  10.132 -1.3300 -2.2351  0.4328
   22SAPC   H7Y 2934   1.140   0.401  10.174 -0.7048  0.3579  0.9590
   22SAPC   C38 2935   0.988   0.351  10.038 -0.4339  0.1267  0.3008
   22SAPC   H8X 2936   0.937   0.442  10.078  0.1532 -0.2351  1.9656
   22SAPC   H8Y 2937   0.911   0.272  10.026 -0.9660  0.9122 -1.8061
   22SAPC   C39 2938   1.053   0.354   9.899  0.0011 -0.6646 -0.5861
   22SAPC   H9X 2939   1.129   0.435   9.902 -1.0135  0.3545  3.0033
   22SAPC   H9Y 2940   0.975   0.393   9.830 -0.1660  0.3380  0.1439
   22SAPC  C310 2941   1.121   0.230   9.849  0.1652 -0.0139  0.5406
   22SAPC  H10X 2942   1.055   0.143   9.871 -1.5813  0.7340 -1.4450
   22SAPC  H10Y 2943   1.208   0.218   9.917 -1.7896 -1.7630  2.9678
   22SAPC  C311 2944   1.153   0.233   9.700  0.4307  0.7668  0.3331
   22SAPC  H11X 2945   1.219   0.320   9.679 -0.5859  2.0997  2.3606
   22SAPC  H11Y 2946   1.055   0.245   9.649 -0.3050  0.5339  1.6443
   22SAPC  C312 2947   1.224   0.107   9.656 -0.3450  0.1069  0.8465
   22SAPC  H12X 2948   1.158   0.017   9.655  0.6648 -0.6460 -0.3494
   22SAPC  H12Y 2949   1.324   0.077   9.694  0.0186 -2.7936 -1.9550
   22SAPC  C313 2950   1.260   0.119   9.507  0.5882 -0.4656  0.7188
   22SAPC  H13X 2951   1.174   0.172   9.462  0.0511 -0.5942  1.5829
   22SAPC  H13Y 2952   1.276   0.026   9.448  3.1736  0.6842 -0.5724
   22SAPC  C314 2953   1.384   0.198   9.484 -0.1623 -0.4643  0.5542
   22SAPC  H14X 2954   1.478   0.163   9.532 -0.1139  0.8312  1.4549
   22SAPC  H14Y 2955   1.374   0.297   9.534  1.5859 -0.0506  0.1660
   22SAPC  C315 2956   1.412   0.229   9.334  0.2717 -0.0448 -0.1865
   22SAPC  H15X 2957   1.480   0.150   9.295 -0.7602 -0.1509 -1.8826
   22SAPC  H15Y 2958   1.482   0.314   9.322 -1.6398  1.5459 -0.5769
   22SAPC  C316 2959   1.293   0.268   9.242  0.2814  0.6039 -0.3524
   22SAPC  H16X 2960   1.232   0.346   9.294 -0.2118  0.1214 -0.2065
   22SAPC  H16Y 2961   1.226   0.183   9.219 -0.7335  2.0174 -3.0917
   22SAPC  C317 2962   1.344   0.323   9.108  0.0280 -0.1117  0.0634
   22SAPC  H17X 2963   1.376   0.234   9.052  0.6249  0.2014 -0.1037
   22SAPC  H17Y 2964   1.431   0.390   9.127 -1.0603  1.0404  1.1695
   22SAPC  C318 2965   1.239   0.401   9.027  0.4918  0.0218  0.1493
   22SAPC  H18X 2966   1.267   0.423   8.922  3.7471  1.5244  1.2259
   22SAPC  H18Y 2967   1.223   0.501   9.073  0.4471  0.3784 -0.6221
   22SAPC  H18Z 2968   1.142   0.348   9.017  0.3493  0.4248 -0.7616
   23SAPC     N 2969   1.765   0.941  10.955  0.2632  0.0525 -0.0635
   23SAPC   C12 2970   1.820   0.868  10.839  0.4580  0.0744 -0.6218
   23SAPC  H12A 2971   1.864   0.945  10.777 -0.1509  4.5845  3.8980
   23SAPC  H12B 2972   1.736   0.824  10.788 -0.8387  1.4660  0.2426
   23SAPC   C13 2973   1.694   0.849  11.045  0.3948  0.0061  0.4798
   23SAPC  H13A 2974   1.610   0.801  10.995 -1.2210  2.8951  0.1942
   23SAPC  H13B 2975   1.767   0.782  11.088  0.2973 -1.3642 -1.3866
   23SAPC  H13C 2976   1.657   0.902  11.132 -1.3534  1.6160 -1.1487
   23SAPC   C14 2977   1.867   1.013  11.040  0.0319 -0.2057  0.1832
   23SAPC  H14A 2978   1.821   1.054  11.129  1.6111 -0.5369  1.2000
   23SAPC  H14B 2979   1.949   0.951  11.073  0.7423  0.1324 -0.8807
   23SAPC  H14C 2980   1.905   1.103  10.992 -0.7715  0.5673  0.9726
   23SAPC   C15 2981   1.661   1.041  10.909  0.4910  0.0541  0.3874
   23SAPC  H15A 2982   1.724   1.114  10.859  0.9861 -0.6075  0.0198
   23SAPC  H15B 2983   1.587   0.999  10.843 -0.1395 -0.0900  1.1661
   23SAPC  H15C 2984   1.604   1.092  10.985  0.0561 -0.1631  0.2068
   23SAPC   C11 2985   1.919   0.752  10.883 -0.7435 -0.5773  0.7399
   23SAPC  H11A 2986   1.939   0.688  10.794 -0.6910 -0.8046  0.9126
   23SAPC  H11B 2987   1.865   0.683  10.952  0.8117 -0.5807  2.0079
   23SAPC     P 2988   2.155   0.859  10.871  0.4123  0.5935  0.5642
   23SAPC   O13 2989   2.194   0.989  10.925  0.0241 -0.2498 -0.2873
   23SAPC   O14 2990   2.264   0.761  10.877  0.1366 -0.7851 -0.7261
   23SAPC   O12 2991   2.030   0.802  10.954  0.2199 -0.2256  0.3811
   23SAPC   O11 2992   2.099   0.878  10.724  0.6030 -0.5274 -0.5108
   23SAPC    C1 2993   2.185   0.895  10.609  0.5035 -0.0362  0.2227
   23SAPC    HA 2994   2.248   0.985  10.621  0.1787  0.4087 -1.2312
   23SAPC    HB 2995   2.243   0.806  10.576 -1.6918 -1.5906  0.2639
   23SAPC    C2 2996   2.098   0.919  10.487  0.0087  0.2978  0.2625
   23SAPC    HS 2997   2.034   1.009  10.493  0.3567  0.5267  0.5929
   23SAPC   O21 2998   2.029   0.791  10.470  0.2472  0.5659  0.0648
   23SAPC   C21 2999   1.903   0.793  10.516  0.4578 -0.2485 -0.7716
   23SAPC   O22 3000   1.846   0.893  10.561 -0.3035 -0.1006  0.5155
   23SAPC   C22 3001   1.827   0.666  10.503 -0.2496  0.0140  0.4669
   23SAPC   H2R 3002   1.868   0.574  10.549 -3.8059 -3.5149 -2.6158
   23SAPC   H2S 3003   1.719   0.672  10.527 -0.2408  1.1006  0.2705
   23SAPC    C3 3004   2.190   0.941  10.358  0.1551 -0.1393 -0.2298
   23SAPC    HX 3005   2.265   0.860  10.364  1.7614  0.9148 -3.5680
   23SAPC    HY 3006   2.238   1.041  10.366  0.1564 -0.2802  2.9744
   23SAPC   O31 3007   2.112   0.936  10.233  0.2781  0.2961 -1.3163
   23SAPC   C31 3008   2.102   0.822  10.173 -0.8130 -0.7608  0.3827
   23SAPC   O32 3009   2.176   0.728  10.203  0.2208  0.1587 -0.3413
   23SAPC   C32 3010   1.994   0.825  10.070 -0.8633 -0.8580 -0.3351
   23SAPC   H2X 3011   2.037   0.887   9.988  0.6506 -0.6290  0.5980
   23SAPC   H2Y 3012   1.913   0.880  10.122 -0.5191  1.9901 -2.5340
   23SAPC   C23 3013   1.815   0.622  10.351  0.1155 -0.5227  0.4961
   23SAPC   H3R 3014   1.911   0.579  10.317  1.4568  2.1766  0.5443
   23SAPC   H3S 3015   1.806   0.716  10.293  0.1969  0.2669  1.7202
   23SAPC   C24 3016   1.692   0.532  10.328  0.2372  0.7175  0.2385
   23SAPC   H4R 3017   1.673   0.520  10.220  1.1122 -0.7002  0.2184
   23SAPC   H4S 3018   1.603   0.582  10.371  0.6532  2.7976 -1.1433
   23SAPC   C25 3019   1.720   0.399  10.382  0.3642  0.2857  0.6925
   23SAPC   H5R 3020   1.722   0.400  10.492 -0.2034  0.9268  0.7018
   23SAPC   C26 3021   1.739   0.289  10.311  0.1517 -0.4608  0.0974
   23SAPC   H6R 3022   1.757   0.194  10.363  1.8559  0.5529  1.4436
   23SAPC   C27 3023   1.712   0.273  10.160  0.1169 -0.5454  0.2057
   23SAPC   H7R 3024   1.624   0.331  10.124  0.6612  0.1111 -0.1077
   23SAPC   H7S 3025   1.696   0.167  10.133  3.6035 -1.6360  1.8052
   23SAPC   C28 3026   1.830   0.338  10.092  0.4838 -0.8952 -0.2352
   23SAPC   H8R 3027   1.901   0.390  10.159  2.8805 -2.4743 -1.4095
   23SAPC   C29 3028   1.844   0.346   9.959  0.0652  0.3637  0.5078
   23SAPC   H9R 3029   1.929   0.409   9.928  2.3922 -3.0226 -0.6510
   23SAPC  C210 3030   1.753   0.284   9.857 -0.0542 -0.7762 -0.0426
   23SAPC  H10R 3031   1.738   0.354   9.772 -0.3684 -2.5810 -1.5308
   23SAPC  H10S 3032   1.650   0.280   9.900 -0.5257  1.6429 -0.7710
   23SAPC  C211 3033   1.803   0.154   9.798  0.1860 -0.2532 -0.0170
   23SAPC  H11R 3034   1.826   0.081   9.877 -0.2957 -2.4276 -1.7985
   23SAPC  C212 3035   1.809   0.125   9.666 -0.7367  0.3183 -0.7638
   23SAPC  H12R 3036   1.853   0.026   9.645 -1.0242  0.3375 -1.4890
   23SAPC  C213 3037   1.770   0.203   9.547 -0.4282 -0.3666  0.9288
   23SAPC  H13R 3038   1.682   0.267   9.571  0.1172  0.7301  0.1162
   23SAPC  H13S 3039   1.738   0.138   9.463 -1.0913  0.2771  0.6758
   23SAPC  C214 3040   1.880   0.302   9.508  0.3839  0.0624  0.3985
   23SAPC  H14R 3041   1.926   0.364   9.586  1.9961  0.1118 -0.5411
   23SAPC  C215 3042   1.944   0.302   9.389 -0.3137 -0.3000  0.0366
   23SAPC  H15R 3043   2.009   0.390   9.378 -0.4297 -0.2048  0.1082
   23SAPC  C216 3044   1.922   0.206   9.268 -0.4462  0.6966 -0.3411
   23SAPC  H16R 3045   1.829   0.146   9.275 -0.6083  1.1479  1.9297
   23SAPC  H16S 3046   2.002   0.129   9.270  0.2156  1.3723  1.8140
   23SAPC  C217 3047   1.944   0.274   9.139 -0.3776  0.6466 -0.0239
   23SAPC  H17R 3048   2.048   0.313   9.132 -0.3050  0.9663  2.3352
   23SAPC  H17S 3049   1.881   0.365   9.139  0.0818  0.9879  1.6682
   23SAPC  C218 3050   1.899   0.196   9.008  0.5694 -0.0612 -0.4016
   23SAPC  H18R 3051   1.788   0.187   9.008  0.5341  0.1304  0.9655
   23SAPC  H18S 3052   1.933   0.091   9.015 -1.4991 -0.6694  2.4403
   23SAPC  C219 3053   1.944   0.265   8.881  0.0488  0.1266 -0.3056
   23SAPC  H19R 3054   2.043   0.314   8.895 -0.8250  1.4526  1.7701
   23SAPC  H19S 3055   1.872   0.348   8.864 -0.0701  0.1763  0.4107
   23SAPC  C220 3056   1.941   0.180   8.749  0.0149 -0.6856 -1.3744
   23SAPC  H20R 3057   1.839   0.142   8.726  0.0857 -1.1646 -0.9058
   23SAPC  H20S 3058   2.012   0.096   8.768  0.2956 -0.2764 -0.6014
   23SAPC  H20T 3059   1.983   0.255   8.678  1.7475  2.1184  2.3057
   23SAPC   C33 3060   1.942   0.689  10.019  0.1277 -0.6181 -0.3729
   23SAPC   H3X 3061   1.902   0.627  10.102 -1.0161  1.5755  0.8046
   23SAPC   H3Y 3062   2.027   0.633   9.973 -0.3019 -1.4166 -0.2082
   23SAPC   C34 3063   1.818   0.693   9.928  0.5224 -0.8428  0.2498
   23SAPC   H4X 3064   1.749   0.773   9.964  1.0149  0.2492 -1.1414
   23SAPC   H4Y 3065   1.748   0.607   9.937 -0.8401  0.2919  0.8891
   23SAPC   C35 3066   1.850   0.716   9.783 -0.3755  0.3926 -0.2773
   23SAPC   H5X 3067   1.951   0.672   9.768  0.4024  1.2202  2.1078
   23SAPC   H5Y 3068   1.871   0.825   9.772  0.2306  0.4312  1.0986
   23SAPC   C36 3069   1.740   0.668   9.686  0.3383  0.6457 -0.5353
   23SAPC   H6X 3070   1.646   0.721   9.713  0.2968  0.8363 -1.0435
   23SAPC   H6Y 3071   1.731   0.557   9.686  1.1139  0.5799 -1.1694
   23SAPC   C37 3072   1.777   0.707   9.543 -0.5479  0.0627  0.6411
   23SAPC   H7X 3073   1.880   0.684   9.509 -1.0777 -0.8684 -0.3922
   23SAPC   H7Y 3074   1.772   0.818   9.541 -1.4793  0.0190 -0.9719
   23SAPC   C38 3075   1.675   0.658   9.440 -0.3542 -0.2217 -0.7574
   23SAPC   H8X 3076   1.569   0.679   9.466 -0.0974  1.0351 -0.6498
   23SAPC   H8Y 3077   1.677   0.547   9.438 -1.2477 -0.2425 -1.7291
   23SAPC   C39 3078   1.695   0.711   9.297 -1.1049 -0.7459 -0.3947
   23SAPC   H9X 3079   1.777   0.653   9.250 -0.4537 -0.0452 -0.1458
   23SAPC   H9Y 3080   1.731   0.816   9.302  0.9670 -1.4093 -0.4485
   23SAPC  C310 3081   1.581   0.715   9.192 -0.2013  0.7000 -0.0371
   23SAPC  H10X 3082   1.506   0.793   9.218  0.1395  0.7050  0.9750
   23SAPC  H10Y 3083   1.532   0.617   9.176  0.5697 -0.2583  2.9756
   23SAPC  C311 3084   1.626   0.760   9.050  0.2135 -0.9411  0.7583
   23SAPC  H11X 3085   1.544   0.727   8.982  1.1663  1.2647 -1.5965
   23SAPC  H11Y 3086   1.724   0.734   9.006  0.4362  2.2638 -0.9156
   23SAPC  C312 3087   1.642   0.918   9.036  1.0018 -0.1058  0.1657
   23SAPC  H12X 3088   1.739   0.934   9.088  0.8694 -3.0789  1.5172
   23SAPC  H12Y 3089   1.562   0.970   9.094 -0.7439 -1.5566 -0.8397
   23SAPC  C313 3090   1.635   0.965   8.887 -0.2324  0.3170 -0.4355
   23SAPC  H13X 3091   1.703   0.899   8.829 -0.3309 -0.7472  0.6234
   23SAPC  H13Y 3092   1.688   1.062   8.885 -1.7075  1.2114  1.0129
   23SAPC  C314 3093   1.491   0.981   8.828  0.2139 -0.6228 -0.4882
   23SAPC  H14X 3094   1.436   1.038   8.907  1.3702  1.4454 -1.1070
   23SAPC  H14Y 3095   1.455   0.878   8.805 -1.5843  0.0396 -0.8054
   23SAPC  C315 3096   1.497   1.059   8.693  1.0988 -0.2194 -0.2388
   23SAPC  H15X 3097   1.493   1.170   8.701 -2.0099 -0.3022  0.7885
   23SAPC  H15Y 3098   1.400   1.032   8.646  0.0603 -1.8000  2.5545
   23SAPC  C316 3099   1.595   1.003   8.590  0.4789  0.1395 -0.6474
   23SAPC  H16X 3100   1.596   0.892   8.596  0.3913  0.2094  0.8931
   23SAPC  H16Y 3101   1.701   1.030   8.610 -0.0550  1.0394  1.1704
   23SAPC  C317 3102   1.553   1.033   8.444  0.4784 -0.6195 -0.0224
   23SAPC  H17X 3103   1.515   1.138   8.444 -2.4057 -1.5610  0.6634
   23SAPC  H17Y 3104   1.461   0.971   8.436  1.7650 -2.4803 -1.1392
   23SAPC  C318 3105   1.641   0.985   8.326  0.1558 -0.1361 -0.2178
   23SAPC  H18X 3106   1.640   0.874   8.326 -3.5012 -0.2283  0.9981
   23SAPC  H18Y 3107   1.744   1.026   8.338 -0.3242  1.0584 -0.0056
   23SAPC  H18Z 3108   1.603   1.027   8.230  1.5072  0.3868 -0.5544
   24SAPC     N 3109   3.474   1.214  11.356 -0.0518  0.1369 -0.2301
   24SAPC   C12 3110   3.422   1.238  11.220 -0.7692 -0.3317 -0.5139
   24SAPC  H12A 3111   3.441   1.339  11.188 -1.0474 -0.0315  0.2652
   24SAPC  H12B 3112   3.316   1.225  11.239 -0.1659 -1.0608  3.1209
   24SAPC   C13 3113   3.620   1.197  11.363 -0.1092  0.1317  0.3073
   24SAPC  H13A 3114   3.655   1.096  11.344 -0.9373 -0.3756  1.3555
   24SAPC  H13B 3115   3.678   1.256  11.294 -1.5832 -1.6775 -2.6852
   24SAPC  H13C 3116   3.656   1.204  11.465 -1.6264 -0.0464  0.8799
   24SAPC   C14 3117   3.440   1.339  11.441  0.2819 -0.6367  0.0964
   24SAPC  H14A 3118   3.504   1.425  11.426 -1.5497  0.8358  0.3723
   24SAPC  H14B 3119   3.339   1.376  11.433  0.6878  0.6242  0.4605
   24SAPC  H14C 3120   3.455   1.313  11.545 -1.6153  0.6569  0.7670
   24SAPC   C15 3121   3.402   1.098  11.417  1.2358  0.3077  0.6427
   24SAPC  H15A 3122   3.295   1.111  11.409  1.4754  1.6405 -1.0043
   24SAPC  H15B 3123   3.421   1.009  11.358 -1.4113 -0.6339  1.0955
   24SAPC  H15C 3124   3.429   1.070  11.517  0.3246 -1.5858  0.3955
   24SAPC   C11 3125   3.457   1.143  11.107  0.0341  0.1212 -0.0504
   24SAPC  H11A 3126   3.558   1.099  11.125 -0.0071 -0.0896 -0.3239
   24SAPC  H11B 3127   3.475   1.199  11.013  1.5962 -0.6309 -0.2240
   24SAPC     P 3128   3.215   1.080  11.036 -0.4454  0.4177  0.1638
   24SAPC   O13 3129   3.144   0.950  11.017  0.0981 -0.0910  0.1646
   24SAPC   O14 3130   3.148   1.176  11.126  0.1151 -0.9556 -0.1000
   24SAPC   O12 3131   3.358   1.041  11.087 -0.2120  0.0144 -0.0949
   24SAPC   O11 3132   3.242   1.126  10.893 -0.0308 -0.3970  0.3234
   24SAPC    C1 3133   3.336   1.058  10.808  0.4080  0.5379 -0.2181
   24SAPC    HA 3134   3.428   1.118  10.795 -0.0197  1.6320  1.3967
   24SAPC    HB 3135   3.364   0.954  10.837  0.4590  0.1014 -1.7435
   24SAPC    C2 3136   3.268   1.025  10.675  0.0478 -0.5324  0.3647
   24SAPC    HS 3137   3.337   0.961  10.616  1.7209  2.0291 -0.6468
   24SAPC   O21 3138   3.229   1.148  10.604  0.3373  0.1152 -0.3092
   24SAPC   C21 3139   3.326   1.235  10.572 -0.1969 -0.5574  0.4619
   24SAPC   O22 3140   3.445   1.216  10.596 -0.2521  0.0146  0.9416
   24SAPC   C22 3141   3.272   1.355  10.493  0.6341  0.3433 -0.0104
   24SAPC   H2R 3142   3.169   1.326  10.466  1.1758 -0.6855 -1.0603
   24SAPC   H2S 3143   3.267   1.443  10.561 -3.0354 -0.4134  0.9058
   24SAPC    C3 3144   3.133   0.955  10.684  0.5055 -0.7408  1.0515
   24SAPC    HX 3145   3.049   1.020  10.715  0.3009  0.7300 -2.1747
   24SAPC    HY 3146   3.124   0.874  10.759  0.0073  0.1718  2.0154
   24SAPC   O31 3147   3.097   0.914  10.548  0.2668 -0.8233  0.4244
   24SAPC   C31 3148   3.157   0.808  10.494 -0.1773  0.2802 -0.8619
   24SAPC   O32 3149   3.237   0.731  10.542 -0.4752 -0.3580  0.0268
   24SAPC   C32 3150   3.133   0.816  10.346  0.5526  0.7155  0.1335
   24SAPC   H2X 3151   3.035   0.773  10.317  1.9417 -1.5088 -1.6316
   24SAPC   H2Y 3152   3.220   0.758  10.307  0.5681  0.2930  0.7716
   24SAPC   C23 3153   3.364   1.392  10.372 -0.5051 -0.0995 -0.2925
   24SAPC   H3R 3154   3.468   1.400  10.408 -1.4783  0.8964  2.5542
   24SAPC   H3S 3155   3.330   1.489  10.330 -1.7540  0.0042  0.8852
   24SAPC   C24 3156   3.353   1.299  10.252 -0.4426 -0.1450  0.5729
   24SAPC   H4R 3157   3.353   1.195  10.291 -1.1573 -0.7429 -0.9415
   24SAPC   H4S 3158   3.436   1.316  10.180 -0.2312  1.6265  1.1789
   24SAPC   C25 3159   3.226   1.305  10.170 -0.3309 -0.4196 -0.3088
   24SAPC   H5R 3160   3.139   1.267  10.224  0.5638 -2.7610 -0.3954
   24SAPC   C26 3161   3.219   1.334  10.039  0.2362 -0.3650 -0.2893
   24SAPC   H6R 3162   3.121   1.345   9.990  0.6455  1.9710 -0.7127
   24SAPC   C27 3163   3.335   1.368   9.946  1.1033  0.5103  0.0072
   24SAPC   H7R 3164   3.399   1.450   9.984 -0.2513  1.8855 -0.5666
   24SAPC   H7S 3165   3.296   1.410   9.850 -0.4104 -0.3967  0.1870
   24SAPC   C28 3166   3.421   1.250   9.904 -0.0784 -1.0434  0.2894
   24SAPC   H8R 3167   3.419   1.164   9.971 -0.3251 -0.0076  1.6506
   24SAPC   C29 3168   3.497   1.248   9.796 -0.8290 -0.2701  0.3511
   24SAPC   H9R 3169   3.558   1.157   9.786 -0.4657 -0.0970  0.9393
   24SAPC  C210 3170   3.514   1.350   9.694  0.3298 -0.4408 -0.3417
   24SAPC  H10R 3171   3.616   1.335   9.651  1.6508  0.4102  2.2790
   24SAPC  H10S 3172   3.526   1.449   9.741  0.5984  0.8962 -3.0135
   24SAPC  C211 3173   3.403   1.362   9.589  0.2384  0.1104  0.6781
   24SAPC  H11R 3174   3.309   1.399   9.631  0.7970  1.2913  0.9512
   24SAPC  C212 3175   3.402   1.335   9.458 -0.3482 -0.2592 -0.0731
   24SAPC  H12R 3176   3.308   1.357   9.406 -0.4669  1.4208  0.7883
   24SAPC  C213 3177   3.512   1.290   9.369  0.1828  0.0854  0.3379
   24SAPC  H13R 3178   3.505   1.184   9.335  1.0691 -0.0040  0.4003
   24SAPC  H13S 3179   3.612   1.289   9.419 -0.2429 -1.6545  1.2779
   24SAPC  C214 3180   3.503   1.381   9.249 -0.6447 -0.4419  0.0377
   24SAPC  H14R 3181   3.524   1.489   9.256  0.0780 -0.6128  0.6000
   24SAPC  C215 3182   3.477   1.345   9.119 -0.0944 -0.1655 -0.8646
   24SAPC  H15R 3183   3.476   1.421   9.040 -3.2945  1.0198  0.1804
   24SAPC  C216 3184   3.447   1.202   9.084 -0.3913  0.3357  0.2919
   24SAPC  H16R 3185   3.392   1.148   9.163 -0.0960 -0.6298 -0.1410
   24SAPC  H16S 3186   3.551   1.163   9.072 -0.8377 -1.0871  0.8709
   24SAPC  C217 3187   3.369   1.175   8.957 -0.1233  0.1987  0.0891
   24SAPC  H17R 3188   3.273   1.230   8.968  0.4039  0.9294  1.1832
   24SAPC  H17S 3189   3.343   1.068   8.942 -0.1201  0.5422 -3.1272
   24SAPC  C218 3190   3.453   1.226   8.837  0.0899  0.3795 -0.6921
   24SAPC  H18R 3191   3.554   1.180   8.845 -1.2092 -2.3766  2.0823
   24SAPC  H18S 3192   3.473   1.335   8.848 -0.0180  0.7590 -3.5038
   24SAPC  C219 3193   3.396   1.209   8.697 -0.0382  0.1529 -0.2614
   24SAPC  H19R 3194   3.286   1.224   8.708 -0.0282  0.3686 -0.4421
   24SAPC  H19S 3195   3.415   1.113   8.645 -0.3403 -0.3703  0.5864
   24SAPC  C220 3196   3.444   1.316   8.594 -0.4043 -0.4282  0.0872
   24SAPC  H20R 3197   3.431   1.414   8.643 -0.0555  0.6653 -1.8897
   24SAPC  H20S 3198   3.383   1.317   8.500 -1.5717 -0.7198  0.8230
   24SAPC  H20T 3199   3.552   1.306   8.574 -0.4660  0.3494 -0.7040
   24SAPC   C33 3200   3.142   0.959  10.281  0.8973  0.6332  0.1314
   24SAPC   H3X 3201   3.249   0.988  10.280  1.3708 -0.7952  2.3054
   24SAPC   H3Y 3202   3.072   1.033  10.324 -1.6858 -1.4559 -0.1805
   24SAPC   C34 3203   3.104   0.959  10.134 -0.4603  0.4361  0.8209
   24SAPC   H4X 3204   3.123   1.063  10.099  0.1932  0.1486  0.3026
   24SAPC   H4Y 3205   2.998   0.932  10.117  0.2296 -3.3712  1.6947
   24SAPC   C35 3206   3.183   0.867  10.044 -0.1588 -0.1256  0.1273
   24SAPC   H5X 3207   3.164   0.763  10.079 -3.7774  0.9772  1.8568
   24SAPC   H5Y 3208   3.292   0.880  10.063 -0.1086  0.8411 -0.7485
   24SAPC   C36 3209   3.157   0.883   9.896 -0.7864 -0.0136  0.9638
   24SAPC   H6X 3210   3.120   0.986   9.880  1.9113  0.9858  0.7752
   24SAPC   H6Y 3211   3.073   0.818   9.863  0.2918 -1.4205  0.8669
   24SAPC   C37 3212   3.284   0.854   9.819 -0.1124  0.3455 -0.3620
   24SAPC   H7X 3213   3.313   0.749   9.838 -1.4292 -0.0810 -0.6544
   24SAPC   H7Y 3214   3.364   0.929   9.842  0.3523 -0.7246  1.8487
   24SAPC   C38 3215   3.237   0.871   9.669 -0.1092 -0.4764  0.5607
   24SAPC   H8X 3216   3.207   0.977   9.664 -0.4419 -0.5908  0.0892
   24SAPC   H8Y 3217   3.141   0.820   9.645 -0.3881  0.3544 -0.1357
   24SAPC   C39 3218   3.342   0.857   9.568 -0.0502  0.7011 -0.2206
   24SAPC   H9X 3219   3.392   0.759   9.581 -2.6202 -0.5388  1.1997
   24SAPC   H9Y 3220   3.403   0.949   9.580  0.2337  0.9408 -2.9144
   24SAPC  C310 3221   3.293   0.869   9.423  0.2988  0.2899 -0.1040
   24SAPC  H10X 3222   3.255   0.973   9.411 -1.6283 -0.5465 -1.9073
   24SAPC  H10Y 3223   3.210   0.796   9.428  1.2367 -0.8993 -1.1326
   24SAPC  C311 3224   3.397   0.844   9.319 -1.0660  0.1417  0.5032
   24SAPC  H11X 3225   3.459   0.758   9.352 -0.1252  0.4528 -0.4366
   24SAPC  H11Y 3226   3.468   0.928   9.306 -2.8361  1.3187 -2.7158
   24SAPC  C312 3227   3.337   0.814   9.180 -0.4086  0.3986 -0.0563
   24SAPC  H12X 3228   3.256   0.884   9.151 -0.0434  0.5522 -0.7332
   24SAPC  H12Y 3229   3.289   0.713   9.183 -1.7476  0.9421 -1.5643
   24SAPC  C313 3230   3.448   0.815   9.074  0.3118  0.3863 -0.0395
   24SAPC  H13X 3231   3.527   0.742   9.101  1.3044  0.9155 -1.4085
   24SAPC  H13Y 3232   3.501   0.912   9.076  0.9280  0.0425  0.9033
   24SAPC  C314 3233   3.384   0.777   8.935 -0.6902 -0.4940 -1.2127
   24SAPC  H14X 3234   3.299   0.847   8.919 -2.6670 -1.9820  1.8349
   24SAPC  H14Y 3235   3.356   0.669   8.936  1.8404 -1.2247  0.9310
   24SAPC  C315 3236   3.484   0.798   8.823 -0.6640  0.5264  0.4723
   24SAPC  H15X 3237   3.528   0.900   8.824  1.5293 -0.3501  0.3977
   24SAPC  H15Y 3238   3.443   0.772   8.724  0.4563 -3.3028  0.8363
   24SAPC  C316 3239   3.615   0.715   8.835  0.8021  0.2086 -0.8751
   24SAPC  H16X 3240   3.590   0.607   8.829 -1.1727  0.4930  1.0111
   24SAPC  H16Y 3241   3.661   0.734   8.935 -0.8976 -0.7166  0.1213
   24SAPC  C317 3242   3.719   0.753   8.737  0.3592  0.2798 -0.1100
   24SAPC  H17X 3243   3.716   0.864   8.729 -3.0594  0.2406 -1.0055
   24SAPC  H17Y 3244   3.686   0.729   8.634 -1.2256 -0.1052  0.4560
   24SAPC  C318 3245   3.851   0.683   8.765 -0.3035  0.3127 -0.1964
   24SAPC  H18X 3246   3.927   0.705   8.688 -0.0740 -0.6861 -0.2599
   24SAPC  H18Y 3247   3.836   0.573   8.764  0.1895  0.2452 -0.8539
   24SAPC  H18Z 3248   3.902   0.709   8.861 -3.3607 -0.1809  1.6984
   25SAPC     N 3249   6.507   6.136   6.147 -0.8437  0.2731  0.2017
   25SAPC   C12 3250   6.619   6.049   6.090 -0.3280  0.1895  0.0842
   25SAPC  H12A 3251   6.717   6.095   6.091 -0.7064  1.0456  2.2732
   25SAPC  H12B 3252   6.599   6.035   5.984  1.3170  1.2772 -0.4101
   25SAPC   C13 3253   6.544   6.170   6.292  0.0238 -0.3170  0.1000
   25SAPC  H13A 3254   6.464   6.227   6.337  0.9054  1.1029 -0.0767
   25SAPC  H13B 3255   6.567   6.082   6.351 -0.7973 -1.3219 -1.0399
   25SAPC  H13C 3256   6.637   6.226   6.290  0.1610 -0.5339  0.3363
   25SAPC   C14 3257   6.516   6.269   6.069 -0.4638  0.6771 -0.0301
   25SAPC  H14A 3258   6.432   6.331   6.097 -1.1588 -0.2033 -0.1136
   25SAPC  H14B 3259   6.611   6.313   6.096 -0.3767  0.8199 -0.5471
   25SAPC  H14C 3260   6.513   6.265   5.961 -1.9887  2.4632 -0.1171
   25SAPC   C15 3261   6.374   6.075   6.139 -0.8628  0.2675  0.3032
   25SAPC  H15A 3262   6.297   6.143   6.173  0.8688  1.6993  1.5574
   25SAPC  H15B 3263   6.342   6.051   6.038 -1.2774  1.6729  0.0779
   25SAPC  H15C 3264   6.376   5.979   6.189 -2.2731 -0.8131 -1.5729
   25SAPC   C11 3265   6.637   5.909   6.144  0.4131  0.2217 -0.3007
   25SAPC  H11A 3266   6.707   5.860   6.073 -0.1005 -0.8462 -0.0831
   25SAPC  H11B 3267   6.540   5.856   6.145  0.6637 -0.3612 -2.1963
   25SAPC     P 3268   6.839   5.905   6.311 -0.2236  0.0328 -0.0953
   25SAPC   O13 3269   6.913   5.783   6.273 -0.4465  0.3336  0.5134
   25SAPC   O14 3270   6.893   6.038   6.265  0.2803 -0.1182 -0.0637
   25SAPC   O12 3271   6.685   5.902   6.280 -0.0904 -0.3720 -0.2216
   25SAPC   O11 3272   6.851   5.905   6.469 -0.4685 -0.5294  0.2269
   25SAPC    C1 3273   6.760   5.955   6.565  0.2212  0.3948 -0.3074
   25SAPC    HA 3274   6.656   5.944   6.528 -0.5115  2.3778  1.0060
   25SAPC    HB 3275   6.759   5.887   6.653 -0.4681  0.7618 -0.0194
   25SAPC    C2 3276   6.771   6.105   6.584 -0.2125 -0.6458  0.7675
   25SAPC    HS 3277   6.777   6.155   6.485  0.6211  0.4596  1.3481
   25SAPC   O21 3278   6.888   6.128   6.659 -0.1455  0.1184  0.4152
   25SAPC   C21 3279   6.968   6.230   6.628 -0.1995  0.5400  0.1156
   25SAPC   O22 3280   6.948   6.314   6.539  0.1888  0.3836 -0.3604
   25SAPC   C22 3281   7.093   6.225   6.722 -0.6881 -0.4222 -0.2151
   25SAPC   H2R 3282   7.163   6.156   6.670 -0.5427  0.5865 -1.4173
   25SAPC   H2S 3283   7.137   6.328   6.727  0.1725 -0.8383  2.4177
   25SAPC    C3 3284   6.651   6.175   6.653 -0.4199  0.6997 -0.0004
   25SAPC    HX 3285   6.569   6.163   6.579  1.2655 -1.5763 -1.6219
   25SAPC    HY 3286   6.656   6.286   6.658 -0.3585  0.6993 -0.0526
   25SAPC   O31 3287   6.631   6.113   6.783  0.0720 -0.0606 -0.1378
   25SAPC   C31 3288   6.680   6.184   6.883  0.8022  0.5236  0.6730
   25SAPC   O32 3289   6.704   6.303   6.878 -0.1278  0.3596 -0.1452
   25SAPC   C32 3290   6.669   6.105   7.013  0.0381  0.2775  0.1131
   25SAPC   H2X 3291   6.725   6.011   6.994 -2.4045 -0.8911 -2.0077
   25SAPC   H2Y 3292   6.564   6.072   7.027  0.7058 -2.2499 -0.1819
   25SAPC   C23 3293   7.058   6.161   6.852  0.1274  0.2406 -0.3556
   25SAPC   H3R 3294   7.021   6.057   6.845  0.0704  0.3738 -2.7264
   25SAPC   H3S 3295   6.977   6.218   6.901 -0.2594  1.0166 -1.8489
   25SAPC   C24 3296   7.183   6.147   6.951  0.7139 -0.0557  0.5616
   25SAPC   H4R 3297   7.257   6.071   6.917  1.4746 -0.0088  2.0509
   25SAPC   H4S 3298   7.140   6.114   7.047 -3.3867 -0.1989 -1.1178
   25SAPC   C25 3299   7.258   6.276   6.966 -1.0695  0.1336 -0.2704
   25SAPC   H5R 3300   7.299   6.315   6.872 -1.4906  1.4973  0.0850
   25SAPC   C26 3301   7.272   6.350   7.082 -0.2992 -0.2195  0.2575
   25SAPC   H6R 3302   7.324   6.447   7.081 -0.9288  0.1321  0.8973
   25SAPC   C27 3303   7.224   6.311   7.214  0.3270  0.4059  0.1503
   25SAPC   H7R 3304   7.291   6.358   7.289 -1.1414  0.6395  1.3725
   25SAPC   H7S 3305   7.223   6.200   7.226 -0.9602  0.1212 -2.1215
   25SAPC   C28 3306   7.089   6.374   7.249  0.3375  0.2515  0.6729
   25SAPC   H8R 3307   7.051   6.452   7.182  1.2359 -0.3972 -0.6173
   25SAPC   C29 3308   7.001   6.340   7.349  0.5142 -0.2772 -0.1165
   25SAPC   H9R 3309   6.902   6.387   7.352  0.3995 -0.1320 -2.9119
   25SAPC  C210 3310   7.025   6.234   7.457 -0.9671  0.6122  0.3276
   25SAPC  H10R 3311   7.123   6.183   7.443 -1.6010 -0.3083 -0.9622
   25SAPC  H10S 3312   6.949   6.157   7.433 -0.8862  1.0387 -1.3790
   25SAPC  C211 3313   7.004   6.293   7.590  0.1943 -0.0314 -0.0265
   25SAPC  H11R 3314   7.011   6.401   7.611 -1.5222 -0.3251  2.5090
   25SAPC  C212 3315   6.981   6.227   7.706  0.3324  0.0964 -0.6601
   25SAPC  H12R 3316   6.987   6.275   7.805 -2.2771 -0.7574 -0.0189
   25SAPC  C213 3317   6.967   6.082   7.715  0.2009 -0.3363  0.1056
   25SAPC  H13R 3318   7.048   6.042   7.781  0.3771  0.8111  0.6138
   25SAPC  H13S 3319   6.975   6.019   7.624 -0.4834  1.6036 -1.3717
   25SAPC  C214 3320   6.830   6.046   7.778  0.6733  0.2046 -0.0632
   25SAPC  H14R 3321   6.749   6.116   7.752  0.3779  0.9399  2.5169
   25SAPC  C215 3322   6.807   5.955   7.872 -0.4951  0.1361 -0.1635
   25SAPC  H15R 3323   6.702   5.930   7.892 -0.1793 -0.4933  0.7665
   25SAPC  C216 3324   6.907   5.868   7.943 -0.3598  0.5917 -0.2763
   25SAPC  H16R 3325   6.966   5.935   8.009  0.6750 -1.6350  1.1988
   25SAPC  H16S 3326   6.977   5.818   7.873  0.4999 -0.0312  0.9811
   25SAPC  C217 3327   6.854   5.760   8.042 -0.7281  0.0754  0.2256
   25SAPC  H17R 3328   6.819   5.681   7.973  0.6883 -0.7420  0.4010
   25SAPC  H17S 3329   6.774   5.801   8.107 -1.2847 -0.3646 -0.1758
   25SAPC  C218 3330   6.966   5.681   8.127 -0.2175  0.3824  0.4101
   25SAPC  H18R 3331   7.022   5.754   8.191 -0.5934 -0.1652  1.3875
   25SAPC  H18S 3332   7.032   5.629   8.055 -0.8547 -1.7813  1.3047
   25SAPC  C219 3333   6.909   5.580   8.227  0.4389 -0.8716 -0.0267
   25SAPC  H19R 3334   6.852   5.504   8.169  0.0099 -1.0001  0.5602
   25SAPC  H19S 3335   6.845   5.639   8.295 -0.3673 -1.8972  0.1211
   25SAPC  C220 3336   7.027   5.517   8.302 -0.3639 -0.6051 -0.3588
   25SAPC  H20R 3337   6.980   5.427   8.347 -1.1666  0.6903  1.5324
   25SAPC  H20S 3338   7.065   5.577   8.388 -0.8258 -0.0254 -0.5495
   25SAPC  H20T 3339   7.124   5.497   8.252  0.1801 -0.8462  0.7638
   25SAPC   C33 3340   6.714   6.188   7.141 -0.3220  0.8788 -0.5255
   25SAPC   H3X 3341   6.652   6.279   7.150 -2.2141 -0.5663  2.8752
   25SAPC   H3Y 3342   6.815   6.226   7.114  0.5755 -1.2580 -0.4463
   25SAPC   C34 3343   6.696   6.109   7.277  0.6796  0.3458 -0.6400
   25SAPC   H4X 3344   6.586   6.109   7.293  0.6469 -0.2191 -0.8611
   25SAPC   H4Y 3345   6.737   6.160   7.367 -1.1271 -1.8083  1.5545
   25SAPC   C35 3346   6.753   5.967   7.276  0.1820 -0.1769 -0.2658
   25SAPC   H5X 3347   6.858   5.964   7.238  0.3883  0.4332  0.2329
   25SAPC   H5Y 3348   6.677   5.919   7.211 -1.8460  0.5448  1.4569
   25SAPC   C36 3349   6.753   5.908   7.422 -0.0115 -0.6072  0.3665
   25SAPC   H6X 3350   6.653   5.943   7.453 -0.5738  0.9452 -2.7417
   25SAPC   H6Y 3351   6.826   5.958   7.490 -0.4206 -1.3477  1.3585
   25SAPC   C37 3352   6.778   5.764   7.426 -0.1741 -0.2554  0.4950
   25SAPC   H7X 3353   6.873   5.755   7.370  0.4710  1.6826  1.1721
   25SAPC   H7Y 3354   6.697   5.714   7.370 -1.4656  2.4974 -0.2782
   25SAPC   C38 3355   6.786   5.702   7.563 -0.0707 -0.3067  0.5722
   25SAPC   H8X 3356   6.683   5.701   7.605 -0.1048 -1.2213  0.4875
   25SAPC   H8Y 3357   6.842   5.773   7.627  0.7009  0.0053 -0.4183
   25SAPC   C39 3358   6.844   5.560   7.572 -0.0843 -0.1748  0.3575
   25SAPC   H9X 3359   6.947   5.555   7.531 -0.2656  0.8814 -0.2572
   25SAPC   H9Y 3360   6.801   5.489   7.500  0.4125  1.1786 -1.3438
   25SAPC  C310 3361   6.833   5.489   7.710  0.1187 -0.1898 -0.4332
   25SAPC  H10X 3362   6.726   5.469   7.729  0.2170  0.7493  1.3356
   25SAPC  H10Y 3363   6.857   5.571   7.781 -3.7690  1.8739 -1.2300
   25SAPC  C311 3364   6.941   5.380   7.713 -0.2676 -0.9785  0.0788
   25SAPC  H11X 3365   7.038   5.424   7.682 -0.6327  0.7350  1.2588
   25SAPC  H11Y 3366   6.912   5.311   7.631  0.8379 -1.6307  0.2052
   25SAPC  C312 3367   6.950   5.303   7.847 -0.3076  0.0535  0.4269
   25SAPC  H12X 3368   6.850   5.273   7.882 -1.3317 -0.4472 -2.5802
   25SAPC  H12Y 3369   6.993   5.370   7.925  0.0113  0.0258  0.2775
   25SAPC  C313 3370   7.047   5.184   7.839  0.3530 -0.0269  0.0640
   25SAPC  H13X 3371   7.155   5.210   7.845  0.1742  0.4914  1.3287
   25SAPC  H13Y 3372   7.022   5.129   7.746 -3.4739  0.3279  0.7164
   25SAPC  C314 3373   7.006   5.095   7.969 -0.2569 -0.0710  0.5736
   25SAPC  H14X 3374   7.043   4.991   7.960  1.0277  0.2993  1.2840
   25SAPC  H14Y 3375   6.895   5.092   7.980 -0.2255 -1.1282  0.7008
   25SAPC  C315 3376   7.061   5.157   8.099  0.0699 -0.3722  0.4344
   25SAPC  H15X 3377   7.028   5.263   8.111 -0.9492 -0.5761 -0.4252
   25SAPC  H15Y 3378   7.169   5.138   8.085  0.4245  1.5854  0.3145
   25SAPC  C316 3379   7.011   5.074   8.221  0.4243 -0.1793 -0.5174
   25SAPC  H16X 3380   7.020   4.966   8.199 -0.5251 -0.0953 -1.3668
   25SAPC  H16Y 3381   6.906   5.100   8.245 -0.0867 -2.1244 -0.4870
   25SAPC  C317 3382   7.093   5.098   8.352  0.5558  0.1835 -0.2306
   25SAPC  H17X 3383   7.062   5.029   8.433  0.3846  0.3559 -0.1498
   25SAPC  H17Y 3384   7.082   5.203   8.385 -2.3286  0.0282 -0.4415
   25SAPC  C318 3385   7.240   5.062   8.332  0.1781 -0.4864  0.0192
   25SAPC  H18X 3386   7.288   5.116   8.247 -2.0642  2.0468  0.2112
   25SAPC  H18Y 3387   7.257   4.953   8.320 -1.3274 -0.6511 -0.9203
   25SAPC  H18Z 3388   7.291   5.089   8.427  0.6143 -2.9960  0.5729
   26SAPC     N 3389   0.486   2.002   6.387  0.7631 -0.4436  0.7354
   26SAPC   C12 3390   0.376   2.016   6.281 -0.2095  0.2230  0.2523
   26SAPC  H12A 3391   0.323   1.922   6.284  1.7320 -0.9658 -0.4546
   26SAPC  H12B 3392   0.416   2.016   6.181  0.1705 -0.3013  0.3970
   26SAPC   C13 3393   0.574   2.120   6.374 -0.4490 -0.2030 -0.0054
   26SAPC  H13A 3394   0.525   2.208   6.414 -0.2017 -0.6629  1.3581
   26SAPC  H13B 3395   0.660   2.120   6.440 -0.2371  1.3639 -0.2370
   26SAPC  H13C 3396   0.601   2.145   6.273  3.3594 -1.2249  0.5892
   26SAPC   C14 3397   0.426   1.992   6.526 -0.5732 -0.1261 -0.5825
   26SAPC  H14A 3398   0.381   2.086   6.556  1.3829  0.0690  2.1164
   26SAPC  H14B 3399   0.358   1.908   6.535 -2.8412  1.2827 -3.1098
   26SAPC  H14C 3400   0.509   1.990   6.595 -0.1210 -1.4967 -1.1310
   26SAPC   C15 3401   0.564   1.875   6.365 -0.3885 -0.0871 -0.6303
   26SAPC  H15A 3402   0.641   1.864   6.439 -0.0628  1.0842 -0.7700
   26SAPC  H15B 3403   0.509   1.782   6.366  2.0506 -1.5939 -0.8227
   26SAPC  H15C 3404   0.610   1.870   6.267 -1.7525 -0.0240 -1.3028
   26SAPC   C11 3405   0.264   2.122   6.310 -0.0458 -0.4254  0.6220
   26SAPC  H11A 3406   0.225   2.107   6.413 -0.0035  1.3311  0.9208
   26SAPC  H11B 3407   0.178   2.098   6.244 -0.2299  1.4037  0.1474
   26SAPC     P 3408   0.297   2.365   6.362  0.3966 -0.1900  0.1796
   26SAPC   O13 3409   0.386   2.474   6.316 -0.5742 -0.2241 -0.2468
   26SAPC   O14 3410   0.156   2.399   6.395 -0.4274  0.3264 -0.5641
   26SAPC   O12 3411   0.301   2.251   6.263 -0.5387  0.2519 -0.1098
   26SAPC   O11 3412   0.373   2.303   6.493  0.0045  0.2155  0.6830
   26SAPC    C1 3413   0.445   2.392   6.579  1.0146  0.3338  0.4208
   26SAPC    HA 3414   0.552   2.393   6.548  0.4813 -1.4263 -1.8383
   26SAPC    HB 3415   0.401   2.494   6.577 -1.2121 -0.5668  0.8681
   26SAPC    C2 3416   0.446   2.333   6.728 -0.6599 -1.0755  0.5139
   26SAPC    HS 3417   0.477   2.423   6.785 -1.4691  1.7828 -3.1499
   26SAPC   O21 3418   0.529   2.217   6.750 -0.4083  0.5624 -0.2994
   26SAPC   C21 3419   0.655   2.250   6.787 -0.0854  0.5601 -0.4444
   26SAPC   O22 3420   0.695   2.366   6.794 -0.0254 -0.3035  0.5797
   26SAPC   C22 3421   0.730   2.123   6.844  0.4212  0.1533  0.6201
   26SAPC   H2R 3422   0.654   2.045   6.868  0.1686  0.3904  0.5874
   26SAPC   H2S 3423   0.796   2.090   6.761 -4.1884 -3.1134 -2.2322
   26SAPC    C3 3424   0.303   2.310   6.785 -0.1091  0.3253 -0.8005
   26SAPC    HX 3425   0.247   2.237   6.722 -2.2466  1.2374 -0.0380
   26SAPC    HY 3426   0.243   2.401   6.770 -0.1002  0.6206  0.7977
   26SAPC   O31 3427   0.298   2.283   6.925  0.0196 -0.1464 -0.2275
   26SAPC   C31 3428   0.325   2.153   6.968 -0.1609 -0.8780 -0.2979
   26SAPC   O32 3429   0.342   2.058   6.898  0.0226  0.2915 -0.0499
   26SAPC   C32 3430   0.318   2.151   7.121  0.1464 -0.4091  0.3385
   26SAPC   H2X 3431   0.222   2.198   7.150  0.5557  0.6297  0.0398
   26SAPC   H2Y 3432   0.400   2.205   7.173 -0.0507 -1.7973  2.1700
   26SAPC   C23 3433   0.810   2.166   6.971 -0.7989  0.0355 -0.7745
   26SAPC   H3R 3434   0.877   2.254   6.965 -1.3962  0.9287  3.2142
   26SAPC   H3S 3435   0.879   2.083   6.995  2.1959  2.1736 -1.4583
   26SAPC   C24 3436   0.737   2.191   7.104  0.1125  0.8905  0.1726
   26SAPC   H4R 3437   0.807   2.185   7.190  1.1386  0.5676 -0.6653
   26SAPC   H4S 3438   0.659   2.114   7.123 -1.5529  2.6706  0.9398
   26SAPC   C25 3439   0.658   2.316   7.099 -0.0136 -0.0931 -0.3528
   26SAPC   H5R 3440   0.597   2.324   7.008  1.9053 -0.9537 -1.7722
   26SAPC   C26 3441   0.651   2.413   7.196 -0.3223 -0.7096  1.1288
   26SAPC   H6R 3442   0.611   2.514   7.176  0.1851 -0.7653 -0.2863
   26SAPC   C27 3443   0.738   2.420   7.319 -0.3987  0.1374 -0.3200
   26SAPC   H7R 3444   0.736   2.528   7.348 -0.5429  0.2097 -0.5932
   26SAPC   H7S 3445   0.843   2.398   7.293  0.0319  0.8500  0.7429
   26SAPC   C28 3446   0.689   2.325   7.427 -0.8760  0.1571 -0.3182
   26SAPC   H8R 3447   0.622   2.248   7.387 -0.1256 -0.3310 -0.6603
   26SAPC   C29 3448   0.695   2.353   7.560 -0.2009  0.7163  0.3703
   26SAPC   H9R 3449   0.648   2.284   7.632 -0.5447  0.0772 -0.4567
   26SAPC  C210 3450   0.752   2.465   7.628 -1.0589  0.1823 -0.3413
   26SAPC  H10R 3451   0.680   2.548   7.648 -0.3423  0.5795  0.6497
   26SAPC  H10S 3452   0.831   2.505   7.561  0.8681 -3.4426 -0.4801
   26SAPC  C211 3453   0.837   2.434   7.754  0.4760  0.9395  0.0736
   26SAPC  H11R 3454   0.937   2.392   7.735  0.3549  1.1614 -1.1219
   26SAPC  C212 3455   0.797   2.458   7.880  0.7589  1.0749 -0.3624
   26SAPC  H12R 3456   0.857   2.406   7.956  0.8125 -0.7682 -1.5993
   26SAPC  C213 3457   0.660   2.502   7.928 -0.9996  0.1452 -0.2310
   26SAPC  H13R 3458   0.624   2.420   7.995  2.4520 -0.4818  1.0331
   26SAPC  H13S 3459   0.598   2.502   7.836  1.4291 -2.4634 -2.0440
   26SAPC  C214 3460   0.648   2.636   7.992 -0.1156 -0.4571 -0.7107
   26SAPC  H14R 3461   0.651   2.727   7.930 -0.4544  0.5236  0.6581
   26SAPC  C215 3462   0.649   2.656   8.129 -0.1447  0.0947 -0.7335
   26SAPC  H15R 3463   0.649   2.757   8.173  4.5740 -0.7627  1.8959
   26SAPC  C216 3464   0.659   2.552   8.236  1.0859 -0.4738 -0.4117
   26SAPC  H16R 3465   0.680   2.453   8.191  1.8345 -0.6003  0.2012
   26SAPC  H16S 3466   0.558   2.532   8.277  1.2156 -0.4243 -0.0637
   26SAPC  C217 3467   0.756   2.586   8.351 -0.1953 -0.1550 -0.0767
   26SAPC  H17R 3468   0.723   2.676   8.407 -2.7583 -0.3594 -1.1160
   26SAPC  H17S 3469   0.852   2.610   8.300 -0.3480 -1.2679 -0.9142
   26SAPC  C218 3470   0.772   2.476   8.452  0.1742  0.6651 -0.8889
   26SAPC  H18R 3471   0.796   2.375   8.413 -0.7759 -0.2209  0.7476
   26SAPC  H18S 3472   0.675   2.460   8.503  1.6353 -0.9101  1.5335
   26SAPC  C219 3473   0.885   2.495   8.552  0.1639  0.4649  0.6347
   26SAPC  H19R 3474   0.875   2.600   8.587 -3.2337  0.5539 -0.1707
   26SAPC  H19S 3475   0.980   2.493   8.496 -1.7965  0.7203 -3.0143
   26SAPC  C220 3476   0.869   2.387   8.660 -0.3997 -0.1181  0.4427
   26SAPC  H20R 3477   0.803   2.421   8.742 -0.9599 -0.5040  0.1576
   26SAPC  H20S 3478   0.966   2.353   8.703  0.6133  0.3114 -1.3598
   26SAPC  H20T 3479   0.833   2.296   8.607  2.4280  0.8492 -3.6000
   26SAPC   C33 3480   0.331   2.011   7.179 -0.0467  0.2090  0.1042
   26SAPC   H3X 3481   0.410   1.959   7.121 -0.1493 -1.9558  1.7738
   26SAPC   H3Y 3482   0.234   1.958   7.168  0.3176 -0.7405  1.2514
   26SAPC   C34 3483   0.364   2.015   7.329 -0.1447  0.4452  0.5497
   26SAPC   H4X 3484   0.439   2.082   7.376 -1.4912  1.7123  0.9521
   26SAPC   H4Y 3485   0.386   1.908   7.351  0.1125  0.0271 -1.4868
   26SAPC   C35 3486   0.239   2.040   7.420 -0.4539 -0.3774 -0.4142
   26SAPC   H5X 3487   0.165   1.960   7.397  1.7715 -2.0291 -2.3136
   26SAPC   H5Y 3488   0.197   2.138   7.390 -1.3057  0.0233  1.8460
   26SAPC   C36 3489   0.282   2.029   7.572  0.7355 -0.7359  0.2126
   26SAPC   H6X 3490   0.368   2.097   7.589  0.7865  0.0816 -2.7435
   26SAPC   H6Y 3491   0.308   1.923   7.595 -0.7008 -0.9839  0.7893
   26SAPC   C37 3492   0.165   2.084   7.664  0.4462 -0.3260 -0.3055
   26SAPC   H7X 3493   0.071   2.027   7.653 -0.5790  1.4512 -1.2165
   26SAPC   H7Y 3494   0.137   2.189   7.638  1.1964  0.1745  0.8257
   26SAPC   C38 3495   0.220   2.103   7.815  0.9900 -0.6203 -0.2246
   26SAPC   H8X 3496   0.137   2.149   7.874  2.2312  0.9113  0.4026
   26SAPC   H8Y 3497   0.299   2.180   7.823  0.0137  0.5226 -1.1530
   26SAPC   C39 3498   0.274   1.975   7.881 -0.3771 -0.1869  0.5181
   26SAPC   H9X 3499   0.367   1.954   7.824 -0.2235  1.3101  0.1655
   26SAPC   H9Y 3500   0.198   1.897   7.861  0.2598 -0.3191 -1.6625
   26SAPC  C310 3501   0.298   2.003   8.030 -0.7078  0.1007 -0.0175
   26SAPC  H10X 3502   0.254   1.911   8.073  2.9660 -2.9095 -2.1806
   26SAPC  H10Y 3503   0.246   2.096   8.065 -0.2694  0.0556  0.7749
   26SAPC  C311 3504   0.445   2.001   8.078 -0.0401 -0.0389  0.6883
   26SAPC  H11X 3505   0.476   1.894   8.071 -2.0043 -0.6176  0.0427
   26SAPC  H11Y 3506   0.436   2.027   8.185 -1.5191  2.4218  0.0316
   26SAPC  C312 3507   0.546   2.090   8.002 -0.0090 -0.3519  0.2840
   26SAPC  H12X 3508   0.501   2.191   8.001 -2.0053 -1.1809 -1.3028
   26SAPC  H12Y 3509   0.538   2.063   7.895 -1.1306 -1.0227  0.5244
   26SAPC  C313 3510   0.692   2.089   8.041 -0.7044  0.6890 -0.2551
   26SAPC  H13X 3511   0.734   2.183   8.000  2.7469 -0.6359 -0.1480
   26SAPC  H13Y 3512   0.744   1.998   8.002 -0.6275  0.5474  0.1730
   26SAPC  C314 3513   0.730   2.087   8.191  0.5849  0.0542 -0.2494
   26SAPC  H14X 3514   0.663   2.013   8.241 -0.7608  1.1731 -0.3170
   26SAPC  H14Y 3515   0.707   2.184   8.240 -1.2168 -0.2837 -0.3349
   26SAPC  C315 3516   0.875   2.052   8.215 -0.3649 -0.1159  0.9396
   26SAPC  H15X 3517   0.943   2.116   8.154  0.5638 -0.5803  1.4634
   26SAPC  H15Y 3518   0.893   1.947   8.183 -0.8354 -0.3807  1.5367
   26SAPC  C316 3519   0.930   2.082   8.354  0.1696 -0.0741 -0.7166
   26SAPC  H16X 3520   0.915   2.191   8.371 -3.2483 -0.6160  0.4830
   26SAPC  H16Y 3521   1.028   2.035   8.375 -0.4937 -1.0144  0.4093
   26SAPC  C317 3522   0.853   2.023   8.475  0.1161  0.3201  0.4527
   26SAPC  H17X 3523   0.747   2.051   8.460 -0.0439 -1.4720 -2.4394
   26SAPC  H17Y 3524   0.892   2.057   8.574  0.2879 -2.3337  1.3981
   26SAPC  C318 3525   0.846   1.866   8.490 -0.1874  0.2421  0.6532
   26SAPC  H18X 3526   0.753   1.836   8.544 -0.4779 -0.5325 -0.2577
   26SAPC  H18Y 3527   0.929   1.825   8.551  0.8427 -0.1113 -0.9449
   26SAPC  H18Z 3528   0.831   1.820   8.390 -1.2520  1.2373  0.3357
   27SAPC     N 3529   4.053   2.532   6.611 -0.0218  0.3407  0.6936
   27SAPC   C12 3530   3.993   2.481   6.737  0.0888  0.3225  0.1859
   27SAPC  H12A 3531   4.025   2.379   6.750 -2.1632 -0.3212  1.1977
   27SAPC  H12B 3532   3.888   2.456   6.725  0.5461 -1.5112 -0.3453
   27SAPC   C13 3533   4.024   2.438   6.494  0.9061  0.3358  0.3934
   27SAPC  H13A 3534   3.918   2.444   6.475  0.7207 -2.4855  0.1291
   27SAPC  H13B 3535   4.085   2.466   6.409  1.5918  1.0714  1.1104
   27SAPC  H13C 3536   4.044   2.334   6.513 -0.4889  0.3744  2.2648
   27SAPC   C14 3537   4.002   2.669   6.580 -0.3030 -0.1017  0.5203
   27SAPC  H14A 3538   3.898   2.660   6.552  0.0824 -1.4886 -0.5913
   27SAPC  H14B 3539   4.018   2.744   6.656 -0.9108  1.0958 -0.4918
   27SAPC  H14C 3540   4.053   2.706   6.493 -0.9475 -1.8344 -0.6390
   27SAPC   C15 3541   4.204   2.543   6.627 -0.5999  0.4260  0.0747
   27SAPC  H15A 3542   4.248   2.462   6.685  0.3572  1.6632  1.1453
   27SAPC  H15B 3543   4.256   2.545   6.533  0.8226  1.3002  0.8397
   27SAPC  H15C 3544   4.230   2.627   6.689 -1.2968  0.0147  0.9513
   27SAPC   C11 3545   4.002   2.561   6.868  0.0906  0.3898 -0.1458
   27SAPC  H11A 3546   3.932   2.507   6.935  1.6147 -1.7294 -0.1811
   27SAPC  H11B 3547   3.974   2.663   6.832  1.0680  0.1658 -1.6278
   27SAPC     P 3548   4.192   2.439   6.998 -0.1059 -0.4576  0.1293
   27SAPC   O13 3549   4.097   2.330   6.983  0.1990 -0.8410 -0.3548
   27SAPC   O14 3550   4.331   2.412   6.967 -0.5295 -0.3183 -0.5516
   27SAPC   O12 3551   4.141   2.569   6.922 -0.1357 -0.1043  0.0705
   27SAPC   O11 3552   4.177   2.486   7.148 -0.0502 -0.1057  0.2792
   27SAPC    C1 3553   4.173   2.624   7.178 -0.4589 -0.0919 -0.5877
   27SAPC    HA 3554   4.252   2.684   7.127  2.9015 -1.5863  2.4924
   27SAPC    HB 3555   4.080   2.668   7.137  0.3081  0.8373 -1.4063
   27SAPC    C2 3556   4.209   2.652   7.325 -0.2496 -0.0153 -0.2485
   27SAPC    HS 3557   4.233   2.760   7.336 -2.1387  0.6432 -2.0567
   27SAPC   O21 3558   4.319   2.569   7.367 -0.1657  0.7556 -0.6987
   27SAPC   C21 3559   4.434   2.605   7.317 -0.2848 -0.6207  0.1904
   27SAPC   O22 3560   4.456   2.694   7.240 -0.1798  0.0314 -0.2155
   27SAPC   C22 3561   4.548   2.540   7.405 -0.3504  0.3930  0.5108
   27SAPC   H2R 3562   4.515   2.443   7.449  0.0078  0.0394  0.0107
   27SAPC   H2S 3563   4.632   2.521   7.335 -1.1027  1.4729 -0.7167
   27SAPC    C3 3564   4.088   2.619   7.410  0.3702  0.0548  0.9605
   27SAPC    HX 3565   4.077   2.514   7.377  2.6461 -0.4293  1.5481
   27SAPC    HY 3566   3.996   2.675   7.380  0.5002 -0.3802 -0.3004
   27SAPC   O31 3567   4.118   2.618   7.541  0.1626  0.0376 -0.0416
   27SAPC   C31 3568   4.106   2.735   7.600 -0.2172  0.2114  0.0912
   27SAPC   O32 3569   4.091   2.842   7.555 -0.2884  0.5187  0.1966
   27SAPC   C32 3570   4.140   2.722   7.753 -0.0551 -0.0052  0.0250
   27SAPC   H2X 3571   4.230   2.660   7.766  0.5328  0.5960 -1.0051
   27SAPC   H2Y 3572   4.049   2.684   7.804 -0.1318  1.2538  0.8705
   27SAPC   C23 3573   4.591   2.626   7.526 -0.5322  0.3452  0.1114
   27SAPC   H3R 3574   4.598   2.730   7.486 -0.8581 -0.1135 -1.2049
   27SAPC   H3S 3575   4.691   2.589   7.557 -0.4567 -1.6377 -2.1482
   27SAPC   C24 3576   4.490   2.614   7.647  0.1566  0.4328  0.5760
   27SAPC   H4R 3577   4.486   2.511   7.689 -1.2390 -0.4137 -1.4648
   27SAPC   H4S 3578   4.391   2.642   7.604  1.2349 -0.1597 -2.5944
   27SAPC   C25 3579   4.526   2.716   7.757 -0.8824 -0.5298 -0.1364
   27SAPC   H5R 3580   4.497   2.817   7.724 -2.6130 -1.1843 -0.7664
   27SAPC   C26 3581   4.580   2.692   7.881  0.0733  0.0173  0.4602
   27SAPC   H6R 3582   4.595   2.774   7.952 -0.1484 -0.7100  1.3811
   27SAPC   C27 3583   4.617   2.549   7.931 -0.2479 -0.5449 -0.1637
   27SAPC   H7R 3584   4.687   2.569   8.015 -1.5044  1.4599  0.4493
   27SAPC   H7S 3585   4.679   2.500   7.852  0.7607  2.0909 -1.1251
   27SAPC   C28 3586   4.505   2.466   7.985 -0.1743 -0.9017  0.8364
   27SAPC   H8R 3587   4.468   2.394   7.910  1.8488 -1.3003  0.1810
   27SAPC   C29 3588   4.474   2.450   8.119  0.6005  0.2592  0.0858
   27SAPC   H9R 3589   4.388   2.385   8.139  1.6537 -1.3598 -0.4761
   27SAPC  C210 3590   4.530   2.524   8.240 -0.6525 -0.3864  0.8477
   27SAPC  H10R 3591   4.507   2.632   8.235  1.3060  0.0139 -2.1596
   27SAPC  H10S 3592   4.640   2.534   8.228 -0.6009 -1.1838  0.6035
   27SAPC  C211 3593   4.493   2.457   8.374 -0.5095 -0.2927  0.3111
   27SAPC  H11R 3594   4.385   2.436   8.380 -0.4124 -0.5931  1.1073
   27SAPC  C212 3595   4.573   2.414   8.475 -0.0102  0.2400 -0.1627
   27SAPC  H12R 3596   4.524   2.359   8.556  2.0163 -0.0964  0.9037
   27SAPC  C213 3597   4.724   2.430   8.492 -0.3582  0.0777  0.2733
   27SAPC  H13R 3598   4.761   2.505   8.419  0.7266 -1.7767 -1.1677
   27SAPC  H13S 3599   4.774   2.333   8.470  1.0380  0.4588  1.6565
   27SAPC  C214 3600   4.762   2.467   8.635  0.2155 -0.2947  0.1012
   27SAPC  H14R 3601   4.738   2.572   8.660 -1.2121 -0.4029 -0.7608
   27SAPC  C215 3602   4.826   2.389   8.732 -0.1753  0.4172 -0.5597
   27SAPC  H15R 3603   4.851   2.429   8.831 -0.9332  0.5729 -0.4233
   27SAPC  C216 3604   4.864   2.245   8.717 -1.1699 -0.6771  0.0985
   27SAPC  H16R 3605   4.970   2.226   8.742 -0.1772  1.7670 -1.8239
   27SAPC  H16S 3606   4.847   2.214   8.612  0.4408 -2.0552  0.2092
   27SAPC  C217 3607   4.767   2.164   8.802  0.7143  1.0129 -0.1227
   27SAPC  H17R 3608   4.761   2.204   8.906 -1.3352 -1.3264  0.7749
   27SAPC  H17S 3609   4.801   2.059   8.817 -1.8189 -0.0861 -1.5050
   27SAPC  C218 3610   4.619   2.156   8.758 -0.1542 -0.0363 -0.1956
   27SAPC  H18R 3611   4.582   2.256   8.727 -1.4187 -0.9174 -1.6556
   27SAPC  H18S 3612   4.563   2.128   8.849 -0.8583 -1.7917 -1.1127
   27SAPC  C219 3613   4.601   2.055   8.637  0.1089  0.0131 -0.2481
   27SAPC  H19R 3614   4.633   1.955   8.673  0.6484  0.4435  0.5100
   27SAPC  H19S 3615   4.651   2.097   8.547 -1.0459  0.7995 -0.5477
   27SAPC  C220 3616   4.448   2.038   8.603  0.0069  0.3135 -0.2407
   27SAPC  H20R 3617   4.384   2.004   8.687 -1.8210  0.5510 -1.4611
   27SAPC  H20S 3618   4.432   1.974   8.513 -1.3467  1.4331 -0.8280
   27SAPC  H20T 3619   4.409   2.136   8.568 -2.7452  0.2873  2.3685
   27SAPC   C33 3620   4.173   2.855   7.820 -0.2718 -1.0428 -1.1141
   27SAPC   H3X 3621   4.082   2.914   7.797 -0.9935 -2.5700 -2.3676
   27SAPC   H3Y 3622   4.254   2.912   7.771  1.5441 -0.6511  2.0752
   27SAPC   C34 3623   4.210   2.842   7.972  0.6512  0.7753  0.2118
   27SAPC   H4X 3624   4.298   2.775   7.987 -0.0511 -0.0033  0.9287
   27SAPC   H4Y 3625   4.121   2.808   8.029  0.5287  1.4118  0.4117
   27SAPC   C35 3626   4.252   2.979   8.021  0.5024  0.2279 -0.8918
   27SAPC   H5X 3627   4.171   3.054   8.006  0.9567  0.9575  0.1276
   27SAPC   H5Y 3628   4.345   3.008   7.968  1.6304  1.1242  1.4365
   27SAPC   C36 3629   4.297   2.969   8.171  0.1744  0.6328 -0.4192
   27SAPC   H6X 3630   4.357   3.059   8.194 -0.8723  1.2861 -0.2028
   27SAPC   H6Y 3631   4.365   2.881   8.175 -0.5631  0.0405 -0.7362
   27SAPC   C37 3632   4.175   2.943   8.261  0.1515 -0.5224  0.4638
   27SAPC   H7X 3633   4.138   2.842   8.236  2.4817 -1.1764 -0.5743
   27SAPC   H7Y 3634   4.098   3.014   8.223 -0.7108 -1.1040  1.0919
   27SAPC   C38 3635   4.202   2.942   8.409 -0.3866  0.7891  0.0090
   27SAPC   H8X 3636   4.254   3.030   8.453 -1.5592 -0.1231  3.5541
   27SAPC   H8Y 3637   4.265   2.851   8.419  1.3343  1.9907  0.5715
   27SAPC   C39 3638   4.073   2.940   8.495  0.3686  0.0687  0.0153
   27SAPC   H9X 3639   3.994   3.008   8.458  0.9592 -0.8525 -3.1924
   27SAPC   H9Y 3640   4.121   2.968   8.591 -1.5053 -0.8364  1.2945
   27SAPC  C310 3641   4.033   2.792   8.536 -0.3189 -0.9075  0.0868
   27SAPC  H10X 3642   3.992   2.800   8.639  0.6071  0.3777  0.3858
   27SAPC  H10Y 3643   4.121   2.726   8.547  0.0122 -0.4153  0.4597
   27SAPC  C311 3644   3.940   2.729   8.431 -0.9353  0.2831  0.4123
   27SAPC  H11X 3645   4.006   2.718   8.342 -0.0762 -1.8237  1.2386
   27SAPC  H11Y 3646   3.866   2.811   8.416 -1.3419 -0.1218  0.1859
   27SAPC  C312 3647   3.883   2.597   8.473 -0.2267 -0.4527  0.2249
   27SAPC  H12X 3648   3.968   2.526   8.462  0.7013  0.4166  1.5141
   27SAPC  H12Y 3649   3.806   2.572   8.398 -1.4169  0.3754  1.1285
   27SAPC  C313 3650   3.813   2.601   8.610  0.1909 -0.0722 -0.1388
   27SAPC  H13X 3651   3.748   2.690   8.616 -1.4472 -1.2720  0.5869
   27SAPC  H13Y 3652   3.877   2.630   8.696  1.4350  2.1920 -1.7216
   27SAPC  C314 3653   3.727   2.477   8.640  0.3078 -0.3795 -0.2431
   27SAPC  H14X 3654   3.783   2.387   8.606  0.0390 -0.2699 -0.9901
   27SAPC  H14Y 3655   3.636   2.485   8.577  0.6026  0.9399 -0.5281
   27SAPC  C315 3656   3.695   2.464   8.791 -0.2936  0.0398 -0.2448
   27SAPC  H15X 3657   3.661   2.561   8.831 -0.6763 -1.2076  2.7381
   27SAPC  H15Y 3658   3.794   2.442   8.837 -0.3860  0.0089 -0.0603
   27SAPC  C316 3659   3.608   2.341   8.829 -0.0683  0.9801 -0.1773
   27SAPC  H16X 3660   3.643   2.266   8.755  0.2578  1.7088 -0.7752
   27SAPC  H16Y 3661   3.501   2.371   8.827 -0.5249 -0.4763  0.5248
   27SAPC  C317 3662   3.636   2.295   8.970 -0.6029 -0.3848  0.2873
   27SAPC  H17X 3663   3.732   2.238   8.972 -0.5907 -0.4000  2.5940
   27SAPC  H17Y 3664   3.556   2.228   9.010 -1.0615 -0.5201 -0.8433
   27SAPC  C318 3665   3.646   2.404   9.073 -0.4270 -0.3263 -0.3973
   27SAPC  H18X 3666   3.749   2.447   9.067 -0.2887 -0.7507 -1.1686
   27SAPC  H18Y 3667   3.638   2.363   9.176 -0.4867  2.4999  0.8051
   27SAPC  H18Z 3668   3.567   2.479   9.053 -1.5787 -1.3760  0.1222
   28SAPC     N 3669   4.031   6.331   6.225 -0.1149 -0.4477  0.5164
   28SAPC   C12 3670   4.017   6.335   6.380  0.7660 -0.3146 -0.4002
   28SAPC  H12A 3671   4.086   6.407   6.420  0.3200  0.8902 -1.7042
   28SAPC  H12B 3672   4.063   6.245   6.418 -0.3917  0.7548  4.1936
   28SAPC   C13 3673   4.019   6.473   6.178 -0.2894  0.2430  0.2683
   28SAPC  H13A 3674   3.999   6.476   6.071 -1.9416 -0.1738  0.5352
   28SAPC  H13B 3675   3.933   6.519   6.225  0.5948  1.8687  0.3606
   28SAPC  H13C 3676   4.102   6.536   6.203  0.5826 -0.8263  0.1686
   28SAPC   C14 3677   4.161   6.272   6.191 -0.0313 -0.3196 -0.2360
   28SAPC  H14A 3678   4.165   6.260   6.083 -0.5677  0.6162 -0.3711
   28SAPC  H14B 3679   4.243   6.335   6.225 -0.9376 -0.1511  1.7320
   28SAPC  H14C 3680   4.177   6.172   6.227 -0.4590  0.2450  1.6288
   28SAPC   C15 3681   3.922   6.247   6.169  0.3932  0.0456 -0.1536
   28SAPC  H15A 3682   3.942   6.141   6.171  2.5036  0.2165 -3.5740
   28SAPC  H15B 3683   3.832   6.263   6.227  1.3124  1.5884  0.9123
   28SAPC  H15C 3684   3.897   6.273   6.067  1.0959  0.2328 -0.2830
   28SAPC   C11 3685   3.877   6.337   6.447  0.2896 -0.1404  0.5181
   28SAPC  H11A 3686   3.895   6.360   6.554 -0.8547 -0.1285  0.7252
   28SAPC  H11B 3687   3.852   6.230   6.430  1.0361 -0.1313 -0.8068
   28SAPC     P 3688   3.649   6.415   6.358 -0.1027 -0.0596 -0.1279
   28SAPC   O13 3689   3.598   6.543   6.309  0.4059 -0.2208 -0.0054
   28SAPC   O14 3690   3.628   6.301   6.265  0.4537  0.6677  0.0027
   28SAPC   O12 3691   3.801   6.441   6.383  0.5631 -0.2655 -0.2564
   28SAPC   O11 3692   3.594   6.382   6.500  0.4519 -0.6105 -0.4041
   28SAPC    C1 3693   3.615   6.468   6.607 -0.2254  0.4034  0.1608
   28SAPC    HA 3694   3.722   6.474   6.636 -0.8129 -0.8584  2.8644
   28SAPC    HB 3695   3.590   6.574   6.583  2.7822  0.5143 -3.3294
   28SAPC    C2 3696   3.537   6.419   6.732 -0.5809  0.1286  0.6158
   28SAPC    HS 3697   3.549   6.309   6.740 -2.3745 -0.1387  0.0905
   28SAPC   O21 3698   3.402   6.441   6.721 -0.0097  0.2363 -0.6407
   28SAPC   C21 3699   3.319   6.388   6.815 -0.0062 -0.3096  0.1600
   28SAPC   O22 3700   3.354   6.310   6.897 -0.1020  0.3769 -0.1378
   28SAPC   C22 3701   3.179   6.444   6.807 -0.6123 -0.4292 -0.0654
   28SAPC   H2R 3702   3.177   6.555   6.806  0.2038 -0.4037  0.3790
   28SAPC   H2S 3703   3.141   6.427   6.704  1.0029  1.6439 -1.0679
   28SAPC    C3 3704   3.603   6.492   6.851 -0.1671  0.4380  0.4729
   28SAPC    HX 3705   3.707   6.454   6.854 -0.0301  0.6687 -0.7087
   28SAPC    HY 3706   3.553   6.474   6.949  0.0129  2.5051  0.9902
   28SAPC   O31 3707   3.610   6.635   6.835 -0.0803  0.4184  0.1125
   28SAPC   C31 3708   3.501   6.697   6.870  0.8046  0.6352 -0.0830
   28SAPC   O32 3709   3.396   6.657   6.916 -0.3405  0.1387 -0.1714
   28SAPC   C32 3710   3.533   6.852   6.845 -0.5115  0.0004  0.1645
   28SAPC   H2X 3711   3.533   6.857   6.734  0.2687 -0.2613  0.1499
   28SAPC   H2Y 3712   3.632   6.883   6.883  1.1266  1.5839 -4.6517
   28SAPC   C23 3713   3.083   6.381   6.912  0.5534  0.1254  1.3176
   28SAPC   H3R 3714   3.102   6.274   6.888 -1.8456  0.1328 -1.1638
   28SAPC   H3S 3715   2.979   6.412   6.889  0.2305 -0.7460  1.6023
   28SAPC   C24 3716   3.117   6.419   7.058  0.6258  0.1742 -0.0468
   28SAPC   H4R 3717   3.102   6.328   7.121 -1.4312  1.7129  1.8155
   28SAPC   H4S 3718   3.224   6.442   7.079  0.6239 -0.3674  0.5969
   28SAPC   C25 3719   3.026   6.526   7.101 -0.3834  0.0799  0.0543
   28SAPC   H5R 3720   3.040   6.619   7.045 -1.4947  0.1001 -0.2255
   28SAPC   C26 3721   2.944   6.523   7.207 -0.1062 -0.5092 -0.2540
   28SAPC   H6R 3722   2.917   6.623   7.245 -0.0177 -0.5932  0.0350
   28SAPC   C27 3723   2.926   6.399   7.292  0.4639  0.1835  0.6521
   28SAPC   H7R 3724   3.024   6.371   7.337 -0.0741 -3.1136  0.0142
   28SAPC   H7S 3725   2.900   6.314   7.227  0.2504 -0.4818  1.5843
   28SAPC   C28 3726   2.816   6.413   7.389  0.1744  0.1324  0.5327
   28SAPC   H8R 3727   2.716   6.403   7.345  0.1686 -1.9170  0.8829
   28SAPC   C29 3728   2.826   6.423   7.521  0.0530  0.0385 -0.3194
   28SAPC   H9R 3729   2.733   6.431   7.580 -0.0548 -0.3904 -0.4276
   28SAPC  C210 3730   2.954   6.429   7.596 -0.8050 -0.2582  0.1386
   28SAPC  H10R 3731   3.044   6.427   7.531 -0.8959 -2.4973  0.0045
   28SAPC  H10S 3732   2.962   6.346   7.669 -2.1189 -3.7474 -3.3524
   28SAPC  C211 3733   2.965   6.563   7.664  0.1308  0.4144 -0.2294
   28SAPC  H11R 3734   2.954   6.648   7.595  0.2973  1.3577  0.8786
   28SAPC  C212 3735   2.977   6.599   7.792 -0.1204 -0.7478 -0.2626
   28SAPC  H12R 3736   3.000   6.700   7.827  1.2411 -1.3300  0.6069
   28SAPC  C213 3737   2.985   6.509   7.913  0.3941  0.5843  0.2184
   28SAPC  H13R 3738   3.069   6.537   7.980  1.2741 -1.6850  0.1543
   28SAPC  H13S 3739   3.001   6.405   7.877 -1.0954  0.4238 -0.0512
   28SAPC  C214 3740   2.849   6.509   7.988  0.1114  0.0346  0.1673
   28SAPC  H14R 3741   2.783   6.594   7.966 -1.6060 -1.1814  0.4899
   28SAPC  C215 3742   2.805   6.412   8.079 -0.6726 -0.0686 -0.1092
   28SAPC  H15R 3743   2.711   6.432   8.133  0.9673 -0.7196  3.1778
   28SAPC  C216 3744   2.883   6.291   8.134  0.7581 -0.2546  0.2570
   28SAPC  H16R 3745   2.991   6.275   8.114  0.6128 -0.6056 -0.2539
   28SAPC  H16S 3746   2.832   6.194   8.116  1.8889 -0.5812 -1.4465
   28SAPC  C217 3747   2.885   6.305   8.289 -0.2855 -1.2626  0.2808
   28SAPC  H17R 3748   2.940   6.221   8.337  2.2827 -0.3711 -0.8927
   28SAPC  H17S 3749   2.780   6.318   8.322 -0.2164 -0.1699  0.0938
   28SAPC  C218 3750   2.970   6.430   8.325  0.8479 -0.1860  0.0940
   28SAPC  H18R 3751   2.921   6.468   8.418 -0.9814 -1.0464 -0.4661
   28SAPC  H18S 3752   2.954   6.509   8.248 -0.8050 -1.7492 -1.2545
   28SAPC  C219 3753   3.113   6.401   8.343  0.3013  0.1676 -0.1539
   28SAPC  H19R 3754   3.146   6.347   8.252  2.1713  1.7882 -0.5122
   28SAPC  H19S 3755   3.126   6.333   8.430  0.1351  0.7266  0.3166
   28SAPC  C220 3756   3.196   6.526   8.369  0.5422  0.3046 -0.0106
   28SAPC  H20R 3757   3.168   6.599   8.290 -1.0819 -1.4215 -1.0964
   28SAPC  H20S 3758   3.306   6.515   8.360  0.2918 -1.9080 -0.9171
   28SAPC  H20T 3759   3.166   6.582   8.460  1.1639  3.4107 -1.5682
   28SAPC   C33 3760   3.430   6.955   6.885 -0.4838  0.3135 -0.7393
   28SAPC   H3X 3761   3.331   6.926   6.842  0.2879 -1.4475 -1.4233
   28SAPC   H3Y 3762   3.450   7.053   6.838 -0.0066  1.0193  0.8807
   28SAPC   C34 3763   3.433   6.980   7.037 -0.3819  0.1982  0.6338
   28SAPC   H4X 3764   3.535   6.966   7.080 -0.8840 -0.8228  1.5318
   28SAPC   H4Y 3765   3.362   6.909   7.085 -0.7088 -0.1948 -0.4049
   28SAPC   C35 3766   3.388   7.116   7.082  0.3621 -0.4340  0.2856
   28SAPC   H5X 3767   3.281   7.132   7.058  0.6926  1.2266 -0.2040
   28SAPC   H5Y 3768   3.440   7.191   7.019  1.8746  0.2540  2.2277
   28SAPC   C36 3769   3.425   7.148   7.222 -0.4426 -0.1730 -0.1796
   28SAPC   H6X 3770   3.383   7.238   7.273 -0.1439 -0.9639  1.5439
   28SAPC   H6Y 3771   3.534   7.167   7.215 -0.5589 -0.0652 -2.2430
   28SAPC   C37 3772   3.408   7.028   7.322 -0.0367 -0.1610  0.3066
   28SAPC   H7X 3773   3.474   6.943   7.293  0.5686  1.5859 -4.4766
   28SAPC   H7Y 3774   3.304   6.992   7.315 -0.6999  1.5347  0.9475
   28SAPC   C38 3775   3.414   7.055   7.472  0.4533 -0.5550  0.3922
   28SAPC   H8X 3776   3.347   7.142   7.494  1.0015 -0.9863  4.4967
   28SAPC   H8Y 3777   3.514   7.094   7.499  0.3012  0.2320 -0.1355
   28SAPC   C39 3778   3.366   6.936   7.557  0.4078 -0.6071  0.3811
   28SAPC   H9X 3779   3.444   6.858   7.570  2.0009  0.2150 -3.0978
   28SAPC   H9Y 3780   3.273   6.886   7.520 -0.0201 -0.5226  1.3343
   28SAPC  C310 3781   3.323   7.000   7.692  0.5195 -0.1965  0.4436
   28SAPC  H10X 3782   3.240   7.069   7.670 -0.3472 -1.3977 -0.1671
   28SAPC  H10Y 3783   3.408   7.055   7.739 -1.3420  1.5615  1.9224
   28SAPC  C311 3784   3.274   6.892   7.794 -0.2080  0.5522  1.0025
   28SAPC  H11X 3785   3.364   6.831   7.815 -0.1202 -0.2712 -1.4306
   28SAPC  H11Y 3786   3.201   6.828   7.739  0.9810 -0.2628  0.3437
   28SAPC  C312 3787   3.207   6.938   7.922 -0.8280 -0.4158  0.4267
   28SAPC  H12X 3788   3.176   6.853   7.986 -1.1067 -0.3565  0.3716
   28SAPC  H12Y 3789   3.118   7.002   7.901  1.5284  2.8007 -0.5839
   28SAPC  C313 3790   3.305   7.023   8.004  0.5403 -0.0745  0.3357
   28SAPC  H13X 3791   3.303   7.127   7.965 -0.6585  0.1521  0.9519
   28SAPC  H13Y 3792   3.409   6.987   7.989  0.0139 -0.7655 -2.0500
   28SAPC  C314 3793   3.273   7.028   8.154 -0.2156 -0.1255  0.6035
   28SAPC  H14X 3794   3.258   6.924   8.190  0.1070 -0.5800 -0.5316
   28SAPC  H14Y 3795   3.183   7.093   8.157  1.8026  2.8228  0.7757
   28SAPC  C315 3796   3.381   7.096   8.230 -0.2273  0.8921  0.1640
   28SAPC  H15X 3797   3.385   7.195   8.179  0.2914  1.9989  2.2312
   28SAPC  H15Y 3798   3.478   7.043   8.217 -1.2778 -0.5562 -2.3981
   28SAPC  C316 3799   3.330   7.104   8.380 -0.1880  0.2127  0.9348
   28SAPC  H16X 3800   3.330   7.001   8.420  1.0498 -0.4256 -0.6214
   28SAPC  H16Y 3801   3.227   7.146   8.383 -0.3273  0.3988 -2.5057
   28SAPC  C317 3802   3.429   7.197   8.461 -0.0280  0.2326  0.1268
   28SAPC  H17X 3803   3.436   7.290   8.401 -0.3847  0.9624  1.1740
   28SAPC  H17Y 3804   3.528   7.149   8.458 -0.6626 -1.0520 -0.9722
   28SAPC  C318 3805   3.369   7.217   8.600  0.3205 -0.3461 -0.7909
   28SAPC  H18X 3806   3.400   7.139   8.673  1.1583  1.1197  0.4840
   28SAPC  H18Y 3807   3.258   7.223   8.602  0.0932 -2.6548  2.4630
   28SAPC  H18Z 3808   3.404   7.313   8.644 -2.2538 -0.2228  1.1751
   29SAPC     N 3809   5.797   3.092   6.201 -0.1213  0.1061  0.4244
   29SAPC   C12 3810   5.680   3.017   6.259  0.2907 -1.1911 -0.1633
   29SAPC  H12A 3811   5.596   3.061   6.209  0.5894  0.0194  0.3609
   29SAPC  H12B 3812   5.674   3.039   6.365  0.6207 -1.9618  0.0218
   29SAPC   C13 3813   5.806   3.075   6.049  0.3670  0.6392 -0.1782
   29SAPC  H13A 3814   5.889   3.131   6.008  0.1538 -0.0920 -1.6762
   29SAPC  H13B 3815   5.827   2.971   6.028  1.6057  1.0297 -0.9694
   29SAPC  H13C 3816   5.712   3.103   6.004 -0.2780 -0.4805  0.4225
   29SAPC   C14 3817   5.770   3.234   6.226  0.9226  0.2740  0.3926
   29SAPC  H14A 3818   5.753   3.267   6.328 -1.8069 -0.2978  0.2020
   29SAPC  H14B 3819   5.851   3.298   6.196 -0.5671  2.0026 -0.1302
   29SAPC  H14C 3820   5.676   3.260   6.179  1.1924 -1.3310 -1.1339
   29SAPC   C15 3821   5.927   3.055   6.264 -0.0298 -0.4639  0.7701
   29SAPC  H15A 3822   6.002   3.092   6.196 -1.7131  1.3235 -0.2390
   29SAPC  H15B 3823   5.924   3.088   6.367 -1.8884  2.2387 -0.0283
   29SAPC  H15C 3824   5.946   2.949   6.259  3.0465 -0.0066  0.8643
   29SAPC   C11 3825   5.671   2.864   6.239  0.0113 -0.1050 -0.6719
   29SAPC  H11A 3826   5.685   2.847   6.130 -2.5500  2.2679 -1.5054
   29SAPC  H11B 3827   5.573   2.823   6.273  0.2221  0.2853  0.4609
   29SAPC     P 3828   5.770   2.758   6.451 -0.1054 -0.5326  0.0855
   29SAPC   O13 3829   5.904   2.729   6.507  0.0554  0.0896 -0.1568
   29SAPC   O14 3830   5.694   2.865   6.523 -0.2904 -0.1302  0.1506
   29SAPC   O12 3831   5.781   2.791   6.303  0.0560 -0.1786  0.1163
   29SAPC   O11 3832   5.686   2.631   6.437  0.5669  0.0452  0.3944
   29SAPC    C1 3833   5.745   2.521   6.367  0.2591  0.3220 -0.1915
   29SAPC    HA 3834   5.681   2.497   6.279  0.5111 -0.4899 -0.1630
   29SAPC    HB 3835   5.848   2.540   6.330  0.3905 -1.2047 -0.6845
   29SAPC    C2 3836   5.746   2.402   6.470  0.2661 -0.0915  0.1304
   29SAPC    HS 3837   5.638   2.395   6.494  0.6277  1.5478  2.5542
   29SAPC   O21 3838   5.825   2.441   6.582  0.1943 -0.1471 -0.4497
   29SAPC   C21 3839   5.781   2.438   6.705 -1.0019  0.2028  0.9206
   29SAPC   O22 3840   5.674   2.390   6.747 -0.5570 -0.1161 -0.1669
   29SAPC   C22 3841   5.884   2.490   6.808 -0.0798 -0.4399 -0.1364
   29SAPC   H2R 3842   5.959   2.409   6.826 -1.2096 -1.0659  2.1653
   29SAPC   H2S 3843   5.921   2.585   6.763 -2.1236  2.0469  2.9778
   29SAPC    C3 3844   5.786   2.279   6.388 -0.0182  0.0020  0.1447
   29SAPC    HX 3845   5.886   2.308   6.348 -0.9948  2.7720 -0.5304
   29SAPC    HY 3846   5.729   2.261   6.294  0.9318 -1.1490 -0.2399
   29SAPC   O31 3847   5.796   2.158   6.476 -0.4419  0.0135  0.0742
   29SAPC   C31 3848   5.680   2.102   6.497 -0.8283  0.7566  0.7702
   29SAPC   O32 3849   5.572   2.138   6.448 -0.7545 -0.2667  0.2222
   29SAPC   C32 3850   5.706   1.982   6.588 -0.1707 -0.9709  0.5221
   29SAPC   H2X 3851   5.645   1.994   6.680  0.6586 -1.4008  1.1326
   29SAPC   H2Y 3852   5.811   1.982   6.624  0.3320 -2.7552 -0.7996
   29SAPC   C23 3853   5.823   2.521   6.953 -0.0859 -0.2757  0.1581
   29SAPC   H3R 3854   5.806   2.421   7.000 -0.2096  0.0362  0.7827
   29SAPC   H3S 3855   5.731   2.581   6.943  0.1223 -0.1887 -1.5139
   29SAPC   C24 3856   5.917   2.606   7.039  0.0219 -0.7342  0.1152
   29SAPC   H4R 3857   5.854   2.643   7.123 -1.2663  1.2626 -1.6305
   29SAPC   H4S 3858   5.941   2.695   6.977  0.5150 -1.6918 -1.1132
   29SAPC   C25 3859   6.048   2.538   7.080  0.3629  0.2931 -0.3128
   29SAPC   H5R 3860   6.125   2.511   7.006  2.0437 -0.9968  1.7961
   29SAPC   C26 3861   6.070   2.501   7.209  0.4365 -0.1856 -0.5504
   29SAPC   H6R 3862   6.161   2.443   7.232  0.3040  0.0886  0.7618
   29SAPC   C27 3863   5.969   2.525   7.326 -0.2974  0.4995 -0.7848
   29SAPC   H7R 3864   5.866   2.502   7.293  0.0797 -0.7813 -1.1364
   29SAPC   H7S 3865   5.970   2.634   7.347 -1.6318  0.4334 -0.3091
   29SAPC   C28 3866   6.003   2.435   7.444 -0.0931 -0.3400  0.5526
   29SAPC   H8R 3867   6.045   2.336   7.422  0.2568 -0.7830  2.9144
   29SAPC   C29 3868   5.990   2.457   7.578 -0.0449  0.1598  0.0106
   29SAPC   H9R 3869   6.038   2.386   7.647 -0.9142  0.7161  1.2206
   29SAPC  C210 3870   5.934   2.574   7.654  0.5696 -0.5054 -0.3593
   29SAPC  H10R 3871   5.865   2.633   7.592 -0.2740 -2.3196 -1.2125
   29SAPC  H10S 3872   6.015   2.639   7.695 -1.2441  1.2307  0.6147
   29SAPC  C211 3873   5.846   2.540   7.775  0.0856 -0.2365 -0.4070
   29SAPC  H11R 3874   5.743   2.579   7.768 -0.0490 -0.6403 -0.7170
   29SAPC  C212 3875   5.877   2.509   7.902  0.2875  0.1338  0.1725
   29SAPC  H12R 3876   5.791   2.500   7.970 -0.5127 -0.3769 -0.8736
   29SAPC  C213 3877   6.018   2.491   7.963  0.2025  0.2887  0.4919
   29SAPC  H13R 3878   6.076   2.491   7.869  2.2757  4.1253  1.5421
   29SAPC  H13S 3879   6.019   2.396   8.021  0.8781  0.8779  1.4742
   29SAPC  C214 3880   6.059   2.606   8.051 -0.2632 -0.1064 -0.9848
   29SAPC  H14R 3881   6.091   2.698   8.000  1.1933  0.6943  1.1997
   29SAPC  C215 3882   6.083   2.610   8.183  0.2977  0.4314  0.0905
   29SAPC  H15R 3883   6.133   2.696   8.230  2.5439  0.0752 -1.4751
   29SAPC  C216 3884   6.057   2.496   8.271 -0.5120  0.7131 -0.3387
   29SAPC  H16R 3885   6.138   2.420   8.270 -0.6899  0.5115 -1.6291
   29SAPC  H16S 3886   5.966   2.437   8.247  0.6625 -1.4370  0.1744
   29SAPC  C217 3887   6.052   2.531   8.415  0.1156  0.3500 -0.1557
   29SAPC  H17R 3888   6.009   2.453   8.480 -1.0353  0.9855 -0.1285
   29SAPC  H17S 3889   5.982   2.617   8.421 -2.1727 -1.2573 -2.2207
   29SAPC  C218 3890   6.186   2.563   8.486  0.5514  0.5887  0.1625
   29SAPC  H18R 3891   6.225   2.659   8.446  0.7661  0.1153 -0.7703
   29SAPC  H18S 3892   6.261   2.484   8.468 -0.2403 -0.3891  1.0177
   29SAPC  C219 3893   6.177   2.577   8.634 -0.2884 -0.4974 -0.6258
   29SAPC  H19R 3894   6.282   2.600   8.665 -1.0256 -0.3807  2.0106
   29SAPC  H19S 3895   6.148   2.479   8.677  0.3855 -0.4321 -0.0104
   29SAPC  C220 3896   6.084   2.685   8.684  0.4229 -0.1191 -0.4580
   29SAPC  H20R 3897   6.123   2.786   8.655 -2.1640  1.3549  0.8522
   29SAPC  H20S 3898   6.081   2.693   8.795 -0.4952  0.8566 -0.5356
   29SAPC  H20T 3899   5.982   2.679   8.642  0.1766 -0.0767  0.1228
   29SAPC   C33 3900   5.667   1.851   6.507 -0.6448  0.0144  0.3306
   29SAPC   H3X 3901   5.732   1.843   6.417  0.6741 -1.0069  1.3412
   29SAPC   H3Y 3902   5.562   1.869   6.473 -0.6645 -0.6392  0.0310
   29SAPC   C34 3903   5.682   1.719   6.582  0.1709  0.5856 -0.7002
   29SAPC   H4X 3904   5.667   1.640   6.505  1.9266  0.1118 -0.6058
   29SAPC   H4Y 3905   5.595   1.714   6.650 -0.4527 -0.4948 -1.5413
   29SAPC   C35 3906   5.798   1.706   6.678  0.0998 -0.3625 -0.3960
   29SAPC   H5X 3907   5.788   1.793   6.746  2.0654 -0.5989  0.2653
   29SAPC   H5Y 3908   5.887   1.712   6.613 -0.3004 -1.7777 -1.1133
   29SAPC   C36 3909   5.802   1.577   6.752  0.3802 -0.2142  0.6512
   29SAPC   H6X 3910   5.825   1.494   6.681 -1.9214 -0.3156 -0.0352
   29SAPC   H6Y 3911   5.702   1.553   6.794 -0.6609  0.3568 -1.3932
   29SAPC   C37 3912   5.907   1.569   6.860 -0.2668  0.0931  0.3196
   29SAPC   H7X 3913   6.004   1.554   6.808 -1.2721  1.5985 -2.1430
   29SAPC   H7Y 3914   5.871   1.472   6.901  1.2370 -1.1545 -1.1892
   29SAPC   C38 3915   5.890   1.685   6.969  0.2354 -0.6109  0.2813
   29SAPC   H8X 3916   5.900   1.780   6.912  2.2259 -1.1390 -0.3184
   29SAPC   H8Y 3917   5.969   1.699   7.045 -0.3512  0.4933  0.7179
   29SAPC   C39 3918   5.759   1.677   7.041 -0.2886  0.6097 -0.4423
   29SAPC   H9X 3919   5.736   1.569   7.053 -2.8064  1.2338  0.9936
   29SAPC   H9Y 3920   5.678   1.717   6.976 -0.4205 -0.4926 -0.9792
   29SAPC  C310 3921   5.767   1.770   7.168 -0.4204 -0.0549 -0.5099
   29SAPC  H10X 3922   5.669   1.756   7.218  0.0118  0.5414  0.5621
   29SAPC  H10Y 3923   5.789   1.876   7.142 -1.3105 -0.0656 -1.3401
   29SAPC  C311 3924   5.858   1.730   7.280 -0.0629  0.3453 -0.4354
   29SAPC  H11X 3925   5.956   1.702   7.238 -2.1519 -2.5683 -3.9686
   29SAPC  H11Y 3926   5.810   1.646   7.335 -2.9038 -0.0079 -3.1602
   29SAPC  C312 3927   5.878   1.849   7.374  0.0656  0.5209  0.1583
   29SAPC  H12X 3928   5.776   1.874   7.412 -1.1939  0.1687 -2.7370
   29SAPC  H12Y 3929   5.927   1.935   7.324 -1.3568  0.6037 -1.1820
   29SAPC  C313 3930   5.949   1.816   7.506  0.5266 -0.0569  0.1271
   29SAPC  H13X 3931   6.042   1.760   7.482 -0.4085 -0.5607 -2.5805
   29SAPC  H13Y 3932   5.886   1.752   7.572 -1.1674  2.4092  1.0688
   29SAPC  C314 3933   5.976   1.948   7.594 -0.0931  0.6160 -0.1092
   29SAPC  H14X 3934   5.879   1.988   7.628 -0.8040 -2.0574  1.2622
   29SAPC  H14Y 3935   6.019   2.028   7.530 -2.3612  0.1938 -2.3103
   29SAPC  C315 3936   6.060   1.912   7.719  0.0488 -0.2075 -1.0747
   29SAPC  H15X 3937   6.161   1.887   7.680  0.5949  0.4303 -0.1136
   29SAPC  H15Y 3938   6.010   1.827   7.769  0.3480  0.7840  1.0201
   29SAPC  C316 3939   6.067   2.031   7.814  0.2621  0.1297  0.4762
   29SAPC  H16X 3940   5.966   2.054   7.854 -1.5107 -0.5068 -3.2537
   29SAPC  H16Y 3941   6.107   2.124   7.767 -0.0401  0.5556  1.0468
   29SAPC  C317 3942   6.171   2.001   7.922 -0.5394  0.3939  0.7079
   29SAPC  H17X 3943   6.265   1.958   7.882 -1.5793 -1.5063  0.1816
   29SAPC  H17Y 3944   6.129   1.915   7.977 -0.0395 -1.0854 -1.1185
   29SAPC  C318 3945   6.200   2.119   8.017 -0.0173 -0.5645 -0.8844
   29SAPC  H18X 3946   6.112   2.133   8.083  0.5787 -2.4035  0.3958
   29SAPC  H18Y 3947   6.224   2.209   7.957 -1.6770  0.0601 -0.6490
   29SAPC  H18Z 3948   6.281   2.096   8.089  0.5522 -1.4519 -1.7777
   30SAPC     N 3949   2.154   3.778   5.820  0.0845 -0.0349  0.0631
   30SAPC   C12 3950   2.131   3.721   5.955 -0.1061 -0.8912  0.1729
   30SAPC  H12A 3951   2.230   3.708   5.995 -0.5779 -0.0710  1.6888
   30SAPC  H12B 3952   2.071   3.631   5.946 -2.1628 -0.0620  3.4875
   30SAPC   C13 3953   2.202   3.921   5.825 -1.0331  0.1305  0.3495
   30SAPC  H13A 3954   2.182   3.969   5.731 -0.1489 -0.0850  0.0383
   30SAPC  H13B 3955   2.154   3.977   5.904  0.0893  1.7880 -0.0829
   30SAPC  H13C 3956   2.309   3.916   5.838 -0.7217  1.2142 -1.5416
   30SAPC   C14 3957   2.262   3.704   5.755  0.3779  0.3687  0.5776
   30SAPC  H14A 3958   2.276   3.739   5.654  0.1565 -0.6523  0.1902
   30SAPC  H14B 3959   2.358   3.722   5.802  0.4989  2.1918 -0.2810
   30SAPC  H14C 3960   2.244   3.599   5.737 -1.9639  0.4294  2.1608
   30SAPC   C15 3961   2.031   3.775   5.738  0.2512 -0.8488  0.1149
   30SAPC  H15A 3962   1.947   3.808   5.796  1.7826  0.9022  1.4875
   30SAPC  H15B 3963   2.026   3.837   5.650 -1.1095 -1.2866 -0.1401
   30SAPC  H15C 3964   2.002   3.679   5.698 -2.3361  0.9689 -2.8450
   30SAPC   C11 3965   2.068   3.807   6.069 -0.5891 -0.3521 -0.3991
   30SAPC  H11A 3966   2.103   3.912   6.064  0.4080 -0.7372 -2.1793
   30SAPC  H11B 3967   2.094   3.765   6.169 -0.8798 -0.9704 -0.5783
   30SAPC     P 3968   1.845   3.683   6.106  1.0653 -0.2133 -0.4145
   30SAPC   O13 3969   1.704   3.728   6.122  0.3123 -0.3338 -0.0326
   30SAPC   O14 3970   1.858   3.565   6.017 -0.1140 -0.2282 -0.1956
   30SAPC   O12 3971   1.926   3.814   6.051  0.5763  0.3789 -0.7207
   30SAPC   O11 3972   1.911   3.653   6.242 -0.2437  0.1827  0.0905
   30SAPC    C1 3973   1.853   3.679   6.371  0.2510  0.1770  0.8735
   30SAPC    HA 3974   1.816   3.783   6.383 -0.9296 -0.1737  0.4315
   30SAPC    HB 3975   1.764   3.613   6.382 -0.9352  1.4647 -0.4491
   30SAPC    C2 3976   1.966   3.644   6.476  0.4866 -0.8419 -0.0575
   30SAPC    HS 3977   2.029   3.566   6.428  1.0304 -0.3583 -0.1347
   30SAPC   O21 3978   1.896   3.594   6.592 -0.7023  0.1135  0.4314
   30SAPC   C21 3979   1.965   3.544   6.694 -0.5864 -0.9147  0.5463
   30SAPC   O22 3980   2.089   3.527   6.686 -0.0550  0.3829  0.1969
   30SAPC   C22 3981   1.880   3.504   6.820  0.5471  0.0374  0.9775
   30SAPC   H2R 3982   1.947   3.547   6.898  0.1173 -2.6604  2.9806
   30SAPC   H2S 3983   1.781   3.555   6.818  0.8376  0.6186  1.1441
   30SAPC    C3 3984   2.051   3.765   6.512 -0.5744 -0.1816 -0.3157
   30SAPC    HX 3985   2.106   3.790   6.418  2.6976 -2.6755  0.7467
   30SAPC    HY 3986   2.131   3.743   6.587 -0.4616 -0.2409 -0.4537
   30SAPC   O31 3987   1.969   3.881   6.549  0.4546  0.5509  0.3472
   30SAPC   C31 3988   1.945   3.889   6.680 -0.8590  0.3530 -0.4436
   30SAPC   O32 3989   2.000   3.821   6.765 -0.0489 -0.1341  0.1796
   30SAPC   C32 3990   1.845   3.997   6.708  0.5646  0.3493  0.1329
   30SAPC   H2X 3991   1.850   4.068   6.622  0.1054  0.0266 -0.1667
   30SAPC   H2Y 3992   1.868   4.042   6.807  1.2379 -0.2268  0.2452
   30SAPC   C23 3993   1.863   3.348   6.831  0.4534 -0.4672 -0.1360
   30SAPC   H3R 3994   1.960   3.293   6.832 -0.0147 -1.3168 -0.5833
   30SAPC   H3S 3995   1.806   3.309   6.745  0.2197  0.5385 -0.4384
   30SAPC   C24 3996   1.789   3.321   6.966 -0.4343 -0.7205 -0.4513
   30SAPC   H4R 3997   1.692   3.374   6.977  0.6229  1.0047  1.0511
   30SAPC   H4S 3998   1.858   3.364   7.042 -0.0174 -1.1583 -0.5750
   30SAPC   C25 3999   1.766   3.175   6.992 -0.7068 -0.3693  0.0477
   30SAPC   H5R 4000   1.750   3.125   6.895 -2.0395  2.3061 -1.2238
   30SAPC   C26 4001   1.750   3.125   7.111 -0.2583 -0.5544 -0.1704
   30SAPC   H6R 4002   1.728   3.018   7.127 -0.9186 -0.5832 -1.2007
   30SAPC   C27 4003   1.761   3.197   7.245 -0.6971  0.2953 -0.3063
   30SAPC   H7R 4004   1.709   3.135   7.322 -1.2589  0.6379 -0.4093
   30SAPC   H7S 4005   1.703   3.291   7.249 -2.5695 -0.8382  0.7677
   30SAPC   C28 4006   1.901   3.222   7.283 -0.3583  0.4733  0.0809
   30SAPC   H8R 4007   1.972   3.173   7.215  0.1447  0.3069  0.7181
   30SAPC   C29 4008   1.944   3.297   7.382  0.2526  0.0185  0.0595
   30SAPC   H9R 4009   2.053   3.301   7.394  0.2916  0.0893 -0.3209
   30SAPC  C210 4010   1.862   3.371   7.481  0.4481 -0.1476 -0.9283
   30SAPC  H10R 4011   1.795   3.439   7.424 -1.2638 -0.9007  0.1243
   30SAPC  H10S 4012   1.931   3.438   7.536 -1.1567  0.8704 -0.1052
   30SAPC  C211 4013   1.781   3.284   7.569 -0.7361 -0.1368 -0.6232
   30SAPC  H11R 4014   1.728   3.205   7.514  1.8018 -1.2510 -1.6008
   30SAPC  C212 4015   1.771   3.290   7.702 -0.4421  1.0099 -0.1693
   30SAPC  H12R 4016   1.700   3.214   7.738 -2.7905  2.2297 -1.9430
   30SAPC  C213 4017   1.845   3.375   7.805  0.3947 -1.1119  0.0982
   30SAPC  H13R 4018   1.787   3.389   7.899  2.3897  0.4098  1.1739
   30SAPC  H13S 4019   1.839   3.480   7.770  0.1943 -1.2932 -0.4126
   30SAPC  C214 4020   1.988   3.339   7.827  0.6684  0.4496  0.5206
   30SAPC  H14R 4021   2.045   3.288   7.747  0.9831  0.5452  0.6825
   30SAPC  C215 4022   2.047   3.352   7.951  0.9891 -0.0085 -0.0240
   30SAPC  H15R 4023   2.154   3.335   7.970  1.3782  2.6788  0.6708
   30SAPC  C216 4024   1.986   3.410   8.077 -0.2075  0.5082  0.6066
   30SAPC  H16R 4025   1.930   3.503   8.052  0.4739  0.2887 -2.0995
   30SAPC  H16S 4026   2.071   3.452   8.134  0.9402 -0.8212 -0.0541
   30SAPC  C217 4027   1.904   3.313   8.158  0.2406  0.1757  0.2905
   30SAPC  H17R 4028   1.831   3.257   8.096  1.1828 -1.5196  0.6175
   30SAPC  H17S 4029   1.841   3.365   8.233 -0.6575  0.0620 -0.3679
   30SAPC  C218 4030   1.997   3.205   8.217 -0.1554 -0.5331 -0.1256
   30SAPC  H18R 4031   2.057   3.249   8.299 -0.0604 -0.5830 -0.1671
   30SAPC  H18S 4032   2.075   3.173   8.144 -0.0032 -1.3551  0.3891
   30SAPC  C219 4033   1.921   3.094   8.274 -0.0339  0.6043  0.4655
   30SAPC  H19R 4034   1.837   3.062   8.209  0.2036  0.8901  0.0136
   30SAPC  H19S 4035   1.867   3.134   8.363 -0.7926  0.6068  0.0162
   30SAPC  C220 4036   2.008   2.974   8.313  0.4774  0.7398  0.1831
   30SAPC  H20R 4037   2.074   2.944   8.229 -2.7452 -1.7162 -1.7073
   30SAPC  H20S 4038   1.950   2.883   8.338  0.8656  0.4639  0.0866
   30SAPC  H20T 4039   2.082   2.993   8.394  1.3521 -0.0936 -0.3922
   30SAPC   C33 4040   1.698   3.941   6.710 -0.2754  0.8757 -0.5847
   30SAPC   H3X 4041   1.664   3.899   6.612  0.8416  0.0151 -0.6203
   30SAPC   H3Y 4042   1.632   4.025   6.739 -0.6309  0.2831  0.3956
   30SAPC   C34 4043   1.674   3.824   6.807 -0.1242 -0.0481 -0.9040
   30SAPC   H4X 4044   1.736   3.739   6.772 -0.5463 -0.5209 -0.5249
   30SAPC   H4Y 4045   1.567   3.801   6.828 -0.3259  2.5009  1.3716
   30SAPC   C35 4046   1.731   3.855   6.950  0.7576  0.0834 -0.5305
   30SAPC   H5X 4047   1.697   3.959   6.968  1.3909  0.5622 -1.9708
   30SAPC   H5Y 4048   1.842   3.860   6.944  0.7949  0.9305  0.5334
   30SAPC   C36 4049   1.665   3.767   7.054 -0.2066  0.4094 -0.2743
   30SAPC   H6X 4050   1.719   3.670   7.043 -1.1310 -0.0212 -1.2884
   30SAPC   H6Y 4051   1.557   3.752   7.033 -0.5774  1.5141  0.7383
   30SAPC   C37 4052   1.674   3.822   7.199 -0.4521  0.4010 -0.5263
   30SAPC   H7X 4053   1.618   3.746   7.257 -0.4621 -0.2349 -1.3540
   30SAPC   H7Y 4054   1.620   3.918   7.215 -1.1685 -0.2056  0.8937
   30SAPC   C38 4055   1.817   3.824   7.249 -0.4083  0.4044  0.2465
   30SAPC   H8X 4056   1.867   3.908   7.196  0.7608 -0.1018  0.5045
   30SAPC   H8Y 4057   1.863   3.727   7.220 -0.8731 -0.0407  0.9517
   30SAPC   C39 4058   1.819   3.850   7.401 -0.3164  0.5802 -0.4475
   30SAPC   H9X 4059   1.751   3.933   7.433  0.8793  1.1346  0.7800
   30SAPC   H9Y 4060   1.922   3.884   7.427 -0.1443 -0.2635  0.0208
   30SAPC  C310 4061   1.780   3.731   7.487 -0.0103 -0.6732 -0.5791
   30SAPC  H10X 4062   1.845   3.651   7.446  1.5987  0.6111 -0.6195
   30SAPC  H10Y 4063   1.671   3.707   7.483 -0.5441  1.2222  1.0262
   30SAPC  C311 4064   1.829   3.759   7.635 -0.0909 -0.2717 -0.8174
   30SAPC  H11X 4065   1.934   3.794   7.635 -1.1884  3.4332 -0.3289
   30SAPC  H11Y 4066   1.829   3.664   7.693 -1.4689 -1.1663 -2.1958
   30SAPC  C312 4067   1.746   3.863   7.716 -0.1149 -0.1015 -0.1507
   30SAPC  H12X 4068   1.647   3.818   7.738  0.3332 -1.4245 -0.6994
   30SAPC  H12Y 4069   1.745   3.958   7.658 -1.8829  0.7969  1.2547
   30SAPC  C313 4070   1.801   3.905   7.850  0.1410 -0.2369 -0.0621
   30SAPC  H13X 4071   1.735   3.982   7.895 -1.0080 -0.9120 -0.5611
   30SAPC  H13Y 4072   1.904   3.947   7.851  0.2913 -0.5507 -1.1046
   30SAPC  C314 4073   1.787   3.798   7.959 -0.8205  0.5869  0.1915
   30SAPC  H14X 4074   1.835   3.709   7.913 -1.0507  1.4009 -1.7054
   30SAPC  H14Y 4075   1.678   3.778   7.970 -0.3450 -1.0005  3.9022
   30SAPC  C315 4076   1.865   3.832   8.091 -0.1804  0.5391 -0.2954
   30SAPC  H15X 4077   1.852   3.940   8.114  0.9936  0.7322 -0.4956
   30SAPC  H15Y 4078   1.976   3.829   8.084  0.0540  1.8471  1.6897
   30SAPC  C316 4079   1.815   3.769   8.217 -0.4492  0.1623 -0.5169
   30SAPC  H16X 4080   1.763   3.678   8.181  2.2328 -1.3156 -0.9167
   30SAPC  H16Y 4081   1.737   3.832   8.265  0.7880  0.4099  1.2789
   30SAPC  C317 4082   1.922   3.740   8.325  0.2438 -0.0221 -0.3863
   30SAPC  H17X 4083   2.010   3.694   8.276  1.1757 -2.6562  3.3440
   30SAPC  H17Y 4084   1.881   3.660   8.390 -1.8123  1.1966 -0.0849
   30SAPC  C318 4085   1.961   3.855   8.420 -0.0177  0.0248  0.4083
   30SAPC  H18X 4086   2.051   3.834   8.483 -0.0107  0.4352  0.5422
   30SAPC  H18Y 4087   1.875   3.873   8.487  0.0948  0.8068  0.3524
   30SAPC  H18Z 4088   1.975   3.940   8.350  2.2471 -0.3972  0.2660
   31SAPC     N 4089   3.414   2.613   6.290 -0.0915  0.4891 -0.1642
   31SAPC   C12 4090   3.448   2.732   6.382  0.0020 -0.8436 -0.2454
   31SAPC  H12A 4091   3.429   2.825   6.331 -2.2960 -0.3112  1.4243
   31SAPC  H12B 4092   3.554   2.733   6.405 -0.1782  0.9537  0.7222
   31SAPC   C13 4093   3.494   2.494   6.357  0.8301 -0.2584  0.1748
   31SAPC  H13A 4094   3.463   2.479   6.460 -2.0274  2.5567 -0.1547
   31SAPC  H13B 4095   3.479   2.406   6.296  1.1450  0.5772 -1.1336
   31SAPC  H13C 4096   3.600   2.514   6.351  0.8789 -0.2688  0.8947
   31SAPC   C14 4097   3.269   2.579   6.282 -0.6514 -1.0603 -0.0549
   31SAPC  H14A 4098   3.250   2.487   6.228 -0.1137 -1.2963  0.1500
   31SAPC  H14B 4099   3.226   2.575   6.381 -0.0025  2.8623  0.5421
   31SAPC  H14C 4100   3.224   2.668   6.241  3.1594  0.2712 -1.7906
   31SAPC   C15 4101   3.469   2.618   6.153 -0.9127 -0.3472  0.4087
   31SAPC  H15A 4102   3.574   2.602   6.139 -1.5669 -3.7855 -1.5318
   31SAPC  H15B 4103   3.418   2.546   6.092 -1.4676  0.9135 -0.6679
   31SAPC  H15C 4104   3.443   2.711   6.104  0.9729  1.2559  2.2790
   31SAPC   C11 4105   3.382   2.728   6.527 -0.1734  0.0925  0.1612
   31SAPC  H11A 4106   3.275   2.699   6.524  0.0861 -0.8081 -0.5446
   31SAPC  H11B 4107   3.382   2.835   6.557 -0.2223 -0.5353  2.6113
   31SAPC     P 4108   3.612   2.686   6.639 -0.0247 -0.3239  0.0995
   31SAPC   O13 4109   3.706   2.619   6.548 -0.0338 -0.2358  0.5245
   31SAPC   O14 4110   3.628   2.832   6.653  0.2416 -0.2401 -0.0656
   31SAPC   O12 4111   3.457   2.649   6.608 -0.0984 -0.6114 -0.1694
   31SAPC   O11 4112   3.626   2.628   6.786  0.5223  0.1346  0.2939
   31SAPC    C1 4113   3.550   2.666   6.900 -0.3530  0.1309  0.3408
   31SAPC    HA 4114   3.496   2.759   6.871 -1.4155 -1.0504 -1.7206
   31SAPC    HB 4115   3.470   2.589   6.913 -1.1255  0.8158 -0.2413
   31SAPC    C2 4116   3.650   2.690   7.014 -0.2737 -0.2448  0.6221
   31SAPC    HS 4117   3.732   2.750   6.971  0.7864 -0.7743  1.8275
   31SAPC   O21 4118   3.696   2.561   7.059 -0.2219 -0.3518 -0.0426
   31SAPC   C21 4119   3.787   2.558   7.159  0.7168  0.6084  0.2510
   31SAPC   O22 4120   3.836   2.656   7.208  0.3012 -0.2558 -0.5423
   31SAPC   C22 4121   3.823   2.422   7.200 -0.0072 -0.1613  0.3486
   31SAPC   H2R 4122   3.841   2.355   7.113  3.5608  3.1407 -1.7328
   31SAPC   H2S 4123   3.926   2.443   7.237  0.0252 -0.8708  0.6856
   31SAPC    C3 4124   3.569   2.776   7.118 -0.6490  0.7167 -0.8028
   31SAPC    HX 4125   3.561   2.881   7.084  3.7348  1.1107 -1.1116
   31SAPC    HY 4126   3.615   2.783   7.219 -0.8731  0.5169 -0.6838
   31SAPC   O31 4127   3.437   2.722   7.140  0.3524  0.7138  0.0637
   31SAPC   C31 4128   3.414   2.630   7.235  0.1357  0.5532 -0.5522
   31SAPC   O32 4129   3.501   2.581   7.309 -0.4353  0.0914 -0.6880
   31SAPC   C32 4130   3.262   2.599   7.248  0.3280  0.1905  0.0124
   31SAPC   H2X 4131   3.253   2.494   7.213 -1.4256  0.6767 -1.1524
   31SAPC   H2Y 4132   3.203   2.658   7.174  0.0749  2.9957  2.2862
   31SAPC   C23 4133   3.733   2.363   7.315  0.4684 -0.5943  0.7284
   31SAPC   H3R 4134   3.631   2.337   7.279 -0.0530  1.6574  0.4572
   31SAPC   H3S 4135   3.734   2.441   7.394 -0.7019  1.7024 -1.4247
   31SAPC   C24 4136   3.791   2.236   7.380  0.1105 -0.2276  0.3463
   31SAPC   H4R 4137   3.897   2.252   7.406  0.3138  1.0392 -1.1180
   31SAPC   H4S 4138   3.799   2.160   7.299  1.9277  1.1964 -0.9141
   31SAPC   C25 4139   3.699   2.189   7.499  0.2850 -0.0346  0.2669
   31SAPC   H5R 4140   3.620   2.122   7.463  1.5931 -1.6159  0.2604
   31SAPC   C26 4141   3.698   2.232   7.627  0.2072  0.2349  0.2790
   31SAPC   H6R 4142   3.622   2.191   7.695  1.5964  0.6850  2.1610
   31SAPC   C27 4143   3.796   2.330   7.678  0.4020 -0.2746  0.3450
   31SAPC   H7R 4144   3.836   2.395   7.598 -1.6535 -1.0897 -1.4214
   31SAPC   H7S 4145   3.875   2.260   7.714  0.6130 -1.3350 -1.9879
   31SAPC   C28 4146   3.743   2.401   7.801 -0.0050  0.3692  1.0730
   31SAPC   H8R 4147   3.638   2.435   7.796  0.6436  2.3997 -0.2653
   31SAPC   C29 4148   3.814   2.431   7.910 -1.1288  0.1681  0.0738
   31SAPC   H9R 4149   3.758   2.479   7.992  0.1966  0.5233  0.7911
   31SAPC  C210 4150   3.955   2.407   7.938  0.2685 -0.6666  0.2737
   31SAPC  H10R 4151   4.017   2.408   7.846 -0.6597 -0.3814 -0.3618
   31SAPC  H10S 4152   3.956   2.302   7.973  0.1823 -0.9760 -0.6268
   31SAPC  C211 4153   4.012   2.502   8.038 -0.4421  0.2154 -0.2644
   31SAPC  H11R 4154   4.031   2.608   8.017  1.7786 -0.3593 -1.4087
   31SAPC  C212 4155   4.048   2.470   8.164  0.5259 -0.1765  0.3757
   31SAPC  H12R 4156   4.084   2.542   8.240 -0.8332  0.0668  0.8121
   31SAPC  C213 4157   4.034   2.332   8.225  0.6156 -0.4743 -0.0270
   31SAPC  H13R 4158   4.068   2.258   8.150 -0.4403  0.1340 -1.1620
   31SAPC  H13S 4159   3.923   2.326   8.233  0.3190  3.4096  1.2325
   31SAPC  C214 4160   4.103   2.314   8.360 -0.4295  0.4989  0.2447
   31SAPC  H14R 4161   4.140   2.407   8.405 -1.1568  0.5586  0.7500
   31SAPC  C215 4162   4.115   2.200   8.426 -0.2129  0.3500 -0.0045
   31SAPC  H15R 4163   4.170   2.192   8.521 -1.7956  0.0341  0.9261
   31SAPC  C216 4164   4.068   2.067   8.386  0.9670  0.3175  0.4510
   31SAPC  H16R 4165   4.143   1.989   8.412 -1.2930 -2.0107  0.4187
   31SAPC  H16S 4166   4.038   2.061   8.279  0.3469 -0.8608  0.6723
   31SAPC  C217 4167   3.939   2.039   8.459  0.7394  0.2767 -0.3001
   31SAPC  H17R 4168   3.892   1.949   8.414 -0.2064  1.6293 -2.1387
   31SAPC  H17S 4169   3.864   2.120   8.445  1.5118  0.6244 -3.1016
   31SAPC  C218 4170   3.964   2.006   8.609 -0.3465  1.2969 -1.1940
   31SAPC  H18R 4171   4.000   2.103   8.649 -1.6807  1.0363  0.7830
   31SAPC  H18S 4172   4.047   1.932   8.617 -0.4291  1.3866  1.4270
   31SAPC  C219 4173   3.851   1.948   8.698  0.0100  0.4123 -0.3297
   31SAPC  H19R 4174   3.797   1.877   8.631  3.1760 -2.5738 -0.0076
   31SAPC  H19S 4175   3.778   2.025   8.732 -1.5325 -0.7135 -0.9544
   31SAPC  C220 4176   3.912   1.866   8.817  0.0033  0.3668  0.1290
   31SAPC  H20R 4177   4.003   1.810   8.787  1.0897  1.3186  1.5471
   31SAPC  H20S 4178   3.833   1.800   8.859  0.3516  1.6040  2.9570
   31SAPC  H20T 4179   3.949   1.932   8.898 -0.0106  0.3049  0.1863
   31SAPC   C33 4180   3.212   2.595   7.384  0.1623 -0.0964 -0.5898
   31SAPC   H3X 4181   3.222   2.692   7.437  0.2621  0.4521 -1.5945
   31SAPC   H3Y 4182   3.244   2.510   7.448 -1.7547 -1.7056 -1.6428
   31SAPC   C34 4183   3.058   2.578   7.373 -0.4941  0.2645 -0.2095
   31SAPC   H4X 4184   3.043   2.510   7.286  0.9626 -1.1829  0.6186
   31SAPC   H4Y 4185   3.013   2.676   7.347  0.1781  0.2743 -1.4301
   31SAPC   C35 4186   2.990   2.531   7.505  0.1191  0.0460  0.6798
   31SAPC   H5X 4187   3.038   2.442   7.551 -0.6376 -0.5399  0.3589
   31SAPC   H5Y 4188   2.886   2.517   7.470  0.3568 -1.6834  0.5580
   31SAPC   C36 4189   2.979   2.636   7.613 -0.1421  0.2515  0.2148
   31SAPC   H6X 4190   2.940   2.734   7.580 -0.9409  0.5838  2.0695
   31SAPC   H6Y 4191   3.083   2.652   7.649 -0.2076 -0.9622  1.0013
   31SAPC   C37 4192   2.913   2.580   7.734 -0.3508  0.8130 -0.1291
   31SAPC   H7X 4193   2.951   2.478   7.758  0.7664  1.2570  0.0795
   31SAPC   H7Y 4194   2.807   2.565   7.708 -0.1287  0.4172 -0.8349
   31SAPC   C38 4195   2.926   2.668   7.857  0.6629  0.1610  0.0367
   31SAPC   H8X 4196   2.859   2.755   7.842  1.7321  1.3001  1.4737
   31SAPC   H8Y 4197   3.029   2.708   7.870  0.4899 -0.0539  2.7107
   31SAPC   C39 4198   2.876   2.601   7.982 -0.1994  0.2567 -0.4450
   31SAPC   H9X 4199   2.960   2.564   8.044 -2.1245 -3.0400  0.4269
   31SAPC   H9Y 4200   2.815   2.509   7.971 -1.1540  0.9921 -1.6158
   31SAPC  C310 4201   2.807   2.705   8.080  0.4912  0.2941  0.2296
   31SAPC  H10X 4202   2.702   2.719   8.045 -0.3181 -1.8248  1.6159
   31SAPC  H10Y 4203   2.866   2.800   8.074 -0.8525  1.0562 -3.4433
   31SAPC  C311 4204   2.800   2.662   8.233  0.0552 -0.1006  0.0371
   31SAPC  H11X 4205   2.903   2.659   8.275 -0.1025 -0.5011  0.4021
   31SAPC  H11Y 4206   2.759   2.559   8.234  0.6781 -0.4077 -1.6791
   31SAPC  C312 4207   2.725   2.770   8.308  0.4370 -0.0144  0.1878
   31SAPC  H12X 4208   2.625   2.783   8.261  1.2805  2.9526 -1.0620
   31SAPC  H12Y 4209   2.774   2.869   8.292  2.5916 -1.3089 -1.8046
   31SAPC  C313 4210   2.724   2.754   8.461  0.0190 -0.2176 -0.0650
   31SAPC  H13X 4211   2.829   2.766   8.496 -0.0779  0.1548  0.1055
   31SAPC  H13Y 4212   2.670   2.657   8.473 -2.2380  0.8250 -1.1405
   31SAPC  C314 4213   2.638   2.859   8.534  0.1092 -0.4320 -0.5625
   31SAPC  H14X 4214   2.532   2.848   8.504 -0.7788 -1.3322  2.5545
   31SAPC  H14Y 4215   2.677   2.959   8.507  1.4268 -1.0300 -0.9869
   31SAPC  C315 4216   2.653   2.865   8.685 -0.0241 -0.9829 -0.1307
   31SAPC  H15X 4217   2.757   2.893   8.710  0.1026 -0.8583 -0.7828
   31SAPC  H15Y 4218   2.637   2.767   8.735  1.9053 -1.1066  0.3260
   31SAPC  C316 4219   2.561   2.971   8.748 -0.2182 -0.2003  0.1715
   31SAPC  H16X 4220   2.457   2.969   8.710 -0.8000  1.7829  1.4995
   31SAPC  H16Y 4221   2.587   3.078   8.738 -2.8617  0.3483 -2.2388
   31SAPC  C317 4222   2.540   2.952   8.894 -0.6125 -0.4836 -0.4216
   31SAPC  H17X 4223   2.492   3.035   8.951 -0.2266 -1.0650  0.7653
   31SAPC  H17Y 4224   2.641   2.940   8.937 -0.8386 -0.1319  0.2170
   31SAPC  C318 4225   2.448   2.833   8.928  0.0506  0.5625 -0.5393
   31SAPC  H18X 4226   2.421   2.832   9.036  2.2675 -0.8447  0.0806
   31SAPC  H18Y 4227   2.506   2.740   8.909 -1.7781 -0.6736 -0.3071
   31SAPC  H18Z 4228   2.359   2.830   8.862 -1.0467  0.4103  0.9000
   32SAPC     N 4229   5.319   4.602   5.950  0.5880  0.2533 -0.0552
   32SAPC   C12 4230   5.217   4.603   6.063 -0.5302 -0.2672  0.5608
   32SAPC  H12A 4231   5.181   4.504   6.085 -1.7999 -0.1635 -0.8589
   32SAPC  H12B 4232   5.135   4.666   6.033  0.1600 -0.2887 -1.5736
   32SAPC   C13 4233   5.354   4.746   5.899  0.2554  0.1486  0.4536
   32SAPC  H13A 4234   5.263   4.787   5.856  0.5204 -0.2224 -0.4836
   32SAPC  H13B 4235   5.383   4.805   5.985 -0.1489 -0.5368  1.0670
   32SAPC  H13C 4236   5.441   4.759   5.836  0.9430 -2.7907  0.6372
   32SAPC   C14 4237   5.446   4.538   5.994 -0.1552  0.6077 -0.3050
   32SAPC  H14A 4238   5.524   4.544   5.921 -0.4308 -2.1818 -0.9248
   32SAPC  H14B 4239   5.483   4.579   6.087  0.1971  0.3406 -0.3261
   32SAPC  H14C 4240   5.432   4.435   6.024 -0.2647  0.2708 -1.4703
   32SAPC   C15 4241   5.264   4.526   5.838 -0.5117  0.2893 -0.1965
   32SAPC  H15A 4242   5.176   4.572   5.795 -0.7547 -0.0206 -0.0275
   32SAPC  H15B 4243   5.323   4.540   5.748  0.9650  1.8216  0.9342
   32SAPC  H15C 4244   5.266   4.419   5.852 -0.8544  0.2325 -0.5626
   32SAPC   C11 4245   5.270   4.651   6.207  0.2346  0.6936  0.5501
   32SAPC  H11A 4246   5.179   4.651   6.270  1.2264 -1.4306  2.1160
   32SAPC  H11B 4247   5.297   4.758   6.202 -1.8709  1.2169 -1.4117
   32SAPC     P 4248   5.309   4.429   6.334 -0.1034  0.1690  0.3558
   32SAPC   O13 4249   5.241   4.346   6.232  0.5312 -0.0917  0.1672
   32SAPC   O14 4250   5.424   4.365   6.397 -0.0621 -0.7284  0.0379
   32SAPC   O12 4251   5.360   4.563   6.267 -0.4861 -0.3531 -1.0884
   32SAPC   O11 4252   5.204   4.475   6.440 -0.2629  1.0699 -0.1384
   32SAPC    C1 4253   5.209   4.588   6.527  0.6361 -0.0113  1.1790
   32SAPC    HA 4254   5.273   4.665   6.479 -0.2233 -0.1387 -0.2110
   32SAPC    HB 4255   5.108   4.634   6.536 -0.0412 -1.4173  1.0078
   32SAPC    C2 4256   5.253   4.551   6.665 -0.4109  0.4097  0.6116
   32SAPC    HS 4257   5.340   4.482   6.651 -0.4188  0.4686  0.2627
   32SAPC   O21 4258   5.143   4.493   6.736  0.1997  0.4108  0.3581
   32SAPC   C21 4259   5.133   4.356   6.728  0.7157  0.0991 -1.1751
   32SAPC   O22 4260   5.222   4.288   6.687  0.2601  0.4585  0.4895
   32SAPC   C22 4261   5.001   4.313   6.795 -0.1821 -0.4412  0.0900
   32SAPC   H2R 4262   4.912   4.376   6.772 -0.4394 -1.1559 -0.9605
   32SAPC   H2S 4263   4.970   4.230   6.727 -0.5279 -0.7419  0.6111
   32SAPC    C3 4264   5.302   4.673   6.744  0.8780 -0.5148 -0.4486
   32SAPC    HX 4265   5.217   4.740   6.769  0.9140 -1.4855  2.8746
   32SAPC    HY 4266   5.377   4.730   6.685  0.1998 -1.0574 -1.8703
   32SAPC   O31 4267   5.370   4.628   6.864 -0.4285 -0.4590  0.1784
   32SAPC   C31 4268   5.351   4.698   6.971 -0.2642 -0.5616  0.5985
   32SAPC   O32 4269   5.273   4.791   6.984  0.3511 -0.2479  0.1005
   32SAPC   C32 4270   5.426   4.625   7.085  0.3182 -0.2667  0.0848
   32SAPC   H2X 4271   5.534   4.643   7.067  0.4863  0.3681  1.5761
   32SAPC   H2Y 4272   5.396   4.518   7.088 -1.2504  0.1387  3.1154
   32SAPC   C23 4273   5.011   4.261   6.935 -0.4252  0.9960 -0.5690
   32SAPC   H3R 4274   5.054   4.158   6.930  0.8941  1.4884  0.2060
   32SAPC   H3S 4275   4.908   4.238   6.971  1.0297 -0.5614  3.0893
   32SAPC   C24 4276   5.088   4.347   7.038  0.6511  0.3345 -0.1370
   32SAPC   H4R 4277   5.043   4.449   7.046 -1.3647 -0.6471  2.6042
   32SAPC   H4S 4278   5.191   4.366   7.001 -0.1352  3.9097 -0.8663
   32SAPC   C25 4279   5.102   4.283   7.175 -0.5500 -0.1425  0.2027
   32SAPC   H5R 4280   5.155   4.188   7.197  3.5428  2.4619  3.0534
   32SAPC   C26 4281   5.055   4.336   7.291  0.1169  0.6212  0.3884
   32SAPC   H6R 4282   5.080   4.284   7.384  0.5467 -0.3060 -0.2289
   32SAPC   C27 4283   4.974   4.460   7.316 -0.4560  0.4412  0.4124
   32SAPC   H7R 4284   4.914   4.494   7.229  0.5635  1.0055 -0.0984
   32SAPC   H7S 4285   5.045   4.544   7.332 -0.8481  0.9285 -0.3505
   32SAPC   C28 4286   4.896   4.459   7.446  0.0960  0.2155 -0.2495
   32SAPC   H8R 4287   4.792   4.423   7.435  0.0610 -0.0174  0.7607
   32SAPC   C29 4288   4.933   4.469   7.576 -0.5983  0.2796 -0.6563
   32SAPC   H9R 4289   4.855   4.455   7.652  0.3276  0.1262  0.2929
   32SAPC  C210 4290   5.072   4.489   7.629 -0.3740 -0.1032 -0.1692
   32SAPC  H10R 4291   5.141   4.528   7.551  0.5589 -2.5647 -0.6538
   32SAPC  H10S 4292   5.119   4.393   7.659 -1.8997 -0.9505 -0.3698
   32SAPC  C211 4293   5.074   4.578   7.749 -0.7091  0.0777  0.1215
   32SAPC  H11R 4294   5.054   4.683   7.723 -1.0630  0.5139  1.9907
   32SAPC  C212 4295   5.061   4.546   7.881  0.5532  0.5562  0.1801
   32SAPC  H12R 4296   5.049   4.634   7.946 -2.5273  0.4912 -0.1611
   32SAPC  C213 4297   5.053   4.414   7.954  0.0638 -1.0114 -0.1544
   32SAPC  H13R 4298   5.128   4.417   8.036 -1.0748  0.8507  0.9005
   32SAPC  H13S 4299   5.082   4.336   7.881  0.4189 -0.5042 -0.5645
   32SAPC  C214 4300   4.923   4.400   8.027 -0.3438 -0.5027  0.4775
   32SAPC  H14R 4301   4.835   4.371   7.967  0.2984 -1.1102 -0.2007
   32SAPC  C215 4302   4.900   4.437   8.154  0.4264 -0.3590  0.1754
   32SAPC  H15R 4303   4.802   4.405   8.193  0.1909 -1.9154 -1.5615
   32SAPC  C216 4304   4.996   4.504   8.257  0.1461  0.9124  0.5973
   32SAPC  H16R 4305   4.970   4.609   8.282  0.9593  2.1365 -3.0924
   32SAPC  H16S 4306   5.097   4.515   8.214 -0.8331  1.1627 -1.7544
   32SAPC  C217 4307   5.006   4.430   8.385  0.2851 -0.2997 -0.7841
   32SAPC  H17R 4308   5.069   4.494   8.451 -2.9049  3.2789 -0.8203
   32SAPC  H17S 4309   5.050   4.330   8.365  1.7178 -0.2788  1.8099
   32SAPC  C218 4310   4.874   4.418   8.474 -0.0119 -0.2091  0.6945
   32SAPC  H18R 4311   4.792   4.384   8.407 -0.3076  0.9492  0.4565
   32SAPC  H18S 4312   4.851   4.520   8.510 -1.2802 -0.9102  1.9901
   32SAPC  C219 4313   4.889   4.322   8.587 -0.1691  0.6228  0.5495
   32SAPC  H19R 4314   4.978   4.357   8.645  1.4757 -0.4315 -1.2232
   32SAPC  H19S 4315   4.930   4.227   8.546  0.9038  1.5694 -0.6730
   32SAPC  C220 4316   4.772   4.308   8.680  0.6872 -0.5319 -0.0131
   32SAPC  H20R 4317   4.672   4.276   8.642  0.5733 -1.2391  0.8574
   32SAPC  H20S 4318   4.763   4.409   8.725  1.3250  0.2004 -1.4574
   32SAPC  H20T 4319   4.787   4.237   8.764  0.2958  1.1091  1.5219
   32SAPC   C33 4320   5.389   4.694   7.219  1.0134 -0.5412 -0.5284
   32SAPC   H3X 4321   5.280   4.710   7.232  0.8193 -1.7676 -0.4902
   32SAPC   H3Y 4322   5.424   4.800   7.218 -1.7925  0.4938  0.6357
   32SAPC   C34 4323   5.452   4.612   7.340  0.2767  0.2808 -0.8694
   32SAPC   H4X 4324   5.557   4.580   7.319  0.5303  0.0455  0.6719
   32SAPC   H4Y 4325   5.382   4.528   7.357  1.2557 -0.1568  1.2831
   32SAPC   C35 4326   5.451   4.689   7.474  0.5524 -0.1649  0.1229
   32SAPC   H5X 4327   5.353   4.739   7.487 -0.5063 -1.9908 -0.5373
   32SAPC   H5Y 4328   5.536   4.760   7.488 -1.1797  1.7263  1.4885
   32SAPC   C36 4329   5.474   4.598   7.593  0.3235 -0.4922 -0.5763
   32SAPC   H6X 4330   5.565   4.534   7.587  2.0857  1.7819  0.4687
   32SAPC   H6Y 4331   5.385   4.531   7.603 -1.1365  1.4459 -0.0506
   32SAPC   C37 4332   5.491   4.673   7.727  0.5653  0.0035 -0.1206
   32SAPC   H7X 4333   5.426   4.763   7.725  1.7439  0.8578 -0.5828
   32SAPC   H7Y 4334   5.592   4.719   7.730  0.8167  0.1542 -4.8334
   32SAPC   C38 4335   5.459   4.583   7.848  0.5102  0.1004 -0.6892
   32SAPC   H8X 4336   5.513   4.486   7.835  1.7368  0.3864  1.7423
   32SAPC   H8Y 4337   5.350   4.561   7.850  0.3956  0.7358  0.9813
   32SAPC   C39 4338   5.505   4.641   7.987 -0.0773  0.3058 -0.2372
   32SAPC   H9X 4339   5.451   4.733   8.017  0.6299  1.3018 -1.8995
   32SAPC   H9Y 4340   5.613   4.665   7.976 -0.3383  2.3519  1.2116
   32SAPC  C310 4341   5.487   4.535   8.097  0.2042  0.0861 -0.6964
   32SAPC  H10X 4342   5.515   4.431   8.067  0.5786  0.2149 -0.8026
   32SAPC  H10Y 4343   5.385   4.527   8.139  0.4860 -0.1450 -0.0280
   32SAPC  C311 4344   5.574   4.573   8.216 -0.8866  0.4831  0.1081
   32SAPC  H11X 4345   5.534   4.666   8.261 -3.2065  0.0289 -0.8599
   32SAPC  H11Y 4346   5.678   4.600   8.189 -0.0144 -1.1614  1.5647
   32SAPC  C312 4347   5.582   4.460   8.324  0.5306 -0.5272  0.1426
   32SAPC  H12X 4348   5.647   4.496   8.407  0.2959 -0.6378  0.3790
   32SAPC  H12Y 4349   5.629   4.375   8.270 -1.8325 -1.0609 -1.1583
   32SAPC  C313 4350   5.455   4.396   8.375  0.5434  0.5544 -0.2534
   32SAPC  H13X 4351   5.386   4.365   8.294  1.9837 -0.1870 -1.2263
   32SAPC  H13Y 4352   5.405   4.469   8.443 -0.6378 -0.4799  0.0367
   32SAPC  C314 4353   5.492   4.277   8.469 -0.2318 -0.0846  0.0952
   32SAPC  H14X 4354   5.394   4.239   8.503  0.2526 -0.0542  1.6247
   32SAPC  H14Y 4355   5.539   4.319   8.561 -1.3272  0.2735  0.5015
   32SAPC  C315 4356   5.570   4.169   8.394 -1.0491  0.0611 -0.0524
   32SAPC  H15X 4357   5.672   4.213   8.394 -0.6501 -0.6312  3.1991
   32SAPC  H15Y 4358   5.535   4.160   8.289 -0.6278  1.2538 -0.3115
   32SAPC  C316 4359   5.560   4.038   8.464 -0.0057  0.5026 -0.0726
   32SAPC  H16X 4360   5.607   3.954   8.408  2.5518  0.5614  1.8152
   32SAPC  H16Y 4361   5.454   4.006   8.480 -0.2710  1.8983  1.1946
   32SAPC  C317 4362   5.627   4.035   8.601  0.2804 -1.1503 -0.4542
   32SAPC  H17X 4363   5.622   4.131   8.657  1.8038 -1.5970  0.5248
   32SAPC  H17Y 4364   5.733   4.004   8.587  1.0255  0.2865  1.4949
   32SAPC  C318 4365   5.573   3.920   8.694 -0.2090  0.2177 -0.2779
   32SAPC  H18X 4366   5.575   3.818   8.651 -1.6965 -0.8397  1.9553
   32SAPC  H18Y 4367   5.466   3.948   8.707 -0.4370 -0.6168 -0.3342
   32SAPC  H18Z 4368   5.628   3.923   8.791  2.1165 -1.1342 -1.4751
   33POPC     N 4369   0.322   6.030  11.018 -0.0425  0.1841  0.3485
   33POPC   C12 4370   0.448   6.014  10.929 -0.1586  0.4531 -0.1851
   33POPC  H12A 4371   0.512   6.092  10.966 -1.0712  1.2104 -0.1723
   33POPC  H12B 4372   0.423   6.044  10.828  1.9078 -0.8872 -1.1593
   33POPC   C13 4373   0.289   6.180  11.030 -0.1339 -0.5863  0.3397
   33POPC  H13A 4374   0.366   6.232  11.086 -1.9168  1.0925  1.3888
   33POPC  H13B 4375   0.263   6.233  10.940 -1.7368  2.2960  2.3240
   33POPC  H13C 4376   0.200   6.187  11.091  0.6344 -1.4461  1.5911
   33POPC   C14 4377   0.210   5.960  10.946 -0.1274  0.0348 -0.3740
   33POPC  H14A 4378   0.192   5.992  10.844 -0.1237 -1.8469 -0.9943
   33POPC  H14B 4379   0.238   5.856  10.943  1.3749  0.4290 -0.9792
   33POPC  H14C 4380   0.118   5.966  11.001  0.5587  1.5695  0.6902
   33POPC   C15 4381   0.338   5.979  11.152 -0.3252 -0.0949  0.4826
   33POPC  H15A 4382   0.255   6.004  11.216  1.3758  0.6783  2.5318
   33POPC  H15B 4383   0.435   6.017  11.181  0.3822 -1.8005  0.4693
   33POPC  H15C 4384   0.339   5.871  11.154 -2.0031 -0.2762 -2.7473
   33POPC   C11 4385   0.513   5.878  10.908  0.2627  0.2309 -0.1359
   33POPC  H11A 4386   0.556   5.850  11.007  1.4740 -1.0491 -0.9942
   33POPC  H11B 4387   0.599   5.883  10.839 -0.7052  1.8382 -1.2963
   33POPC     P 4388   0.360   5.764  10.712 -0.0697  0.5241  0.3047
   33POPC   O13 4389   0.222   5.719  10.722  0.1987  0.1010 -0.1194
   33POPC   O14 4390   0.445   5.679  10.633 -0.6299 -0.4102  0.3030
   33POPC   O12 4391   0.422   5.781  10.858  0.7233  0.2425 -0.4206
   33POPC   O11 4392   0.361   5.917  10.662  0.1627  0.7352 -0.1976
   33POPC    C1 4393   0.469   5.970  10.587  1.2268 -0.1144  0.7315
   33POPC    HA 4394   0.494   6.067  10.635  2.5233  1.1068 -2.1737
   33POPC    HB 4395   0.554   5.900  10.601  0.2709 -1.3539  0.5386
   33POPC    C2 4396   0.445   6.004  10.434  0.1311  0.5436 -0.1401
   33POPC    HS 4397   0.398   6.105  10.437  1.0431  0.9738  0.1316
   33POPC   O21 4398   0.363   5.899  10.370  0.4066  0.1122 -0.2257
   33POPC   C21 4399   0.238   5.922  10.383  0.0659  0.7719  0.1716
   33POPC   O22 4400   0.185   6.014  10.441  0.3587 -0.3633  0.4308
   33POPC   C22 4401   0.155   5.805  10.317 -0.3543 -0.3990 -0.5610
   33POPC   H2R 4402   0.097   5.760  10.401 -1.9528  1.5499 -0.5442
   33POPC   H2S 4403   0.224   5.730  10.273  0.2057  0.9390 -2.0745
   33POPC    C3 4404   0.574   6.026  10.344 -0.7785  0.0335  0.1371
   33POPC    HX 4405   0.630   5.931  10.332 -0.6692  0.2930 -1.7805
   33POPC    HY 4406   0.634   6.097  10.404 -2.0836  0.8055  0.5711
   33POPC   O31 4407   0.541   6.075  10.213  0.5239 -0.2831 -0.2343
   33POPC   C31 4408   0.646   6.141  10.152  0.1812  0.0810 -0.0889
   33POPC   O32 4409   0.746   6.173  10.202  0.2858  0.1154  0.3611
   33POPC   C32 4410   0.606   6.156  10.008  0.4954  0.1212  0.4029
   33POPC   H2X 4411   0.499   6.186  10.009  0.8832  1.5443  0.4611
   33POPC   H2Y 4412   0.622   6.069   9.940 -0.8389  0.7048 -0.6939
   33POPC   C23 4413   0.042   5.852  10.226  0.2308  0.7224  0.9355
   33POPC   H3R 4414   0.095   5.884  10.133 -1.6649  0.2194 -0.3689
   33POPC   H3S 4415  -0.013   5.942  10.260  0.8776  1.8933 -0.9672
   33POPC   C24 4416  -0.056   5.737  10.199 -0.6432  0.3647  0.4860
   33POPC   H4R 4417  -0.075   5.691  10.298 -0.2784  1.2674  0.9903
   33POPC   H4S 4418   0.005   5.670  10.134 -0.8166  2.5714 -2.1425
   33POPC   C25 4419  -0.184   5.766  10.112 -0.5632  0.2006  0.3162
   33POPC   H5R 4420  -0.243   5.827  10.184 -0.5599 -0.9631  1.3505
   33POPC   H5S 4421  -0.248   5.682  10.079  1.0313 -0.8224 -0.3256
   33POPC   C26 4422  -0.147   5.842   9.984  0.4909  0.0720  0.1511
   33POPC   H6R 4423  -0.071   5.789   9.922 -0.6861 -2.2555  0.5448
   33POPC   H6S 4424  -0.098   5.938  10.009  4.0328 -1.0619 -1.6162
   33POPC   C27 4425  -0.266   5.882   9.891  0.1307  0.6068 -0.3155
   33POPC   H7R 4426  -0.337   5.937   9.955 -0.5781 -0.0541 -0.5213
   33POPC   H7S 4427  -0.302   5.784   9.854 -0.6063  0.8716 -0.3100
   33POPC   C28 4428  -0.243   5.970   9.773 -0.4091 -0.4876  0.0217
   33POPC   H8R 4429  -0.190   6.056   9.819  0.1157 -0.7879 -0.0166
   33POPC   H8S 4430  -0.343   6.005   9.740 -0.3481 -0.5786 -0.2595
   33POPC   C29 4431  -0.161   5.902   9.668  0.4693  0.4155  0.3519
   33POPC   H91 4432  -0.072   5.846   9.701  0.9920  1.4355  0.7031
   33POPC  C210 4433  -0.183   5.910   9.538  0.8117 -0.0378  0.2241
   33POPC  H101 4434  -0.126   5.853   9.462 -1.5800 -1.0691 -0.8836
   33POPC  C211 4435  -0.287   6.002   9.474 -0.5050  0.3939 -0.7235
   33POPC  H11R 4436  -0.347   6.057   9.549  0.0632 -0.0555  0.0707
   33POPC  H11S 4437  -0.366   5.937   9.430  0.3225 -0.2169 -1.3481
   33POPC  C212 4438  -0.227   6.095   9.376 -0.1457  0.3037  0.4291
   33POPC  H12R 4439  -0.175   6.034   9.298  0.3618  0.9253  0.2729
   33POPC  H12S 4440  -0.153   6.162   9.425  1.3457 -1.0447  0.1304
   33POPC  C213 4441  -0.330   6.169   9.291 -0.2655 -0.5911  0.3594
   33POPC  H13R 4442  -0.399   6.226   9.357 -0.6902  1.3689 -1.6109
   33POPC  H13S 4443  -0.396   6.094   9.242 -0.5874  0.1194 -0.3318
   33POPC  C214 4444  -0.277   6.254   9.175 -0.2862 -0.4311 -0.1905
   33POPC  H14R 4445  -0.189   6.315   9.204  0.2138 -0.6944 -1.1023
   33POPC  H14S 4446  -0.359   6.311   9.127  0.8439  0.6390 -0.9214
   33POPC  C215 4447  -0.232   6.156   9.061 -0.0684  0.1001 -0.2255
   33POPC  H15R 4448  -0.308   6.079   9.035  0.4545 -0.1337 -1.1185
   33POPC  H15S 4449  -0.144   6.091   9.085 -0.2471 -0.6803 -1.5913
   33POPC  C216 4450  -0.202   6.237   8.930 -0.7086  0.3101  0.9815
   33POPC  H16R 4451  -0.120   6.309   8.951 -1.8180  1.6753  0.8744
   33POPC  H16S 4452  -0.292   6.298   8.903  0.4144  1.6742  0.2020
   33POPC  C217 4453  -0.163   6.142   8.819  0.5032 -0.1055  0.1082
   33POPC  H17R 4454  -0.236   6.058   8.809  0.8678 -0.4969  0.6810
   33POPC  H17S 4455  -0.071   6.086   8.844  1.1153  0.4555 -0.8349
   33POPC  C218 4456  -0.139   6.222   8.694 -0.0891  0.5777  0.6313
   33POPC  H18R 4457  -0.119   6.166   8.600 -0.8190  1.3091  0.0275
   33POPC  H18S 4458  -0.051   6.288   8.702 -0.3982  0.9865  0.6802
   33POPC  H18T 4459  -0.229   6.282   8.666  0.4317  0.7258 -0.8075
   33POPC   C33 4460   0.680   6.272   9.940 -0.7593 -0.0847 -0.0824
   33POPC   H3X 4461   0.790   6.257   9.937 -0.9047 -1.7495  1.3056
   33POPC   H3Y 4462   0.650   6.358  10.003  1.4037  0.0474  0.8468
   33POPC   C34 4463   0.624   6.277   9.791 -0.4594 -0.1734  0.5389
   33POPC   H4X 4464   0.650   6.380   9.758  1.4263 -0.6440  0.3947
   33POPC   H4Y 4465   0.515   6.261   9.780 -0.6677  1.1105  0.6183
   33POPC   C35 4466   0.692   6.180   9.696  0.0762 -0.3149  0.2183
   33POPC   H5X 4467   0.655   6.077   9.713  4.0577 -1.9905 -0.2897
   33POPC   H5Y 4468   0.801   6.180   9.715  0.1195  0.5862  0.0315
   33POPC   C36 4469   0.667   6.214   9.551  0.0268  0.8513  0.6328
   33POPC   H6X 4470   0.727   6.301   9.517  0.7381  0.3994  0.7099
   33POPC   H6Y 4471   0.558   6.231   9.538  0.5048  2.0823 -2.7468
   33POPC   C37 4472   0.683   6.089   9.458 -0.1579  0.5291 -0.8092
   33POPC   H7X 4473   0.623   6.002   9.491  2.1759 -0.1719  1.9673
   33POPC   H7Y 4474   0.788   6.054   9.459 -0.7781 -1.4460 -0.4700
   33POPC   C38 4475   0.656   6.115   9.304 -0.4130  0.0522 -0.0501
   33POPC   H8X 4476   0.578   6.193   9.290  0.9884  1.4718 -0.2728
   33POPC   H8Y 4477   0.633   6.020   9.251 -0.1096  0.2164 -0.4822
   33POPC   C39 4478   0.775   6.189   9.238 -0.2495 -0.0979 -0.3184
   33POPC   H9X 4479   0.805   6.285   9.284  1.9012 -1.2123  0.8011
   33POPC   H9Y 4480   0.735   6.207   9.136 -2.3083 -0.4119  0.3904
   33POPC  C310 4481   0.897   6.099   9.213  0.3460 -0.0160 -0.7438
   33POPC  H10X 4482   0.875   5.996   9.176  0.6642 -0.5567  0.5138
   33POPC  H10Y 4483   0.949   6.086   9.310  0.0344 -0.3267 -0.6161
   33POPC  C311 4484   0.991   6.165   9.106 -0.8371  0.1439 -0.4231
   33POPC  H11X 4485   0.994   6.273   9.129  0.7477 -0.4004  2.3331
   33POPC  H11Y 4486   0.955   6.158   9.000  0.4559  1.9128 -1.0150
   33POPC  C312 4487   1.136   6.103   9.124 -0.9357  0.1126 -0.6192
   33POPC  H12X 4488   1.127   5.992   9.117 -1.2993  0.0980 -0.0572
   33POPC  H12Y 4489   1.179   6.126   9.224  1.9636  1.0367 -1.9832
   33POPC  C313 4490   1.231   6.149   9.006 -0.0074  0.0173 -0.6525
   33POPC  H13X 4491   1.194   6.130   8.903 -2.2310 -0.9019  0.2448
   33POPC  H13Y 4492   1.322   6.089   9.025 -0.7662 -0.7843  0.6519
   33POPC  C314 4493   1.261   6.301   9.013 -0.3193 -0.0001  0.2190
   33POPC  H14X 4494   1.311   6.330   9.108 -0.4697 -0.8858  0.5842
   33POPC  H14Y 4495   1.170   6.362   9.001 -0.6468 -0.7748 -1.7216
   33POPC  C315 4496   1.344   6.338   8.888 -0.4311 -0.0341  0.1515
   33POPC  H15X 4497   1.289   6.308   8.797 -0.2921 -0.8212  0.3243
   33POPC  H15Y 4498   1.438   6.278   8.889 -1.3493 -1.6743 -2.5633
   33POPC  C316 4499   1.379   6.487   8.876 -0.2492 -0.3217  0.1326
   33POPC  H16X 4500   1.289   6.551   8.889  0.5788  1.1878 -1.1542
   33POPC  H16Y 4501   1.419   6.500   8.773 -1.7393  1.1901 -0.3043
   33POPC  H16Z 4502   1.449   6.518   8.956 -0.9716 -1.1534  1.1178
   34POPC     N 4503   1.000   1.768  11.005 -0.8611 -0.0328 -0.3202
   34POPC   C12 4504   0.931   1.801  10.875 -0.3861  0.3194  0.4397
   34POPC  H12A 4505   0.984   1.875  10.815 -0.0121  0.6942  1.2113
   34POPC  H12B 4506   0.827   1.824  10.889 -0.8820 -0.6654 -1.2971
   34POPC   C13 4507   1.126   1.690  10.997 -0.3482 -0.1279  0.4962
   34POPC  H13A 4508   1.114   1.596  10.944  1.2208  0.2712 -0.6244
   34POPC  H13B 4509   1.201   1.749  10.947  0.6334 -1.4089  0.4033
   34POPC  H13C 4510   1.174   1.663  11.090 -0.6264  0.0246  0.6864
   34POPC   C14 4511   1.053   1.906  11.058 -0.1826  0.5609 -0.2593
   34POPC  H14A 4512   0.963   1.966  11.060 -0.8924 -0.4863  1.3778
   34POPC  H14B 4513   1.086   1.889  11.159  0.7512  0.0941 -0.6306
   34POPC  H14C 4514   1.138   1.950  11.007  0.0080 -0.5115 -0.9075
   34POPC   C15 4515   0.906   1.706  11.103 -0.3827  1.4066 -1.0333
   34POPC  H15A 4516   0.870   1.627  11.039  0.9550  1.2813 -1.6628
   34POPC  H15B 4517   0.825   1.774  11.124  0.1631  1.3890  1.4201
   34POPC  H15C 4518   0.947   1.670  11.196 -4.1838 -0.4794  0.1512
   34POPC   C11 4519   0.919   1.680  10.774  0.0027  0.2656  0.2584
   34POPC  H11A 4520   1.010   1.638  10.727 -0.6273 -0.1783 -0.6055
   34POPC  H11B 4521   0.864   1.718  10.685  1.8943  0.0165 -1.0824
   34POPC     P 4522   0.888   1.424  10.821 -0.2233  0.0931 -0.2189
   34POPC   O13 4523   0.779   1.336  10.874  0.1651  0.8676 -0.2294
   34POPC   O14 4524   1.023   1.418  10.879 -0.5076 -0.1371 -0.1845
   34POPC   O12 4525   0.844   1.574  10.830  0.2065  0.2490  0.6597
   34POPC   O11 4526   0.907   1.396  10.666 -0.1880  0.0086  0.3995
   34POPC    C1 4527   0.790   1.405  10.573  0.1425 -0.3274 -0.4274
   34POPC    HA 4528   0.714   1.473  10.617  0.5722  1.4546 -2.2671
   34POPC    HB 4529   0.750   1.303  10.555 -5.4725  1.4910 -0.4655
   34POPC    C2 4530   0.816   1.481  10.449 -1.1784  0.3067  0.4901
   34POPC    HS 4531   0.917   1.456  10.410 -1.9147  0.9801 -2.0842
   34POPC   O21 4532   0.810   1.623  10.478 -0.8531  0.3243  1.0679
   34POPC   C21 4533   0.868   1.702  10.385  0.7248  0.4185  0.5020
   34POPC   O22 4534   0.924   1.666  10.286 -0.0166 -0.0131  0.4410
   34POPC   C22 4535   0.871   1.845  10.428 -0.0514 -0.3259  0.5343
   34POPC   H2R 4536   0.942   1.900  10.363  1.2781 -2.5423 -0.0132
   34POPC   H2S 4537   0.915   1.852  10.530 -0.0193  1.4932  0.4307
   34POPC    C3 4538   0.710   1.432  10.339 -0.0437  0.3060 -0.7011
   34POPC    HX 4539   0.607   1.432  10.379 -0.8028  0.6141 -2.5790
   34POPC    HY 4540   0.720   1.323  10.325 -0.2653  0.2391 -0.3593
   34POPC   O31 4541   0.714   1.506  10.217  0.0244 -0.1271 -0.0199
   34POPC   C31 4542   0.801   1.458  10.130 -0.3421 -0.5998 -0.2226
   34POPC   O32 4543   0.861   1.352  10.157 -0.5985  0.5578 -0.0882
   34POPC   C32 4544   0.814   1.550  10.007  0.2946  0.0209 -0.4202
   34POPC   H2X 4545   0.896   1.623  10.028  1.3181 -1.8784  2.9697
   34POPC   H2Y 4546   0.722   1.614  10.004 -0.7219 -1.2854  1.2285
   34POPC   C23 4547   0.737   1.915  10.421  0.1750 -0.0129  0.5564
   34POPC   H3R 4548   0.755   2.013  10.470  5.2564 -0.4255  0.0085
   34POPC   H3S 4549   0.661   1.860  10.480 -0.8897  1.2273  0.3922
   34POPC   C24 4550   0.676   1.932  10.280  0.5595  0.2339 -0.1385
   34POPC   H4R 4551   0.583   1.992  10.293  1.2879  1.2769  0.3885
   34POPC   H4S 4552   0.639   1.838  10.235  1.8206  0.2446 -1.2753
   34POPC   C25 4553   0.756   2.007  10.172 -0.3182  0.2605 -0.8279
   34POPC   H5R 4554   0.858   1.963  10.158 -0.2758  0.4057 -0.9826
   34POPC   H5S 4555   0.777   2.115  10.184  1.8352 -0.1857 -0.0949
   34POPC   C26 4556   0.679   1.980  10.047 -0.6963  0.8188 -0.2863
   34POPC   H6R 4557   0.574   2.015  10.053 -1.0081 -0.2745  1.3491
   34POPC   H6S 4558   0.670   1.870  10.031 -2.2012  0.9593 -0.5934
   34POPC   C27 4559   0.760   2.042   9.932  0.0778  0.6371 -0.3274
   34POPC   H7R 4560   0.870   2.029   9.946 -0.0727 -2.0841 -1.0801
   34POPC   H7S 4561   0.733   2.149   9.925  1.2057  0.8984 -0.9136
   34POPC   C28 4562   0.734   1.957   9.805 -0.5906 -0.3677 -0.5922
   34POPC   H8R 4563   0.625   1.976   9.799 -0.6540  1.2224  2.7918
   34POPC   H8S 4564   0.760   1.851   9.824 -1.4887 -0.5584 -0.3907
   34POPC   C29 4565   0.782   2.028   9.684 -0.3848 -0.1578 -0.0886
   34POPC   H91 4566   0.758   2.135   9.679  0.9862  0.2499  1.1835
   34POPC  C210 4567   0.843   1.965   9.583 -0.0695 -0.0026 -0.4060
   34POPC  H101 4568   0.864   2.017   9.488 -0.3687 -0.8910 -0.9689
   34POPC  C211 4569   0.888   1.820   9.593  0.1360  0.3230  0.7528
   34POPC  H11R 4570   0.803   1.760   9.632 -0.7820  0.0868 -1.4788
   34POPC  H11S 4571   0.970   1.804   9.666  0.9427 -0.3935 -0.2800
   34POPC  C212 4572   0.938   1.779   9.453 -0.0068  0.1827 -0.2023
   34POPC  H12R 4573   0.971   1.674   9.471  1.0577  0.9022  2.5452
   34POPC  H12S 4574   1.027   1.835   9.416 -1.4119  1.0729 -2.3941
   34POPC  C213 4575   0.839   1.794   9.331 -0.7257  0.6854  0.0245
   34POPC  H13R 4576   0.818   1.900   9.306 -0.1485  0.5813 -0.9431
   34POPC  H13S 4577   0.737   1.768   9.367 -0.2638  0.6016  1.3308
   34POPC  C214 4578   0.895   1.715   9.211  0.3763 -0.2566 -0.3139
   34POPC  H14R 4579   0.909   1.610   9.247 -0.0413 -0.1533  0.1564
   34POPC  H14S 4580   0.987   1.771   9.182  1.3663 -1.5588  0.1751
   34POPC  C215 4581   0.796   1.704   9.088 -0.0587 -0.1460 -0.7456
   34POPC  H15R 4582   0.735   1.795   9.074 -1.1733 -0.6359  0.7566
   34POPC  H15S 4583   0.722   1.628   9.120  1.4583 -1.1553  0.5774
   34POPC  C216 4584   0.863   1.653   8.964  0.3268 -0.0229  0.0460
   34POPC  H16R 4585   0.903   1.552   8.986 -0.9579 -0.6548 -0.4341
   34POPC  H16S 4586   0.952   1.719   8.951 -0.8894  1.7070  0.1280
   34POPC  C217 4587   0.787   1.650   8.834 -0.2154  0.3588 -0.1101
   34POPC  H17R 4588   0.780   1.755   8.801  2.8496  0.4891 -0.6409
   34POPC  H17S 4589   0.682   1.613   8.845 -0.0042  0.1187  1.3046
   34POPC  C218 4590   0.854   1.554   8.730  0.4069 -0.3962  0.0867
   34POPC  H18R 4591   0.964   1.572   8.732  0.9512 -3.2801  0.9041
   34POPC  H18S 4592   0.812   1.554   8.627 -0.1599 -2.5264  0.2795
   34POPC  H18T 4593   0.839   1.449   8.760 -1.9066 -0.3119 -0.5754
   34POPC   C33 4594   0.812   1.473   9.875 -0.7478 -0.0162  0.0390
   34POPC   H3X 4595   0.784   1.542   9.793 -1.7836 -0.4440  0.0105
   34POPC   H3Y 4596   0.733   1.394   9.870 -1.3865  0.6525 -1.0148
   34POPC   C34 4597   0.947   1.405   9.843  0.3195 -0.2240 -0.1404
   34POPC   H4X 4598   0.970   1.335   9.926  1.6964  1.5088  1.0218
   34POPC   H4Y 4599   1.025   1.484   9.846  0.4376 -0.3363 -0.2093
   34POPC   C35 4600   0.948   1.329   9.708 -0.3998 -0.4397 -0.3437
   34POPC   H5X 4601   0.848   1.283   9.691  0.1439 -0.8417 -2.8151
   34POPC   H5Y 4602   1.027   1.251   9.709  0.5799  0.5250 -0.0576
   34POPC   C36 4603   0.971   1.428   9.592 -0.4625  0.6620  0.5350
   34POPC   H6X 4604   1.068   1.482   9.591  0.3804 -0.6551 -3.0413
   34POPC   H6Y 4605   0.885   1.500   9.594 -0.2977  0.8496  1.1539
   34POPC   C37 4606   0.962   1.344   9.462 -0.1564 -0.0856 -0.2972
   34POPC   H7X 4607   1.036   1.261   9.470  1.9853  1.8272  1.0323
   34POPC   H7Y 4608   0.989   1.404   9.372 -0.7283  0.4287 -0.1253
   34POPC   C38 4609   0.818   1.298   9.420 -0.3553  0.7019  0.3592
   34POPC   H8X 4610   0.736   1.373   9.415 -0.4374  0.7934  2.3731
   34POPC   H8Y 4611   0.789   1.224   9.497  1.2305  0.1177  0.4292
   34POPC   C39 4612   0.828   1.232   9.283 -0.3730  0.8135 -0.2957
   34POPC   H9X 4613   0.918   1.168   9.275 -1.6227 -1.3392  1.7602
   34POPC   H9Y 4614   0.856   1.316   9.215  0.1343  0.3809 -0.6202
   34POPC  C310 4615   0.700   1.163   9.233  0.8533  0.8719  0.1281
   34POPC  H10X 4616   0.606   1.221   9.222 -0.7718 -1.5523  0.4720
   34POPC  H10Y 4617   0.688   1.081   9.307 -2.6986  0.8596 -0.2835
   34POPC  C311 4618   0.727   1.104   9.086 -0.5269 -0.0559 -1.1726
   34POPC  H11X 4619   0.828   1.058   9.079  0.1821  1.0437  1.0667
   34POPC  H11Y 4620   0.724   1.187   9.012  1.0440  0.8837 -0.2237
   34POPC  C312 4621   0.642   0.982   9.051 -0.0278 -0.8502 -0.0496
   34POPC  H12X 4622   0.656   0.910   9.134 -0.2672 -1.8270 -0.8357
   34POPC  H12Y 4623   0.676   0.937   8.955  0.2129  1.5656 -1.1589
   34POPC  C313 4624   0.498   1.018   9.021 -0.2947 -0.6403  0.3178
   34POPC  H13X 4625   0.489   1.098   8.944 -1.4964 -2.2002 -1.2586
   34POPC  H13Y 4626   0.450   1.063   9.111 -1.7554 -0.7516 -0.3708
   34POPC  C314 4627   0.412   0.900   8.973  0.5744 -0.1132  0.5715
   34POPC  H14X 4628   0.418   0.817   9.046 -2.4907 -0.1418  0.9094
   34POPC  H14Y 4629   0.443   0.848   8.880 -1.1476  0.8196 -0.5792
   34POPC  C315 4630   0.259   0.926   8.963  0.4618 -0.3501 -0.2616
   34POPC  H15X 4631   0.238   1.023   8.913 -1.5280  0.2001  1.4809
   34POPC  H15Y 4632   0.218   0.932   9.066  0.5609 -0.0052 -0.2416
   34POPC  C316 4633   0.183   0.807   8.899  0.2673  0.1114  0.3050
   34POPC  H16X 4634   0.232   0.787   8.801 -1.2775 -0.5392 -0.3739
   34POPC  H16Y 4635   0.079   0.840   8.877 -0.8209 -3.1127  0.0942
   34POPC  H16Z 4636   0.183   0.714   8.960  1.7468 -0.5074 -0.5894
   35POPC     N 4637   5.249   5.539  11.562  0.9658 -0.2876  0.3151
   35POPC   C12 4638   5.275   5.668  11.490 -0.2883 -0.2051 -0.4534
   35POPC  H12A 4639   5.344   5.732  11.544  0.8415 -1.1863 -0.6948
   35POPC  H12B 4640   5.178   5.709  11.465 -2.4413 -4.0312  0.8464
   35POPC   C13 4641   5.370   5.455  11.578 -0.2060 -0.0427  0.0413
   35POPC  H13A 4642   5.399   5.421  11.480  0.7310  0.5496  0.1026
   35POPC  H13B 4643   5.454   5.504  11.626  0.4321  0.1115 -1.2027
   35POPC  H13C 4644   5.345   5.370  11.641 -0.2378 -0.4277 -0.4892
   35POPC   C14 4645   5.201   5.571  11.696  0.0163 -0.2569 -0.1630
   35POPC  H14A 4646   5.282   5.607  11.758 -0.9920 -2.1539  2.4516
   35POPC  H14B 4647   5.121   5.643  11.692  1.2732  1.1570 -1.3020
   35POPC  H14C 4648   5.151   5.481  11.728 -0.4838  0.0801  0.0123
   35POPC   C15 4649   5.151   5.458  11.489  0.1274  0.6646 -0.7372
   35POPC  H15A 4650   5.049   5.492  11.504 -0.8192 -1.2353 -2.3556
   35POPC  H15B 4651   5.143   5.355  11.519 -1.3895  0.4369 -1.7519
   35POPC  H15C 4652   5.165   5.471  11.382 -2.7675  2.1626 -1.0604
   35POPC   C11 4653   5.354   5.654  11.356  0.3873 -0.6372 -0.0216
   35POPC  H11A 4654   5.302   5.578  11.294 -1.1472 -1.5594  2.2784
   35POPC  H11B 4655   5.457   5.616  11.375 -0.2561 -1.4942  2.0447
   35POPC     P 4656   5.473   5.882  11.310  0.2718  0.2264 -0.0138
   35POPC   O13 4657   5.599   5.825  11.259 -0.4589 -0.1489 -0.0376
   35POPC   O14 4658   5.462   5.937  11.447  0.3018  1.0684  0.3751
   35POPC   O12 4659   5.354   5.781  11.285 -0.1681  0.3913  0.7802
   35POPC   O11 4660   5.433   6.005  11.221 -0.1210  0.0324  0.7540
   35POPC    C1 4661   5.315   6.026  11.141 -0.4157  0.1634 -0.2656
   35POPC    HA 4662   5.270   6.126  11.159  0.0794  0.4324 -0.4946
   35POPC    HB 4663   5.235   5.960  11.181  0.1928 -1.0859 -1.0435
   35POPC    C2 4664   5.340   6.013  10.991 -0.8617  0.2899  0.6607
   35POPC    HS 4665   5.249   6.038  10.931 -0.1737  2.7569  0.5312
   35POPC   O21 4666   5.393   5.885  10.952 -0.1495 -0.0483 -0.1801
   35POPC   C21 4667   5.312   5.792  10.977 -0.3142  1.4161 -0.2503
   35POPC   O22 4668   5.192   5.806  11.000 -0.7552  0.8469  0.0928
   35POPC   C22 4669   5.385   5.661  10.971 -0.6396  0.1569 -0.1073
   35POPC   H2R 4670   5.380   5.608  11.069  1.9326 -1.4906 -0.7714
   35POPC   H2S 4671   5.495   5.672  10.964 -0.5513 -0.4977  0.1310
   35POPC    C3 4672   5.444   6.110  10.949  0.2005 -0.4849  0.0295
   35POPC    HX 4673   5.536   6.105  11.011 -0.6643 -1.0436  1.3227
   35POPC    HY 4674   5.405   6.212  10.967 -2.2001 -1.2562 -0.4189
   35POPC   O31 4675   5.475   6.115  10.805 -0.0317 -0.6559  0.0701
   35POPC   C31 4676   5.589   6.042  10.776  0.4055 -0.8844 -0.2778
   35POPC   O32 4677   5.648   5.972  10.854 -0.4598 -0.4085 -0.1766
   35POPC   C32 4678   5.631   6.088  10.629 -0.2692  0.2041 -0.4610
   35POPC   H2X 4679   5.697   6.176  10.643  0.9428 -0.7160 -0.2653
   35POPC   H2Y 4680   5.536   6.106  10.573 -0.6209 -0.1798 -0.0025
   35POPC   C23 4681   5.329   5.565  10.873 -0.0171 -0.1067 -0.1715
   35POPC   H3R 4682   5.219   5.569  10.865  0.1426  1.0421 -2.8413
   35POPC   H3S 4683   5.348   5.461  10.909 -3.9222 -0.4522  1.3984
   35POPC   C24 4684   5.379   5.590  10.729  0.8600  0.0910 -0.0273
   35POPC   H4R 4685   5.490   5.578  10.729  0.7341 -1.8234 -1.8863
   35POPC   H4S 4686   5.344   5.694  10.714 -0.3723 -0.2062  0.6655
   35POPC   C25 4687   5.316   5.487  10.639 -0.0300  0.0075  0.0599
   35POPC   H5R 4688   5.215   5.522  10.607  0.3376  1.1357  0.0689
   35POPC   H5S 4689   5.293   5.389  10.685 -0.6861  0.9763  1.8942
   35POPC   C26 4690   5.404   5.472  10.512  0.5575  0.4331  0.5988
   35POPC   H6R 4691   5.490   5.409  10.542 -0.4826 -1.3327  0.0741
   35POPC   H6S 4692   5.442   5.567  10.469 -2.3060  0.3147 -2.6776
   35POPC   C27 4693   5.338   5.393  10.393  0.1828 -0.3528  0.4117
   35POPC   H7R 4694   5.413   5.404  10.311  1.3222 -0.0003  1.4623
   35POPC   H7S 4695   5.255   5.457  10.356  1.2153 -0.0299 -1.4632
   35POPC   C28 4696   5.308   5.255  10.419  0.7234  0.5710 -0.1537
   35POPC   H8R 4697   5.272   5.253  10.524 -0.2931 -1.0759 -0.5035
   35POPC   H8S 4698   5.404   5.199  10.422  1.2586  1.4801  2.2350
   35POPC   C29 4699   5.216   5.189  10.318  0.2308  0.6420 -1.0845
   35POPC   H91 4700   5.112   5.179  10.351  1.0085 -2.3472  0.8346
   35POPC  C210 4701   5.259   5.129  10.206  0.6965  0.2138  0.2892
   35POPC  H101 4702   5.189   5.061  10.155  0.3839  0.7991 -0.0765
   35POPC  C211 4703   5.400   5.119  10.158  0.1069 -0.3685  0.0309
   35POPC  H11R 4704   5.442   5.017  10.170 -1.0991 -0.9125 -0.2314
   35POPC  H11S 4705   5.469   5.177  10.224  1.2213 -0.2783 -1.1842
   35POPC  C212 4706   5.409   5.160  10.009 -0.2715 -0.3960 -0.0499
   35POPC  H12R 4707   5.367   5.081   9.944  1.2924 -0.6568 -0.7856
   35POPC  H12S 4708   5.516   5.176   9.986  0.0598 -1.1972  0.8548
   35POPC  C213 4709   5.340   5.293   9.985  0.6171 -0.2164  0.1366
   35POPC  H13R 4710   5.360   5.361  10.071  0.0382 -2.4824  2.1775
   35POPC  H13S 4711   5.230   5.286   9.972  0.5604  0.4111  0.2557
   35POPC  C214 4712   5.379   5.356   9.850 -0.2885  0.0165  0.0803
   35POPC  H14R 4713   5.486   5.385   9.857  0.6563 -3.0767 -0.1313
   35POPC  H14S 4714   5.316   5.445   9.830  2.2114  1.5203 -1.5927
   35POPC  C215 4715   5.377   5.274   9.725 -0.1898  0.0206  0.0308
   35POPC  H15R 4716   5.273   5.238   9.709 -0.1839  0.3032 -0.6796
   35POPC  H15S 4717   5.441   5.184   9.737  0.9168  1.0180  2.1519
   35POPC  C216 4718   5.415   5.356   9.596 -0.2860 -0.2864 -0.3814
   35POPC  H16R 4719   5.524   5.337   9.584 -0.7641 -5.5606  0.8951
   35POPC  H16S 4720   5.392   5.463   9.615 -1.7377 -0.7514  0.7463
   35POPC  C217 4721   5.342   5.305   9.475 -0.2742  0.6171  0.2105
   35POPC  H17R 4722   5.238   5.345   9.474  0.7666  3.5505 -0.1795
   35POPC  H17S 4723   5.335   5.194   9.477  0.4140  0.3821 -3.5077
   35POPC  C218 4724   5.416   5.351   9.346  0.0083  0.1289  0.5316
   35POPC  H18R 4725   5.517   5.307   9.332  0.2721  0.6584  0.7313
   35POPC  H18S 4726   5.432   5.461   9.346 -0.7456  0.2475  0.2080
   35POPC  H18T 4727   5.350   5.321   9.261  1.7292  0.6442 -1.0627
   35POPC   C33 4728   5.718   5.980  10.560 -0.3825  0.9498 -0.0973
   35POPC   H3X 4729   5.810   5.963  10.621  0.4496 -2.2125 -2.0022
   35POPC   H3Y 4730   5.757   6.021  10.465 -0.6646  1.1037 -0.1493
   35POPC   C34 4731   5.659   5.839  10.543 -0.0309  0.0986  0.4100
   35POPC   H4X 4732   5.601   5.815  10.634  2.8157 -0.1401  2.2673
   35POPC   H4Y 4733   5.745   5.769  10.535  0.0799  0.2571  0.1623
   35POPC   C35 4734   5.575   5.833  10.412  0.5653  0.1884 -0.4086
   35POPC   H5X 4735   5.508   5.922  10.417 -0.4164 -0.5942  1.8579
   35POPC   H5Y 4736   5.508   5.744  10.411  0.3423  0.2494  2.0072
   35POPC   C36 4737   5.654   5.834  10.279 -0.8305  0.6959  0.4357
   35POPC   H6X 4738   5.741   5.766  10.290 -0.0471  1.2571 -1.8086
   35POPC   H6Y 4739   5.701   5.931  10.253 -2.1045  0.8498 -1.4884
   35POPC   C37 4740   5.562   5.788  10.155  0.0283 -0.0700  0.1037
   35POPC   H7X 4741   5.480   5.863  10.159  0.5069  0.4744 -0.1356
   35POPC   H7Y 4742   5.524   5.685  10.169 -1.4112  0.3456 -0.6507
   35POPC   C38 4743   5.648   5.813  10.027  0.7787 -0.3819  0.1747
   35POPC   H8X 4744   5.736   5.748  10.006 -0.1510 -2.3722  1.9590
   35POPC   H8Y 4745   5.684   5.918  10.028  1.6416 -0.6621 -0.5258
   35POPC   C39 4746   5.553   5.796   9.908  0.2181  0.2627 -0.3710
   35POPC   H9X 4747   5.465   5.862   9.924  0.5115  0.7643 -0.7660
   35POPC   H9Y 4748   5.518   5.690   9.906  1.4897 -0.2625  1.8845
   35POPC  C310 4749   5.610   5.812   9.767  0.0818 -0.0666 -0.9677
   35POPC  H10X 4750   5.671   5.722   9.748  0.9131  0.6779 -1.9184
   35POPC  H10Y 4751   5.679   5.899   9.769  1.1281 -0.8600  1.3152
   35POPC  C311 4752   5.504   5.820   9.661 -0.6173  0.1197  0.3091
   35POPC  H11X 4753   5.458   5.921   9.656  0.8211  0.9136  1.9465
   35POPC  H11Y 4754   5.431   5.737   9.670 -0.5413  0.0431  0.2130
   35POPC  C312 4755   5.576   5.805   9.523  0.4779 -0.5706 -0.5160
   35POPC  H12X 4756   5.623   5.705   9.531  1.1471 -0.1503  1.2883
   35POPC  H12Y 4757   5.655   5.883   9.514  1.1269 -1.0705  0.6350
   35POPC  C313 4758   5.484   5.809   9.396  0.8364  0.1788  0.0727
   35POPC  H13X 4759   5.443   5.909   9.373  0.8025  0.2065  0.2527
   35POPC  H13Y 4760   5.395   5.743   9.402  1.4441 -0.8242 -1.3296
   35POPC  C314 4761   5.558   5.745   9.276 -0.7796  0.1177 -0.2429
   35POPC  H14X 4762   5.491   5.677   9.219 -3.1575  1.4892  0.7672
   35POPC  H14Y 4763   5.641   5.683   9.315 -1.2410 -0.0509  0.4897
   35POPC  C315 4764   5.614   5.836   9.165 -0.6445 -0.3190  0.0201
   35POPC  H15X 4765   5.689   5.789   9.097  1.8656  3.7997 -0.3849
   35POPC  H15Y 4766   5.666   5.927   9.200  1.7513 -1.1415 -1.2162
   35POPC  C316 4767   5.498   5.885   9.076  0.3162  0.6825  0.3177
   35POPC  H16X 4768   5.408   5.903   9.137  0.0757  0.1623  0.1248
   35POPC  H16Y 4769   5.462   5.811   9.001  1.4328  1.0334 -0.5839
   35POPC  H16Z 4770   5.530   5.974   9.017  2.5570 -0.0179  0.3767
   36POPC     N 4771   5.601   2.851  11.147 -0.5700 -0.0039  0.4860
   36POPC   C12 4772   5.477   2.919  11.204 -1.2379 -0.2923 -0.1597
   36POPC  H12A 4773   5.422   2.971  11.127 -2.0532 -0.9979 -0.0643
   36POPC  H12B 4774   5.504   2.992  11.279 -2.5744 -0.5393  0.5853
   36POPC   C13 4775   5.553   2.767  11.029 -0.9046 -0.0333 -0.6319
   36POPC  H13A 4776   5.496   2.828  10.960  2.3245  2.9888 -0.8775
   36POPC  H13B 4777   5.636   2.718  10.982 -1.6252 -0.8454 -1.0907
   36POPC  H13C 4778   5.484   2.694  11.072 -1.6686  0.5523 -0.8380
   36POPC   C14 4779   5.684   2.955  11.087  0.1633  0.2709 -0.0971
   36POPC  H14A 4780   5.698   3.033  11.160  0.4284 -0.8483  1.1054
   36POPC  H14B 4781   5.783   2.912  11.072 -0.6031 -2.2594  1.3374
   36POPC  H14C 4782   5.651   2.995  10.992  1.3208  1.4911 -0.0156
   36POPC   C15 4783   5.677   2.768  11.240  0.2114  0.0436  0.2023
   36POPC  H15A 4784   5.721   2.839  11.308  2.3287  0.1133 -1.1443
   36POPC  H15B 4785   5.756   2.716  11.188 -0.5455  0.8069 -1.8297
   36POPC  H15C 4786   5.622   2.690  11.290 -0.4089  1.3657  1.6799
   36POPC   C11 4787   5.379   2.819  11.277 -0.5488 -0.0398  0.4316
   36POPC  H11A 4788   5.302   2.890  11.315 -1.8055 -0.5238 -1.0903
   36POPC  H11B 4789   5.429   2.765  11.360 -0.2750 -1.6101 -0.7102
   36POPC     P 4790   5.167   2.698  11.188 -0.5093 -0.4552 -0.4948
   36POPC   O13 4791   5.098   2.819  11.135 -0.5160  0.2051 -0.4199
   36POPC   O14 4792   5.132   2.640  11.318 -0.0692 -0.4283 -0.1592
   36POPC   O12 4793   5.324   2.723  11.186 -0.0937 -0.4134  0.0471
   36POPC   O11 4794   5.153   2.585  11.078  0.3152  0.6039 -0.6395
   36POPC    C1 4795   5.195   2.612  10.947 -0.2800  0.7080 -0.4495
   36POPC    HA 4796   5.298   2.572  10.936  0.0783  2.0152 -2.1988
   36POPC    HB 4797   5.210   2.721  10.931  0.5230  1.1343  2.5609
   36POPC    C2 4798   5.104   2.547  10.835 -0.0570  0.0086 -0.5761
   36POPC    HS 4799   5.105   2.437  10.843 -0.9583  0.0061 -0.3704
   36POPC   O21 4800   5.160   2.593  10.713  0.0704 -0.8474 -0.4061
   36POPC   C21 4801   5.263   2.524  10.664  0.1753  0.1143  0.1930
   36POPC   O22 4802   5.296   2.412  10.694 -0.4984  0.7298 -0.2002
   36POPC   C22 4803   5.331   2.606  10.551  0.4723  0.4316 -0.3108
   36POPC   H2R 4804   5.438   2.578  10.544  0.1071 -0.7187 -1.7543
   36POPC   H2S 4805   5.309   2.713  10.571  3.6649  0.8508  1.5838
   36POPC    C3 4806   4.958   2.601  10.841 -0.3059 -0.2975  0.7655
   36POPC    HX 4807   4.945   2.708  10.812  0.0400 -0.9544 -2.1293
   36POPC    HY 4808   4.924   2.588  10.946 -0.3098 -1.5226  0.6222
   36POPC   O31 4809   4.873   2.514  10.759 -0.1939  0.2576 -0.1721
   36POPC   C31 4810   4.827   2.565  10.651  0.9282 -0.7156 -0.1666
   36POPC   O32 4811   4.834   2.677  10.606  0.0723 -0.2652 -0.9248
   36POPC   C32 4812   4.744   2.449  10.590 -0.5462 -0.0510  0.2868
   36POPC   H2X 4813   4.663   2.414  10.658  0.4009 -1.0283  0.9599
   36POPC   H2Y 4814   4.814   2.369  10.557  0.1973  0.6259  0.1880
   36POPC   C23 4815   5.274   2.579  10.416  0.1800 -0.1448 -0.4857
   36POPC   H3R 4816   5.165   2.588  10.402  0.3126 -0.3738 -1.8502
   36POPC   H3S 4817   5.295   2.471  10.398 -4.5266 -1.6372  1.3939
   36POPC   C24 4818   5.345   2.656  10.306  0.0320  0.0191 -0.3598
   36POPC   H4R 4819   5.452   2.632  10.317 -0.1302 -1.0156 -0.9069
   36POPC   H4S 4820   5.314   2.762  10.318 -1.7861 -0.3683 -1.2153
   36POPC   C25 4821   5.302   2.608  10.164  0.3020  0.1933  0.2010
   36POPC   H5R 4822   5.195   2.629  10.145  0.1134  0.4405  1.4484
   36POPC   H5S 4823   5.313   2.498  10.157 -0.0811  0.0015  2.1248
   36POPC   C26 4824   5.365   2.672  10.047 -0.7879  0.0994  0.4855
   36POPC   H6R 4825   5.467   2.632  10.035 -0.7467  0.4020 -0.2459
   36POPC   H6S 4826   5.378   2.780  10.071 -0.5571  0.2211 -0.1749
   36POPC   C27 4827   5.296   2.640   9.916  1.2556 -0.8125 -0.5386
   36POPC   H7R 4828   5.198   2.688   9.939  1.4084 -0.3740 -0.8003
   36POPC   H7S 4829   5.285   2.529   9.923  0.5958 -0.7155  0.1890
   36POPC   C28 4830   5.355   2.692   9.785 -0.0186 -0.1376 -0.4962
   36POPC   H8R 4831   5.450   2.636   9.775  0.2361  0.1400  0.3006
   36POPC   H8S 4832   5.366   2.802   9.795  0.3982 -0.2231 -0.0077
   36POPC   C29 4833   5.278   2.662   9.660 -0.0669 -0.2277 -0.3906
   36POPC   H91 4834   5.185   2.719   9.649  0.4949  1.0342  1.0730
   36POPC  C210 4835   5.330   2.597   9.552  0.4914  0.8208  0.3465
   36POPC  H101 4836   5.269   2.564   9.466  1.9493 -0.8900 -0.0944
   36POPC  C211 4837   5.467   2.540   9.531 -0.8172 -1.0226  0.0495
   36POPC  H11R 4838   5.488   2.445   9.584 -1.9842 -0.0664  2.3883
   36POPC  H11S 4839   5.533   2.610   9.585 -2.2939  1.1081 -0.7613
   36POPC  C212 4840   5.502   2.546   9.386 -0.1055  0.1783  1.1149
   36POPC  H12R 4841   5.514   2.653   9.359  2.0440 -0.4667 -0.8415
   36POPC  H12S 4842   5.424   2.493   9.328  1.1338 -1.3807  0.8073
   36POPC  C213 4843   5.625   2.464   9.338 -0.1703  0.0388 -0.2833
   36POPC  H13R 4844   5.610   2.366   9.390  0.5140  0.1471  0.1385
   36POPC  H13S 4845   5.716   2.501   9.391 -1.5212  1.1543  1.3809
   36POPC  C214 4846   5.646   2.459   9.190 -0.9474 -0.3304  0.6192
   36POPC  H14R 4847   5.659   2.566   9.164 -0.5771 -0.8730 -1.6363
   36POPC  H14S 4848   5.554   2.416   9.145 -0.3530 -0.8322 -0.1467
   36POPC  C215 4849   5.765   2.378   9.138  0.5039 -0.0168 -0.6760
   36POPC  H15R 4850   5.762   2.269   9.161 -2.8207  0.2412  0.6650
   36POPC  H15S 4851   5.860   2.417   9.179 -0.4049  3.6493 -1.6903
   36POPC  C216 4852   5.776   2.390   8.990 -0.0631 -0.2051  0.2839
   36POPC  H16R 4853   5.782   2.495   8.954 -0.5876 -0.6818 -1.2306
   36POPC  H16S 4854   5.679   2.361   8.945 -1.9042  3.2988  1.5731
   36POPC  C217 4855   5.877   2.300   8.918 -0.7832  0.3283 -0.0258
   36POPC  H17R 4856   5.850   2.193   8.936  0.9088  0.1664  2.0198
   36POPC  H17S 4857   5.984   2.314   8.948 -1.1239  1.4406  0.7576
   36POPC  C218 4858   5.866   2.322   8.763  0.1349 -0.1584  0.4768
   36POPC  H18R 4859   5.927   2.247   8.709 -0.1546  0.3223 -0.5289
   36POPC  H18S 4860   5.890   2.425   8.729 -0.8000  0.0442  0.4016
   36POPC  H18T 4861   5.763   2.307   8.723  0.4537  0.6410 -0.6944
   36POPC   C33 4862   4.669   2.510  10.466  0.5649 -0.5593 -0.2760
   36POPC   H3X 4863   4.624   2.609  10.492 -1.6463 -1.1569 -1.5369
   36POPC   H3Y 4864   4.579   2.448  10.449 -1.9122  2.5322  0.5770
   36POPC   C34 4865   4.763   2.519  10.346  0.3436  0.0071 -0.6837
   36POPC   H4X 4866   4.867   2.556  10.353  0.6344 -0.6252 -1.4631
   36POPC   H4Y 4867   4.722   2.588  10.269  1.0393  2.7295  1.2158
   36POPC   C35 4868   4.783   2.382  10.270  0.7972  0.0035 -0.8541
   36POPC   H5X 4869   4.689   2.363  10.213  0.2691  0.6096 -0.2157
   36POPC   H5Y 4870   4.795   2.296  10.339  0.6226 -1.2511 -2.3340
   36POPC   C36 4871   4.904   2.389  10.180  0.2956 -0.6986 -0.2133
   36POPC   H6X 4872   4.939   2.286  10.156  0.6926 -0.3886 -0.9740
   36POPC   H6Y 4873   4.994   2.440  10.222  0.0096 -1.9324  2.1032
   36POPC   C37 4874   4.867   2.449  10.039  0.3690 -0.3726 -0.1497
   36POPC   H7X 4875   4.820   2.549  10.046 -0.0693 -0.5471 -0.5626
   36POPC   H7Y 4876   4.797   2.381   9.986 -0.4943  0.5847 -0.2464
   36POPC   C38 4877   4.994   2.456   9.965  0.9022  0.2571 -0.2143
   36POPC   H8X 4878   5.065   2.375   9.993  0.2669 -1.4726 -3.1559
   36POPC   H8Y 4879   5.043   2.551   9.995  0.7455 -0.0131  0.9484
   36POPC   C39 4880   4.968   2.457   9.811 -0.0592  0.6045 -0.0719
   36POPC   H9X 4881   4.902   2.369   9.797  0.6317 -0.1779  1.3122
   36POPC   H9Y 4882   5.068   2.441   9.766 -0.4442 -1.1969 -0.3625
   36POPC  C310 4883   4.895   2.578   9.751 -0.3007  0.6971  0.0401
   36POPC  H10X 4884   4.956   2.668   9.774 -0.1134  1.1756 -2.1406
   36POPC  H10Y 4885   4.805   2.600   9.812 -1.3842  0.3788 -1.4129
   36POPC  C311 4886   4.857   2.561   9.602 -0.0420  0.0745 -0.5459
   36POPC  H11X 4887   4.797   2.645   9.561  1.5855  2.3811  1.4155
   36POPC  H11Y 4888   4.797   2.468   9.597  0.6684 -0.4073 -0.3192
   36POPC  C312 4889   4.974   2.548   9.503 -0.0873  0.1699  0.6150
   36POPC  H12X 4890   5.044   2.471   9.541 -0.6087  0.1769  1.6441
   36POPC  H12Y 4891   5.034   2.639   9.482 -1.9504  0.7265 -3.0500
   36POPC  C313 4892   4.915   2.499   9.369 -0.3383  0.1923 -0.1303
   36POPC  H13X 4893   4.849   2.573   9.318  1.0121  1.9341  0.5311
   36POPC  H13Y 4894   4.848   2.415   9.396 -1.2680  0.1563 -2.3150
   36POPC  C314 4895   5.021   2.463   9.263 -0.6356 -0.0068  0.0477
   36POPC  H14X 4896   5.103   2.411   9.317  2.2399  4.1674  0.2454
   36POPC  H14Y 4897   5.067   2.556   9.222  0.6559 -1.3531 -1.6948
   36POPC  C315 4898   4.959   2.378   9.151  0.0231 -0.2238 -0.1926
   36POPC  H15X 4899   4.876   2.425   9.094  0.1890  0.1886 -0.0940
   36POPC  H15Y 4900   4.918   2.291   9.207  0.6318  0.9795  2.2888
   36POPC  C316 4901   5.059   2.312   9.060  0.3087  0.5006  0.3712
   36POPC  H16X 4902   5.103   2.391   8.995  1.1999  0.9474  1.4914
   36POPC  H16Y 4903   5.013   2.234   8.995  1.9488 -0.7562  0.6400
   36POPC  H16Z 4904   5.142   2.266   9.118 -0.8181 -3.3149 -0.7482
   37POPC     N 4905   4.951   6.384   6.510  0.3040 -0.4499  0.3937
   37POPC   C12 4906   4.997   6.333   6.642  0.3906  0.8347  0.3768
   37POPC  H12A 4907   4.923   6.366   6.713 -1.9369  1.5815 -2.2071
   37POPC  H12B 4908   5.092   6.377   6.669  0.8583  0.0208  0.1327
   37POPC   C13 4909   5.036   6.333   6.400 -0.6924  0.1216  0.2825
   37POPC  H13A 4910   4.999   6.344   6.299 -0.3721 -1.1087  0.0164
   37POPC  H13B 4911   5.132   6.384   6.408 -0.8045  0.7154 -1.5383
   37POPC  H13C 4912   5.056   6.228   6.408  0.7223  0.3964  0.6441
   37POPC   C14 4913   4.815   6.330   6.482  0.4755 -0.7470 -0.7346
   37POPC  H14A 4914   4.762   6.367   6.396 -0.3423  0.0330  0.0823
   37POPC  H14B 4915   4.822   6.222   6.473  4.3295 -0.5768 -1.2647
   37POPC  H14C 4916   4.742   6.348   6.560  1.4140 -0.8595  0.1973
   37POPC   C15 4917   4.956   6.536   6.507  0.0298  0.1961  0.5846
   37POPC  H15A 4918   5.052   6.582   6.520 -0.7903  2.5801 -1.1831
   37POPC  H15B 4919   4.898   6.575   6.589  1.0158  1.5211  0.6694
   37POPC  H15C 4920   4.923   6.572   6.411  1.8404  0.9585  0.2078
   37POPC   C11 4921   5.011   6.175   6.657  0.3417 -0.0634 -0.2563
   37POPC  H11A 4922   5.060   6.141   6.751 -0.4177 -0.4571  0.0081
   37POPC  H11B 4923   5.074   6.135   6.575 -0.7893  1.0117 -1.7082
   37POPC     P 4924   4.785   6.121   6.776  0.0067 -0.5400 -0.4974
   37POPC   O13 4925   4.670   6.041   6.744  0.5852 -0.1206  0.1260
   37POPC   O14 4926   4.761   6.266   6.803  0.0750  0.3515 -0.6846
   37POPC   O12 4927   4.877   6.115   6.653  0.1445  0.1930  0.1586
   37POPC   O11 4928   4.873   6.060   6.897  0.9225  0.6300  0.1528
   37POPC    C1 4929   4.896   5.922   6.906  0.0910  1.1242  0.0278
   37POPC    HA 4930   5.002   5.905   6.934 -0.1567  0.0610  0.3725
   37POPC    HB 4931   4.894   5.861   6.812  1.0203 -1.9330  1.8502
   37POPC    C2 4932   4.807   5.854   7.010 -0.4454  0.0044  0.2438
   37POPC    HS 4933   4.707   5.901   6.997 -0.1951  1.2019  2.2722
   37POPC   O21 4934   4.860   5.880   7.141 -0.9615 -0.0199 -0.4526
   37POPC   C21 4935   4.772   5.869   7.242  0.4808  0.4678 -0.1663
   37POPC   O22 4936   4.650   5.853   7.228 -0.7235  0.2155 -0.3839
   37POPC   C22 4937   4.851   5.875   7.376 -0.0679  0.6063  0.4579
   37POPC   H2R 4938   4.857   5.983   7.405 -0.3044  0.6690  0.2703
   37POPC   H2S 4939   4.951   5.833   7.350  0.4470  1.4400  0.9989
   37POPC    C3 4940   4.792   5.702   7.005  0.2742  0.0070  0.2069
   37POPC    HX 4941   4.776   5.676   6.898  0.3833 -1.6076  0.5481
   37POPC    HY 4942   4.689   5.671   7.036  0.2789 -0.4950 -0.2546
   37POPC   O31 4943   4.900   5.631   7.066 -0.3613  0.2914  0.2107
   37POPC   C31 4944   4.993   5.595   6.983  0.2049 -0.3027  0.0620
   37POPC   O32 4945   5.017   5.636   6.870 -0.3580  0.3353 -0.4117
   37POPC   C32 4946   5.094   5.525   7.075  0.1112  0.1580 -0.1185
   37POPC   H2X 4947   5.058   5.419   7.078  0.6209 -0.0900 -1.7111
   37POPC   H2Y 4948   5.085   5.577   7.173  0.2541  3.6000 -1.8143
   37POPC   C23 4949   4.777   5.817   7.494 -0.5543 -0.4619 -0.4441
   37POPC   H3R 4950   4.741   5.715   7.470 -2.2247  0.0018  0.0061
   37POPC   H3S 4951   4.686   5.877   7.514 -0.2032 -0.5559  1.6122
   37POPC   C24 4952   4.856   5.824   7.623  0.3457  0.2693  0.5346
   37POPC   H4R 4953   4.957   5.778   7.622 -0.3230 -1.2609 -0.2407
   37POPC   H4S 4954   4.803   5.768   7.703  0.5185  0.3452  0.7034
   37POPC   C25 4955   4.874   5.966   7.675 -0.1564  0.3303 -0.3183
   37POPC   H5R 4956   4.772   6.010   7.671 -0.4167 -0.3408 -1.5756
   37POPC   H5S 4957   4.938   6.020   7.602  1.2207  1.4747  1.6367
   37POPC   C26 4958   4.940   5.982   7.814 -0.4478 -0.1589 -0.8556
   37POPC   H6R 4959   4.982   6.083   7.835 -1.4080  0.1046 -0.1285
   37POPC   H6S 4960   5.023   5.908   7.815 -0.5347 -0.2734 -1.8954
   37POPC   C27 4961   4.855   5.921   7.931  0.2026 -0.2249 -0.6516
   37POPC   H7R 4962   4.834   5.816   7.899 -0.0107 -0.8578  1.4328
   37POPC   H7S 4963   4.759   5.977   7.932 -0.0272 -0.6198 -0.2581
   37POPC   C28 4964   4.929   5.913   8.066  0.4652  0.8670 -0.1699
   37POPC   H8R 4965   5.015   5.844   8.054 -0.2245  0.0607 -0.6825
   37POPC   H8S 4966   4.858   5.850   8.124  1.0031 -0.9671 -1.4075
   37POPC   C29 4967   4.954   6.042   8.131  0.2402  0.2812  0.0542
   37POPC   H91 4968   5.054   6.080   8.105  0.6935 -0.9715 -0.0916
   37POPC  C210 4969   4.867   6.102   8.220 -0.1625  0.2434  0.4390
   37POPC  H101 4970   4.886   6.201   8.262 -1.1827  1.2780 -1.4163
   37POPC  C211 4971   4.732   6.054   8.264 -0.2289 -0.5405  0.5977
   37POPC  H11R 4972   4.700   5.961   8.212  1.4583 -1.4131  1.0435
   37POPC  H11S 4973   4.658   6.133   8.241 -1.9818 -2.4664 -0.7920
   37POPC  C212 4974   4.719   6.010   8.413 -0.2493 -0.1561  0.4109
   37POPC  H12R 4975   4.610   5.996   8.427 -1.0920  4.4935  0.1134
   37POPC  H12S 4976   4.748   6.081   8.494 -0.1831 -0.3796  0.5875
   37POPC  C213 4977   4.780   5.873   8.447  0.2160 -0.5851 -0.4606
   37POPC  H13R 4978   4.877   5.888   8.395  0.1342  1.0775 -0.1871
   37POPC  H13S 4979   4.717   5.801   8.391  1.6323 -1.4563 -0.9947
   37POPC  C214 4980   4.790   5.840   8.597  0.3420 -0.1209  0.2989
   37POPC  H14R 4981   4.805   5.937   8.649 -0.7990 -0.6244  1.6380
   37POPC  H14S 4982   4.875   5.771   8.615  1.0682  0.2640 -1.4708
   37POPC  C215 4983   4.664   5.791   8.663 -0.2842 -0.5567 -0.1501
   37POPC  H15R 4984   4.592   5.860   8.614 -0.4189 -1.1457 -0.7833
   37POPC  H15S 4985   4.661   5.830   8.767 -1.7312  1.6490 -0.9451
   37POPC  C216 4986   4.611   5.652   8.651  0.2192  0.0651  0.5834
   37POPC  H16R 4987   4.642   5.593   8.740 -1.6701 -0.9361  0.6288
   37POPC  H16S 4988   4.655   5.604   8.560 -3.2986 -0.4915 -0.9881
   37POPC  C217 4989   4.460   5.644   8.641  0.9409  0.6459  0.3657
   37POPC  H17R 4990   4.441   5.536   8.624 -0.2059  0.6231  1.6254
   37POPC  H17S 4991   4.427   5.706   8.554  1.9454 -0.6458 -0.9913
   37POPC  C218 4992   4.382   5.680   8.768 -0.3987  0.3707  0.1111
   37POPC  H18R 4993   4.435   5.641   8.858  0.8576 -0.3135 -0.8977
   37POPC  H18S 4994   4.277   5.645   8.777 -0.3341  0.2507  0.4252
   37POPC  H18T 4995   4.379   5.791   8.763 -0.2187  0.3224 -1.7623
   37POPC   C33 4996   5.240   5.536   7.035  0.4492  0.5056 -0.0110
   37POPC   H3X 4997   5.259   5.640   7.004  1.9952  0.7123  1.4717
   37POPC   H3Y 4998   5.259   5.472   6.946  0.4954  0.1810  0.2279
   37POPC   C34 4999   5.342   5.489   7.144 -0.0165 -0.0212  0.6716
   37POPC   H4X 5000   5.332   5.560   7.230 -2.5198  1.3229 -0.6166
   37POPC   H4Y 5001   5.441   5.509   7.098 -0.1508  0.7291  0.6882
   37POPC   C35 5002   5.337   5.345   7.183 -0.1315  0.1051  0.2317
   37POPC   H5X 5003   5.349   5.298   7.083 -0.1989  1.0024 -0.2082
   37POPC   H5Y 5004   5.239   5.320   7.230  0.5006 -0.6174  1.2221
   37POPC   C36 5005   5.434   5.305   7.287 -0.7979 -0.2093 -0.2207
   37POPC   H6X 5006   5.537   5.330   7.253 -1.3629  0.6030 -1.4234
   37POPC   H6Y 5007   5.429   5.194   7.295 -0.4089 -0.1323  1.5788
   37POPC   C37 5008   5.408   5.364   7.426  0.0906  0.2338  0.2336
   37POPC   H7X 5009   5.301   5.340   7.445 -0.5390  0.9294 -2.1436
   37POPC   H7Y 5010   5.422   5.474   7.426 -1.4302  0.5087 -2.3436
   37POPC   C38 5011   5.499   5.303   7.540  0.8117  0.5282 -0.0767
   37POPC   H8X 5012   5.608   5.299   7.521  0.4805  1.3941 -2.4348
   37POPC   H8Y 5013   5.455   5.204   7.565  1.8116  0.4724  1.6437
   37POPC   C39 5014   5.504   5.401   7.660 -0.2574 -0.6065  0.4923
   37POPC   H9X 5015   5.411   5.461   7.672 -0.6061 -1.1062  0.2980
   37POPC   H9Y 5016   5.581   5.478   7.640 -2.1576  1.8503  2.0146
   37POPC  C310 5017   5.525   5.338   7.799 -0.4948  0.0690 -0.2440
   37POPC  H10X 5018   5.633   5.345   7.823  0.0244 -0.5525 -2.2389
   37POPC  H10Y 5019   5.497   5.231   7.791  1.5545 -0.4818 -0.6833
   37POPC  C311 5020   5.440   5.406   7.904 -0.6349 -0.0570  0.1266
   37POPC  H11X 5021   5.332   5.382   7.893 -0.8637  1.0058 -0.0703
   37POPC  H11Y 5022   5.452   5.512   7.872  0.4095 -0.1126  0.3211
   37POPC  C312 5023   5.477   5.382   8.058  0.2286 -0.7097 -0.4857
   37POPC  H12X 5024   5.581   5.419   8.071  0.1990 -0.7311 -0.1773
   37POPC  H12Y 5025   5.483   5.272   8.075 -0.6126 -0.5937  0.6476
   37POPC  C313 5026   5.383   5.451   8.162 -0.0702 -0.0742  0.0077
   37POPC  H13X 5027   5.283   5.403   8.160 -0.4379  0.6178  0.8865
   37POPC  H13Y 5028   5.380   5.559   8.135  0.4895 -0.0227  0.1372
   37POPC  C314 5029   5.452   5.432   8.298  0.2442 -0.1113 -0.6168
   37POPC  H14X 5030   5.545   5.492   8.292 -1.0636  1.9375 -1.6784
   37POPC  H14Y 5031   5.468   5.323   8.316 -1.6174 -0.9991 -3.5503
   37POPC  C315 5032   5.358   5.476   8.408  0.1006  0.4249 -0.5100
   37POPC  H15X 5033   5.272   5.407   8.414  0.7734 -0.2844  1.5485
   37POPC  H15Y 5034   5.320   5.579   8.388  0.0216  0.7677  1.2828
   37POPC  C316 5035   5.435   5.476   8.541  0.4167 -0.2924 -0.4298
   37POPC  H16X 5036   5.520   5.548   8.536 -0.9539  1.4143 -0.0097
   37POPC  H16Y 5037   5.466   5.370   8.557 -2.0484 -1.6488 -3.5382
   37POPC  H16Z 5038   5.361   5.515   8.614  0.0894  0.3469 -1.0899
   38POPC     N 5039   4.794   2.058   6.663 -0.2478  0.0801 -0.2944
   38POPC   C12 5040   4.818   1.914   6.702  0.0850 -0.0037  0.3462
   38POPC  H12A 5041   4.725   1.879   6.743  0.4825 -1.9614 -0.3094
   38POPC  H12B 5042   4.893   1.916   6.779  1.7460  0.6342 -1.2072
   38POPC   C13 5043   4.767   2.141   6.786  0.2312  0.2984  1.4378
   38POPC  H13A 5044   4.835   2.117   6.867  1.4236 -0.7675  0.1871
   38POPC  H13B 5045   4.782   2.242   6.752 -0.2841 -0.0403  0.1596
   38POPC  H13C 5046   4.665   2.127   6.819  0.1410  1.1661  1.5432
   38POPC   C14 5047   4.923   2.114   6.606 -0.3411  0.0636 -0.0214
   38POPC  H14A 5048   4.925   2.221   6.595  1.3871  0.2289  1.5058
   38POPC  H14B 5049   5.002   2.081   6.672 -1.1699 -1.0955  0.4225
   38POPC  H14C 5050   4.948   2.067   6.512  1.1342  0.5348  0.1178
   38POPC   C15 5051   4.679   2.076   6.572  0.6196 -0.4091 -0.3819
   38POPC  H15A 5052   4.671   1.992   6.504  0.3993 -2.9604  2.5567
   38POPC  H15B 5053   4.683   2.165   6.512 -0.8828 -0.3474 -0.4347
   38POPC  H15C 5054   4.588   2.065   6.629  1.0020 -1.5630  0.0282
   38POPC   C11 5055   4.854   1.807   6.595 -0.5164 -0.0615  0.7159
   38POPC  H11A 5056   4.854   1.711   6.652 -0.8269  1.4223  3.3585
   38POPC  H11B 5057   4.957   1.829   6.559 -0.6977 -0.6622 -0.2037
   38POPC     P 5058   4.628   1.714   6.515  0.0657  0.0282  0.1477
   38POPC   O13 5059   4.639   1.575   6.469  0.1419  0.3524 -0.6647
   38POPC   O14 5060   4.513   1.784   6.453 -0.1240  0.1712  0.0949
   38POPC   O12 5061   4.764   1.789   6.482  0.0559  0.2640  0.1831
   38POPC   O11 5062   4.624   1.713   6.672  0.1288 -0.4591 -0.3717
   38POPC    C1 5063   4.507   1.701   6.741  0.1300  0.0557 -0.4043
   38POPC    HA 5064   4.435   1.634   6.690  0.5082 -0.4513 -0.2842
   38POPC    HB 5065   4.458   1.800   6.755  0.3095  0.1057 -0.1284
   38POPC    C2 5066   4.544   1.649   6.887 -0.7419  0.1784 -0.6293
   38POPC    HS 5067   4.598   1.730   6.941  1.6957 -1.9368  0.3206
   38POPC   O21 5068   4.634   1.539   6.866  0.0364  0.2540  0.2373
   38POPC   C21 5069   4.716   1.519   6.966 -0.3830  0.1731  0.0528
   38POPC   O22 5070   4.724   1.594   7.063 -0.1591  0.4220 -0.0704
   38POPC   C22 5071   4.778   1.378   6.952  0.2290 -0.5226 -0.1701
   38POPC   H2R 5072   4.885   1.383   6.982  0.6361 -2.6506 -1.1214
   38POPC   H2S 5073   4.775   1.345   6.846 -1.0915 -1.1794  0.0431
   38POPC    C3 5074   4.418   1.609   6.969 -0.1847 -0.0344 -0.0195
   38POPC    HX 5075   4.374   1.522   6.915  0.4251 -0.3314 -0.0364
   38POPC    HY 5076   4.342   1.690   6.961 -0.1054 -0.0325 -0.8611
   38POPC   O31 5077   4.442   1.567   7.109 -0.3672 -0.2284  0.2516
   38POPC   C31 5078   4.471   1.671   7.191 -0.1094 -0.4026  0.4913
   38POPC   O32 5079   4.470   1.785   7.158  0.0194 -0.4590  0.2396
   38POPC   C32 5080   4.522   1.616   7.319 -0.3489 -0.0938  0.5667
   38POPC   H2X 5081   4.558   1.513   7.299  0.9508  0.5540 -0.6044
   38POPC   H2Y 5082   4.437   1.595   7.387  1.2936 -0.8189  2.5111
   38POPC   C23 5083   4.708   1.277   7.039 -0.5499 -0.1623  0.0191
   38POPC   H3R 5084   4.718   1.176   6.993 -0.6168  0.1726 -0.7495
   38POPC   H3S 5085   4.599   1.297   7.041 -0.5298 -0.0430  2.0138
   38POPC   C24 5086   4.753   1.278   7.188  0.2665  0.1795 -0.6451
   38POPC   H4R 5087   4.733   1.381   7.227 -0.1068  0.0483 -0.4872
   38POPC   H4S 5088   4.860   1.250   7.185  0.2702 -0.5975  2.7023
   38POPC   C25 5089   4.659   1.192   7.275  0.3602 -0.8149 -0.4049
   38POPC   H5R 5090   4.658   1.086   7.241 -0.5719 -0.9178 -0.0835
   38POPC   H5S 5091   4.552   1.222   7.267 -0.0222 -1.7040  1.0223
   38POPC   C26 5092   4.695   1.214   7.421 -0.2183 -0.0410  0.3394
   38POPC   H6R 5093   4.676   1.321   7.443  0.6490 -0.0925  1.3995
   38POPC   H6S 5094   4.800   1.201   7.453  0.0192  1.5334  0.2724
   38POPC   C27 5095   4.592   1.154   7.514  0.2044  0.4446  0.1766
   38POPC   H7R 5096   4.567   1.052   7.479  3.0373  0.7258 -3.2351
   38POPC   H7S 5097   4.503   1.220   7.514 -0.5319 -0.3770  3.1439
   38POPC   C28 5098   4.649   1.149   7.664  0.5288 -0.0959 -0.0832
   38POPC   H8R 5099   4.734   1.078   7.660  1.6964  1.1495  1.3322
   38POPC   H8S 5100   4.565   1.101   7.719 -1.5089  0.2018 -2.7275
   38POPC   C29 5101   4.685   1.282   7.725  0.4748 -0.1337 -0.5852
   38POPC   H91 5102   4.739   1.354   7.661  0.0665 -0.1378 -0.9420
   38POPC  C210 5103   4.644   1.322   7.851  0.0214  0.2172 -0.9195
   38POPC  H101 5104   4.674   1.422   7.886 -1.2457  0.5371 -0.7169
   38POPC  C211 5105   4.560   1.250   7.950  0.1004 -0.4816  0.4079
   38POPC  H11R 5106   4.524   1.155   7.905 -0.1997  0.6916 -2.0125
   38POPC  H11S 5107   4.475   1.315   7.980  0.4600 -0.9227  2.5769
   38POPC  C212 5108   4.638   1.209   8.077 -0.2901  0.2924 -0.1414
   38POPC  H12R 5109   4.670   1.296   8.138  2.2442 -1.4968  1.3289
   38POPC  H12S 5110   4.731   1.151   8.055 -1.3692 -2.4152  1.8257
   38POPC  C213 5111   4.565   1.116   8.166  0.8648 -0.6947 -0.1698
   38POPC  H13R 5112   4.568   1.010   8.133  0.5670 -0.3879 -1.2010
   38POPC  H13S 5113   4.458   1.147   8.176  0.5993 -1.2687 -1.1220
   38POPC  C214 5114   4.615   1.127   8.309  0.2735 -0.5538 -0.9242
   38POPC  H14R 5115   4.581   1.222   8.355  0.3116 -1.4990  1.2291
   38POPC  H14S 5116   4.726   1.133   8.315  0.1403  1.2884  0.8189
   38POPC  C215 5117   4.554   1.022   8.409  0.0513  0.4604 -0.5897
   38POPC  H15R 5118   4.564   0.919   8.369  0.1742  0.9201 -1.7811
   38POPC  H15S 5119   4.445   1.041   8.418 -0.3846 -2.5783  3.0071
   38POPC  C216 5120   4.613   1.033   8.560 -0.3647 -0.0655 -0.4430
   38POPC  H16R 5121   4.603   1.140   8.590  3.0159  0.5234 -0.9821
   38POPC  H16S 5122   4.721   1.013   8.545 -0.3738 -0.6034  0.1404
   38POPC  C217 5123   4.551   0.928   8.651  0.4025 -0.0359  0.7623
   38POPC  H17R 5124   4.581   0.826   8.618  2.3541  1.3976 -2.4250
   38POPC  H17S 5125   4.441   0.936   8.641  0.5436  0.0888 -0.9052
   38POPC  C218 5126   4.583   0.935   8.801  0.0875 -0.5249 -0.4093
   38POPC  H18R 5127   4.523   0.871   8.869 -0.2936  1.0077  0.7814
   38POPC  H18S 5128   4.579   1.040   8.838  0.3026  0.0184 -1.8538
   38POPC  H18T 5129   4.689   0.905   8.819 -0.0981 -1.2651 -0.5272
   38POPC   C33 5130   4.638   1.704   7.378  0.1016  0.3396 -0.1472
   38POPC   H3X 5131   4.592   1.800   7.412  0.4688 -0.4514  2.8074
   38POPC   H3Y 5132   4.703   1.734   7.293  2.2189 -3.2453  0.0228
   38POPC   C34 5133   4.711   1.635   7.492  0.1420  0.0672  0.4059
   38POPC   H4X 5134   4.791   1.576   7.444  0.6083  0.8206  0.2400
   38POPC   H4Y 5135   4.646   1.576   7.560  0.8837 -0.5696  0.5721
   38POPC   C35 5136   4.783   1.738   7.583 -0.1619 -0.2753 -0.0823
   38POPC   H5X 5137   4.713   1.794   7.648 -3.3576 -2.3917 -1.4003
   38POPC   H5Y 5138   4.836   1.810   7.517 -0.8992 -0.6960 -1.1620
   38POPC   C36 5139   4.891   1.669   7.668 -0.2900 -0.4030 -0.4457
   38POPC   H6X 5140   4.972   1.616   7.614 -0.4116 -0.3116 -0.7198
   38POPC   H6Y 5141   4.841   1.582   7.717  2.5868 -0.7093  2.2670
   38POPC   C37 5142   4.973   1.764   7.764  0.9034  0.2580 -1.0838
   38POPC   H7X 5143   4.904   1.820   7.832  1.2977 -1.2512  0.6350
   38POPC   H7Y 5144   5.025   1.837   7.699 -0.7761  1.8355 -0.7483
   38POPC   C38 5145   5.059   1.691   7.861 -0.4316  0.2983  0.5446
   38POPC   H8X 5146   5.105   1.600   7.818 -1.7662 -0.5539  0.8585
   38POPC   H8Y 5147   5.000   1.655   7.949 -2.2626  3.1974  0.6253
   38POPC   C39 5148   5.165   1.788   7.917  0.1565  0.0390  0.3411
   38POPC   H9X 5149   5.110   1.880   7.945  0.4787  0.1386  0.6581
   38POPC   H9Y 5150   5.233   1.820   7.835  1.9699 -0.5462  1.5415
   38POPC  C310 5151   5.234   1.726   8.040 -0.1268 -0.4308  0.1431
   38POPC  H10X 5152   5.277   1.626   8.017 -0.7436 -0.5797 -0.3972
   38POPC  H10Y 5153   5.151   1.733   8.113  0.1685 -0.0917  0.4510
   38POPC  C311 5154   5.344   1.823   8.089 -0.0420  0.4110  0.3298
   38POPC  H11X 5155   5.318   1.930   8.097  2.7217  1.2854 -1.0769
   38POPC  H11Y 5156   5.434   1.819   8.024  3.4613  2.6308  4.5122
   38POPC  C312 5157   5.387   1.758   8.223  0.6314  0.0858  0.5650
   38POPC  H12X 5158   5.437   1.659   8.210  0.0380 -0.1128 -0.2742
   38POPC  H12Y 5159   5.296   1.743   8.284  0.3126 -0.8235 -0.1141
   38POPC  C313 5160   5.477   1.853   8.310  0.6632 -0.5063  0.5831
   38POPC  H13X 5161   5.415   1.937   8.347 -0.7452 -1.4069  0.3616
   38POPC  H13Y 5162   5.563   1.898   8.256 -1.1367  0.3013 -1.7733
   38POPC  C314 5163   5.527   1.778   8.425  0.2810 -0.1066  0.0449
   38POPC  H14X 5164   5.575   1.685   8.386 -2.4025 -1.3510 -0.5664
   38POPC  H14Y 5165   5.443   1.743   8.489 -0.7328 -0.3624 -1.3623
   38POPC  C315 5166   5.637   1.850   8.505  0.5799 -0.0004 -1.1869
   38POPC  H15X 5167   5.585   1.933   8.558  0.2881  1.5578 -3.6995
   38POPC  H15Y 5168   5.716   1.896   8.442  1.5127  0.4413  0.2487
   38POPC  C316 5169   5.705   1.752   8.607 -0.4540  0.0275 -0.9760
   38POPC  H16X 5170   5.634   1.750   8.693  0.5578  1.9216 -0.0369
   38POPC  H16Y 5171   5.794   1.802   8.651 -1.8831 -0.0494  2.3103
   38POPC  H16Z 5172   5.720   1.648   8.570  1.3563 -0.1350  0.0877
   39POPC     N 5173   3.127   4.277   6.464 -0.5286 -0.1984  0.1688
   39POPC   C12 5174   3.249   4.195   6.494 -0.5609 -0.4865 -0.0145
   39POPC  H12A 5175   3.336   4.256   6.511 -0.4728 -0.5862 -0.1032
   39POPC  H12B 5176   3.266   4.155   6.396  0.7374 -1.5432  0.6176
   39POPC   C13 5177   3.159   4.365   6.349 -0.7400 -0.8603 -0.3032
   39POPC  H13A 5178   3.253   4.417   6.360 -1.8701  1.3526 -0.4257
   39POPC  H13B 5179   3.177   4.316   6.255  1.5613  0.0048 -0.3769
   39POPC  H13C 5180   3.079   4.438   6.353  0.0632  0.0263  3.9501
   39POPC   C14 5181   3.015   4.187   6.415 -0.0793 -0.0548 -0.3619
   39POPC  H14A 5182   3.004   4.102   6.481  0.9130  0.2516  0.2341
   39POPC  H14B 5183   2.921   4.238   6.428 -0.5796 -1.5225  2.7987
   39POPC  H14C 5184   3.024   4.151   6.314  0.2382  1.3543 -0.8621
   39POPC   C15 5185   3.082   4.358   6.582 -0.5979 -0.6057 -0.5386
   39POPC  H15A 5186   2.994   4.416   6.563  0.9755  2.5320  1.0793
   39POPC  H15B 5187   3.159   4.422   6.623 -2.3566 -1.2956  4.5909
   39POPC  H15C 5188   3.060   4.291   6.664 -2.0185  0.6253  0.1226
   39POPC   C11 5189   3.250   4.085   6.594  0.3488 -0.1189 -0.3334
   39POPC  H11A 5190   3.184   4.119   6.677  0.6601  1.3700 -0.6612
   39POPC  H11B 5191   3.355   4.086   6.631 -0.2427  0.8958  1.4391
   39POPC     P 5192   3.283   3.885   6.447  0.3332 -0.0689  0.1040
   39POPC   O13 5193   3.275   3.954   6.320  0.2175 -0.2082  0.2233
   39POPC   O14 5194   3.254   3.742   6.442 -0.1561  0.3819 -0.1820
   39POPC   O12 5195   3.198   3.960   6.557  0.2329 -1.0642 -0.5140
   39POPC   O11 5196   3.435   3.902   6.491 -0.8260 -0.3131  0.0497
   39POPC    C1 5197   3.502   3.815   6.582  0.8179  0.3625  0.1019
   39POPC    HA 5198   3.575   3.756   6.522 -0.1811 -0.4594 -0.3406
   39POPC    HB 5199   3.429   3.740   6.620 -0.2696  1.2651 -0.1792
   39POPC    C2 5200   3.566   3.877   6.711  0.8194  0.3724  0.4627
   39POPC    HS 5201   3.620   3.793   6.759  1.2238 -1.2905 -2.6861
   39POPC   O21 5202   3.467   3.944   6.795  0.3847 -0.6099  0.6779
   39POPC   C21 5203   3.397   3.865   6.876 -0.2530  1.1531  0.1981
   39POPC   O22 5204   3.423   3.750   6.914 -0.7835  0.1756  0.3828
   39POPC   C22 5205   3.268   3.936   6.902  0.6152  0.4797 -0.4453
   39POPC   H2R 5206   3.212   3.877   6.978  1.2304 -0.2265 -0.5231
   39POPC   H2S 5207   3.218   3.939   6.803  1.0467  4.8338 -0.7367
   39POPC    C3 5208   3.667   3.985   6.672  0.1648  0.0932 -0.2183
   39POPC    HX 5209   3.611   4.073   6.634 -1.3706 -0.2317  1.1702
   39POPC    HY 5210   3.733   3.950   6.590  0.2785  1.0564 -0.5489
   39POPC   O31 5211   3.752   4.022   6.781 -0.3241  0.5174 -0.1672
   39POPC   C31 5212   3.741   4.131   6.855  0.6297  0.5146  0.0543
   39POPC   O32 5213   3.651   4.211   6.838 -0.3170 -0.1273  0.7169
   39POPC   C32 5214   3.855   4.152   6.947  0.0584 -0.0596 -0.1473
   39POPC   H2X 5215   3.930   4.071   6.936 -0.5274 -0.5249 -0.8034
   39POPC   H2Y 5216   3.896   4.248   6.912 -1.4224  1.0916  1.1139
   39POPC   C23 5217   3.294   4.083   6.954  0.3210 -0.2553 -0.0475
   39POPC   H3R 5218   3.195   4.132   6.960 -1.1142 -2.9921  0.3036
   39POPC   H3S 5219   3.362   4.146   6.894 -1.0578 -0.1870 -1.5948
   39POPC   C24 5220   3.341   4.077   7.098 -0.2014  0.3497  0.1301
   39POPC   H4R 5221   3.445   4.044   7.078  1.2631  4.2161  0.6325
   39POPC   H4S 5222   3.289   3.989   7.143  0.2684 -0.2082 -0.3986
   39POPC   C25 5223   3.341   4.204   7.190  0.1743  1.2488 -0.4777
   39POPC   H5R 5224   3.237   4.243   7.193  0.9826  3.5357  2.2779
   39POPC   H5S 5225   3.401   4.284   7.142 -1.8370  1.4674 -2.8390
   39POPC   C26 5226   3.392   4.177   7.339 -0.0455 -0.4207  0.6212
   39POPC   H6R 5227   3.498   4.145   7.344 -0.1643 -0.8395  0.5045
   39POPC   H6S 5228   3.334   4.095   7.387  2.7740 -2.4342  0.8800
   39POPC   C27 5229   3.367   4.300   7.426 -0.2142  0.3309  0.5067
   39POPC   H7R 5230   3.261   4.288   7.457 -1.4087  0.2647 -3.1442
   39POPC   H7S 5231   3.371   4.380   7.349  0.7568  0.5413  0.7628
   39POPC   C28 5232   3.473   4.303   7.537  0.1067 -0.3563 -0.1625
   39POPC   H8R 5233   3.567   4.298   7.478  0.6824  1.4296  0.5604
   39POPC   H8S 5234   3.473   4.210   7.599 -0.2261 -1.1968 -1.3768
   39POPC   C29 5235   3.462   4.422   7.618 -0.8012 -0.9088 -0.3957
   39POPC   H91 5236   3.402   4.507   7.580  0.4476  0.4130  0.4826
   39POPC  C210 5237   3.506   4.447   7.743  0.2430  0.4934  1.0585
   39POPC  H101 5238   3.477   4.539   7.795  1.1325  1.9245 -0.8639
   39POPC  C211 5239   3.578   4.352   7.834  0.4764 -0.2975 -0.2924
   39POPC  H11R 5240   3.681   4.393   7.834  0.1618  0.5523 -1.6700
   39POPC  H11S 5241   3.581   4.247   7.798  1.1199 -1.1555  2.0692
   39POPC  C212 5242   3.537   4.362   7.983 -0.0339 -0.6989  0.2562
   39POPC  H12R 5243   3.589   4.284   8.042  1.6519  0.9009  1.0173
   39POPC  H12S 5244   3.426   4.350   7.985 -0.1502  0.2804  0.6338
   39POPC  C213 5245   3.571   4.500   8.052 -0.6991 -0.1545  0.4693
   39POPC  H13R 5246   3.508   4.584   8.017 -2.0030 -1.6462 -0.9900
   39POPC  H13S 5247   3.678   4.522   8.032 -1.1498  2.5575  0.6733
   39POPC  C214 5248   3.538   4.496   8.204  0.3395  0.2806  0.0991
   39POPC  H14R 5249   3.613   4.438   8.263  2.8524  0.6727 -2.4820
   39POPC  H14S 5250   3.437   4.451   8.216  1.3232 -2.0639  0.2712
   39POPC  C215 5251   3.528   4.645   8.254 -0.4264  0.3347  1.0637
   39POPC  H15R 5252   3.479   4.711   8.180 -1.1749  0.8947  2.0502
   39POPC  H15S 5253   3.633   4.682   8.260 -0.1055 -0.5042  0.9091
   39POPC  C216 5254   3.456   4.654   8.393 -0.5735  0.1475 -0.4639
   39POPC  H16R 5255   3.512   4.595   8.468 -1.5916 -1.6590 -1.0539
   39POPC  H16S 5256   3.363   4.596   8.372 -0.2886 -0.9523  1.1607
   39POPC  C217 5257   3.421   4.792   8.440 -0.1588  0.1024 -0.4481
   39POPC  H17R 5258   3.336   4.822   8.375 -0.6287 -0.7450 -0.2392
   39POPC  H17S 5259   3.506   4.863   8.437 -1.6622  2.0564  0.5013
   39POPC  C218 5260   3.381   4.783   8.583 -0.4745 -0.0022 -0.5708
   39POPC  H18R 5261   3.295   4.718   8.609  1.1410 -2.4414 -0.9883
   39POPC  H18S 5262   3.366   4.885   8.625  1.7279 -0.0602  0.5331
   39POPC  H18T 5263   3.464   4.742   8.644 -2.6360  0.5396  3.0385
   39POPC   C33 5264   3.800   4.176   7.092  0.1051 -0.1343 -0.6647
   39POPC   H3X 5265   3.725   4.099   7.121 -0.2222  0.2299 -0.5367
   39POPC   H3Y 5266   3.735   4.266   7.096 -0.8526 -0.8146 -0.5190
   39POPC   C34 5267   3.914   4.196   7.197  0.2521 -0.3032 -0.5004
   39POPC   H4X 5268   3.973   4.288   7.175  0.9294 -0.8072 -0.7984
   39POPC   H4Y 5269   3.974   4.103   7.195  0.3680 -0.2164 -1.1792
   39POPC   C35 5270   3.846   4.204   7.334  0.1372  0.7940 -0.8722
   39POPC   H5X 5271   3.798   4.106   7.355 -1.3743  1.4709 -1.0237
   39POPC   H5Y 5272   3.768   4.282   7.321 -0.9296 -0.1216 -0.1652
   39POPC   C36 5273   3.940   4.230   7.448 -0.0573  0.2901 -0.2251
   39POPC   H6X 5274   4.003   4.319   7.426  0.2368  0.0583 -0.3211
   39POPC   H6Y 5275   4.003   4.139   7.445 -0.8955 -0.5966  3.7113
   39POPC   C37 5276   3.879   4.231   7.588 -0.2562  0.5162 -0.2583
   39POPC   H7X 5277   3.831   4.132   7.603  0.5992  0.1501  0.1797
   39POPC   H7Y 5278   3.822   4.324   7.608  3.2613  2.7221  0.4324
   39POPC   C38 5279   3.994   4.225   7.698 -0.0085 -0.3434 -0.1243
   39POPC   H8X 5280   4.069   4.308   7.698 -0.5644  0.2312  1.9488
   39POPC   H8Y 5281   4.054   4.133   7.682  2.1026  0.9582 -0.0580
   39POPC   C39 5282   3.921   4.234   7.834 -0.3828 -0.0502 -0.6073
   39POPC   H9X 5283   3.834   4.165   7.839  0.1580 -0.6525  0.7290
   39POPC   H9Y 5284   3.881   4.338   7.842  2.3085  0.9512  1.2821
   39POPC  C310 5285   4.019   4.203   7.954  0.4201  0.2119  0.2348
   39POPC  H10X 5286   4.107   4.267   7.932  0.4269 -0.6975 -3.0323
   39POPC  H10Y 5287   4.066   4.104   7.933  0.4094  0.6989 -2.3953
   39POPC  C311 5288   3.969   4.201   8.096 -0.1038 -0.1511 -0.0236
   39POPC  H11X 5289   4.040   4.155   8.169  0.4136 -0.2755 -0.5920
   39POPC  H11Y 5290   3.875   4.143   8.096 -1.3925  1.8313 -0.8823
   39POPC  C312 5291   3.931   4.343   8.148 -0.2713 -0.0721 -0.4473
   39POPC  H12X 5292   3.858   4.399   8.086 -0.9728  2.1288  2.1933
   39POPC  H12Y 5293   4.024   4.404   8.153 -0.8942  0.8098  0.9937
   39POPC  C313 5294   3.898   4.335   8.292 -0.2212  0.3974 -0.2305
   39POPC  H13X 5295   3.968   4.274   8.353 -0.7030  1.3129  1.2881
   39POPC  H13Y 5296   3.798   4.292   8.314 -0.5594  1.0821 -0.4042
   39POPC  C314 5297   3.897   4.470   8.365 -0.0130  0.2360 -0.7769
   39POPC  H14X 5298   3.808   4.525   8.329 -0.9424 -0.5631  0.2135
   39POPC  H14Y 5299   3.983   4.539   8.351  1.2895 -1.1690 -0.0287
   39POPC  C315 5300   3.873   4.459   8.518 -0.6997 -0.2415 -0.0373
   39POPC  H15X 5301   3.965   4.422   8.569 -0.0914  0.5270 -0.5519
   39POPC  H15Y 5302   3.793   4.385   8.539 -0.8878 -0.1887 -0.5641
   39POPC  C316 5303   3.825   4.591   8.573 -0.9417 -0.2964  0.5216
   39POPC  H16X 5304   3.810   4.592   8.684 -1.2282 -0.5858  0.4904
   39POPC  H16Y 5305   3.736   4.625   8.517 -0.8911 -2.1573 -0.7914
   39POPC  H16Z 5306   3.907   4.663   8.557  0.2535 -1.4134  1.3417
   40POPC     N 5307   2.059   1.264   6.504  0.2865  0.5180  0.9120
   40POPC   C12 5308   2.009   1.409   6.494  0.0398  0.8973  0.2978
   40POPC  H12A 5309   1.906   1.427   6.521 -0.4616  0.1676 -1.0730
   40POPC  H12B 5310   2.013   1.444   6.392 -0.8654 -1.7444 -0.7082
   40POPC   C13 5311   2.062   1.218   6.643 -0.1920  0.4827  0.1800
   40POPC  H13A 5312   2.128   1.278   6.704 -0.2831  0.6431  0.1198
   40POPC  H13B 5313   1.966   1.231   6.691  0.7381  2.1939  1.6785
   40POPC  H13C 5314   2.083   1.112   6.651 -2.1449 -0.0632 -1.2279
   40POPC   C14 5315   1.975   1.160   6.428  0.1511 -0.5695 -0.3937
   40POPC  H14A 5316   2.007   1.144   6.326 -0.6844 -1.1679 -0.5778
   40POPC  H14B 5317   1.995   1.066   6.477  0.7202  0.6781  1.8896
   40POPC  H14C 5318   1.868   1.172   6.419  0.2121  1.9832  1.0737
   40POPC   C15 5319   2.196   1.240   6.449 -0.3569 -0.4785 -0.5289
   40POPC  H15A 5320   2.270   1.295   6.506  0.2917  0.6741 -2.4000
   40POPC  H15B 5321   2.200   1.274   6.347 -1.1771  1.4610  0.0374
   40POPC  H15C 5322   2.226   1.138   6.466  0.3056 -0.0604  1.0504
   40POPC   C11 5323   2.089   1.517   6.573  0.3566 -0.0420 -0.1262
   40POPC  H11A 5324   2.087   1.490   6.680  0.7059  1.2535  0.2209
   40POPC  H11B 5325   2.031   1.610   6.557  0.8563  0.4357  0.8100
   40POPC     P 5326   2.276   1.596   6.406  0.4162 -0.1023  0.0893
   40POPC   O13 5327   2.169   1.629   6.307  0.4101  0.1485 -0.5804
   40POPC   O14 5328   2.399   1.535   6.345  0.3627  0.6083  0.4336
   40POPC   O12 5329   2.227   1.521   6.537 -0.6317  0.2458 -0.1481
   40POPC   O11 5330   2.316   1.729   6.468 -0.6260 -0.3934 -0.3962
   40POPC    C1 5331   2.216   1.833   6.499 -0.0980  0.1657  1.2577
   40POPC    HA 5332   2.114   1.794   6.519 -0.6021  0.7315 -0.1113
   40POPC    HB 5333   2.207   1.909   6.419  0.2068 -0.3253  0.7482
   40POPC    C2 5334   2.237   1.913   6.625  0.3242 -0.3732  0.3208
   40POPC    HS 5335   2.317   1.987   6.603 -0.9885 -0.0473 -4.6011
   40POPC   O21 5336   2.250   1.825   6.732 -0.6442 -0.0444  0.1491
   40POPC   C21 5337   2.374   1.795   6.775  0.4476 -0.2415  0.3695
   40POPC   O22 5338   2.478   1.843   6.728 -0.0938 -0.2686  0.5890
   40POPC   C22 5339   2.359   1.673   6.873 -0.9868 -0.2271 -0.7880
   40POPC   H2R 5340   2.336   1.582   6.814 -5.8454  0.9682 -1.2267
   40POPC   H2S 5341   2.281   1.697   6.949 -0.2591 -1.1854  0.3003
   40POPC    C3 5342   2.110   2.010   6.657 -0.0784  0.7114  0.5816
   40POPC    HX 5343   2.029   1.938   6.684  1.7186 -2.4159 -1.7553
   40POPC    HY 5344   2.067   2.061   6.568 -3.5611 -0.7887  1.2319
   40POPC   O31 5345   2.141   2.094   6.766  0.2680 -0.2345 -0.1545
   40POPC   C31 5346   2.207   2.197   6.742  0.2314 -0.1096  0.1359
   40POPC   O32 5347   2.218   2.243   6.630 -0.2527 -0.3784  0.5915
   40POPC   C32 5348   2.262   2.260   6.874 -0.4858  0.0252  0.4505
   40POPC   H2X 5349   2.169   2.268   6.934 -1.6924 -1.6997 -1.0650
   40POPC   H2Y 5350   2.301   2.362   6.853  0.7429 -0.8084 -1.6242
   40POPC   C23 5351   2.484   1.637   6.949 -0.2270 -0.2984 -0.2832
   40POPC   H3R 5352   2.568   1.643   6.877 -0.9957 -2.1932 -1.4191
   40POPC   H3S 5353   2.487   1.533   6.990  2.8620 -0.5075 -0.8343
   40POPC   C24 5354   2.503   1.738   7.059 -0.7751 -0.3765 -0.4310
   40POPC   H4R 5355   2.509   1.844   7.025  2.9603  0.1148  1.2864
   40POPC   H4S 5356   2.596   1.731   7.119  0.1759  3.2383 -1.2387
   40POPC   C25 5357   2.395   1.742   7.165  0.8209 -0.0226 -0.0292
   40POPC   H5R 5358   2.376   1.636   7.190 -0.3880 -0.5103 -2.6689
   40POPC   H5S 5359   2.297   1.776   7.125  0.8901 -1.5211 -1.5675
   40POPC   C26 5360   2.437   1.812   7.292 -0.0015 -0.0964  1.0601
   40POPC   H6R 5361   2.431   1.914   7.247 -2.6694 -1.6631 -2.6377
   40POPC   H6S 5362   2.535   1.781   7.333 -1.9849 -1.1012  5.6210
   40POPC   C27 5363   2.330   1.795   7.404 -0.3338 -0.2466 -0.2348
   40POPC   H7R 5364   2.355   1.692   7.437  0.0625 -0.1919 -0.3562
   40POPC   H7S 5365   2.225   1.803   7.368  0.1952  0.1762 -1.7634
   40POPC   C28 5366   2.353   1.903   7.513 -0.0694 -0.1886  0.6972
   40POPC   H8R 5367   2.265   1.916   7.579 -0.0059  1.6122  0.4777
   40POPC   H8S 5368   2.362   2.002   7.463  0.9971 -0.4759  0.3003
   40POPC   C29 5369   2.479   1.879   7.584  0.0458 -0.1566 -0.2095
   40POPC   H91 5370   2.563   1.845   7.522 -0.1269 -1.0752  0.0369
   40POPC  C210 5371   2.501   1.892   7.715  1.0243  0.0368  0.1921
   40POPC  H101 5372   2.603   1.872   7.750  2.0025  2.2501 -1.1789
   40POPC  C211 5373   2.401   1.936   7.818  0.1370  0.2848 -0.0703
   40POPC  H11R 5374   2.303   1.968   7.777  0.3430  1.4238  0.3022
   40POPC  H11S 5375   2.432   2.023   7.879  0.6932 -1.6687  2.6412
   40POPC  C212 5376   2.370   1.838   7.941  0.9959  0.1692 -0.4777
   40POPC  H12R 5377   2.283   1.886   7.988  2.9822  2.2777  1.2766
   40POPC  H12S 5378   2.445   1.841   8.023 -1.7875 -1.7478  2.3649
   40POPC  C213 5379   2.361   1.693   7.906  0.6307 -0.2264  0.2697
   40POPC  H13R 5380   2.455   1.661   7.857  0.4939  0.6980 -0.6225
   40POPC  H13S 5381   2.288   1.685   7.823 -0.4355  0.0004  1.1546
   40POPC  C214 5382   2.320   1.603   8.018  0.1330 -0.0261 -0.2005
   40POPC  H14R 5383   2.326   1.498   7.984  0.9838 -0.1678  0.3676
   40POPC  H14S 5384   2.213   1.617   8.046 -0.0413 -1.2805 -0.1837
   40POPC  C215 5385   2.415   1.601   8.136  0.1225 -0.6116 -0.5191
   40POPC  H15R 5386   2.437   1.698   8.186 -1.5709  0.2687 -1.4136
   40POPC  H15S 5387   2.508   1.552   8.102 -0.4979 -2.9812  0.9159
   40POPC  C216 5388   2.372   1.515   8.262  0.4673 -0.5719  0.5771
   40POPC  H16R 5389   2.344   1.409   8.243  2.2019 -1.6194  3.2069
   40POPC  H16S 5390   2.281   1.565   8.303  0.3618 -0.7248  0.5318
   40POPC  C217 5391   2.480   1.521   8.371  0.1099 -0.5164  0.4888
   40POPC  H17R 5392   2.565   1.467   8.324  0.2582 -0.3438  0.5576
   40POPC  H17S 5393   2.448   1.458   8.457  0.3736  0.0648  1.0193
   40POPC  C218 5394   2.507   1.660   8.431  0.1808  0.3710  0.1828
   40POPC  H18R 5395   2.562   1.711   8.349 -1.6197 -0.5850 -1.7322
   40POPC  H18S 5396   2.571   1.647   8.520 -2.1970 -2.1139  1.6863
   40POPC  H18T 5397   2.419   1.710   8.475 -1.0790 -1.7202  0.2023
   40POPC   C33 5398   2.360   2.165   6.956 -0.1143  0.1814  0.4986
   40POPC   H3X 5399   2.450   2.144   6.894  0.4980  2.0108  0.7026
   40POPC   H3Y 5400   2.309   2.068   6.978  0.9961 -0.6163 -0.3277
   40POPC   C34 5401   2.401   2.209   7.101  1.0211  0.0774  0.0416
   40POPC   H4X 5402   2.489   2.277   7.098  1.5283 -0.4704  1.7190
   40POPC   H4Y 5403   2.434   2.123   7.163  1.2407 -0.4268 -0.7547
   40POPC   C35 5404   2.287   2.275   7.188  0.0429 -0.2263  0.0574
   40POPC   H5X 5405   2.197   2.210   7.185  0.6376 -1.0444 -0.3502
   40POPC   H5Y 5406   2.257   2.373   7.144 -0.3414  0.2001  1.2302
   40POPC   C36 5407   2.332   2.308   7.335 -0.3941 -0.7137  0.0884
   40POPC   H6X 5408   2.397   2.398   7.333 -0.1535 -0.8862  0.0608
   40POPC   H6Y 5409   2.375   2.214   7.375  2.5139  0.4201 -0.1669
   40POPC   C37 5410   2.208   2.339   7.423 -0.2935  0.2121 -0.2024
   40POPC   H7X 5411   2.128   2.263   7.408  1.4381 -1.5968 -0.7047
   40POPC   H7Y 5412   2.173   2.438   7.387  1.5470 -0.2335 -3.6494
   40POPC   C38 5413   2.234   2.348   7.576 -0.3376  0.3913  0.3430
   40POPC   H8X 5414   2.199   2.448   7.609  0.8707  1.0365 -0.2681
   40POPC   H8Y 5415   2.342   2.343   7.603 -0.5469  1.3863  1.4568
   40POPC   C39 5416   2.148   2.245   7.657 -0.3042  0.1708  0.1642
   40POPC   H9X 5417   2.153   2.142   7.617  0.4379  0.0592  0.5101
   40POPC   H9Y 5418   2.042   2.268   7.633  0.4901  1.4399 -2.5497
   40POPC  C310 5419   2.153   2.264   7.805 -0.7940 -0.2292 -0.3806
   40POPC  H10X 5420   2.141   2.367   7.845  1.5007 -0.0486 -0.0000
   40POPC  H10Y 5421   2.252   2.230   7.841 -1.0685 -0.8190 -0.1758
   40POPC  C311 5422   2.061   2.181   7.885 -0.1389  0.1104 -0.1344
   40POPC  H11X 5423   2.088   2.186   7.993 -0.6923  0.2729  0.0004
   40POPC  H11Y 5424   2.074   2.076   7.851 -0.4162  0.6006 -1.8589
   40POPC  C312 5425   1.919   2.231   7.878 -0.3720  0.3781  0.0249
   40POPC  H12X 5426   1.884   2.193   7.779  0.7317 -0.6656  0.0078
   40POPC  H12Y 5427   1.904   2.340   7.886  0.3015  0.4664  0.1297
   40POPC  C313 5428   1.833   2.165   7.987 -0.1564  0.4374 -0.4511
   40POPC  H13X 5429   1.867   2.194   8.088 -1.0306  0.3555 -0.1255
   40POPC  H13Y 5430   1.852   2.055   7.978  2.9206  0.7613  0.7494
   40POPC  C314 5431   1.683   2.175   7.956 -0.2045  0.3484  0.0096
   40POPC  H14X 5432   1.629   2.104   8.021  0.6728 -1.3920 -1.1052
   40POPC  H14Y 5433   1.670   2.136   7.853 -1.5236 -1.9246  0.9717
   40POPC  C315 5434   1.633   2.316   7.985  0.6230 -0.4291 -0.6246
   40POPC  H15X 5435   1.542   2.340   7.926  0.1957 -0.1247  0.1406
   40POPC  H15Y 5436   1.706   2.386   7.940  2.9574 -1.3944  1.4552
   40POPC  C316 5437   1.619   2.349   8.130 -0.7813  0.1158 -0.4254
   40POPC  H16X 5438   1.721   2.348   8.174 -1.0430 -1.9813  0.2546
   40POPC  H16Y 5439   1.559   2.273   8.184 -1.0334  2.7842  3.4347
   40POPC  H16Z 5440   1.576   2.451   8.139  0.7603  0.8822 -1.2136
   41CHL1    C3 5441   0.180   6.355  10.327  0.5485  0.0281 -0.9863
   41CHL1    H3 5442   0.224   6.457  10.331  0.0969  0.2468 -1.5013
   41CHL1    O3 5443   0.200   6.292  10.457 -0.1574 -0.5123  0.2715
   41CHL1   H3' 5444   0.195   6.198  10.439 -1.7654 -0.5176  0.5607
   41CHL1    C4 5445   0.032   6.358  10.299 -0.1938  0.3547  0.2036
   41CHL1   H4A 5446  -0.004   6.253  10.302  0.3207  0.1371 -0.7280
   41CHL1   H4B 5447  -0.016   6.412  10.383 -3.3354 -0.0437 -1.2075
   41CHL1    C5 5448  -0.007   6.420  10.162 -0.0934  0.0637  1.1658
   41CHL1    C6 5449  -0.093   6.523  10.144 -0.6002 -0.4181 -0.4682
   41CHL1    H6 5450  -0.153   6.558  10.230 -2.2010  0.5690 -1.9183
   41CHL1    C7 5451  -0.135   6.586  10.011 -0.5606  0.8070  0.0147
   41CHL1   H7A 5452  -0.245   6.603  10.009 -0.7482 -0.2964  0.4758
   41CHL1   H7B 5453  -0.094   6.689  10.004  3.1315 -0.5833 -1.4686
   41CHL1    C8 5454  -0.077   6.508   9.892  0.2139  0.0491 -0.1135
   41CHL1    H8 5455  -0.141   6.417   9.879  1.5307 -0.6089 -2.6020
   41CHL1   C14 5456  -0.085   6.594   9.762 -0.1366  0.6753 -0.2935
   41CHL1   H14 5457  -0.010   6.673   9.783 -0.0814  0.4072  0.5762
   41CHL1   C15 5458  -0.215   6.660   9.715  0.1125 -0.1734  0.4522
   41CHL1  H15A 5459  -0.296   6.583   9.716 -1.2696  1.2306  1.3073
   41CHL1  H15B 5460  -0.239   6.744   9.783 -0.1895  0.4155 -0.3576
   41CHL1   C16 5461  -0.179   6.713   9.575 -0.3620 -0.1338  0.1024
   41CHL1  H16A 5462  -0.269   6.698   9.511 -1.5334  1.4075  1.2985
   41CHL1  H16B 5463  -0.161   6.822   9.581  1.9807 -0.4544 -0.1963
   41CHL1   C17 5464  -0.055   6.634   9.529  0.3302  0.1047  0.2748
   41CHL1   H17 5465   0.036   6.697   9.535 -0.2505  0.8713  1.2283
   41CHL1   C13 5466  -0.029   6.525   9.638  0.4778 -0.2742 -0.5798
   41CHL1   C18 5467  -0.107   6.395   9.605 -0.4831 -0.2347 -0.8351
   41CHL1  H18A 5468  -0.108   6.325   9.692  1.4733 -0.9630 -1.3465
   41CHL1  H18B 5469  -0.211   6.415   9.573 -0.1860  2.6403 -0.2631
   41CHL1  H18C 5470  -0.054   6.348   9.519 -1.7033  1.6839 -2.7323
   41CHL1   C12 5471   0.118   6.492   9.666 -0.1794  0.3792  0.0601
   41CHL1  H12A 5472   0.174   6.439   9.586  2.0583 -0.1385  1.8517
   41CHL1  H12B 5473   0.172   6.587   9.687  0.2742 -0.0603  0.9671
   41CHL1   C11 5474   0.133   6.399   9.785  0.0664 -0.2495 -0.0923
   41CHL1  H11A 5475   0.106   6.294   9.762 -0.9497 -0.6961  2.7521
   41CHL1  H11B 5476   0.244   6.406   9.797  0.1382  1.8816 -1.4950
   41CHL1    C9 5477   0.065   6.452   9.918  0.2681  0.3258 -0.8689
   41CHL1    H9 5478   0.122   6.544   9.941 -0.3807  1.1519 -2.3673
   41CHL1   C10 5479   0.076   6.365  10.044  0.6912 -0.4026 -0.5482
   41CHL1   C19 5480   0.039   6.219  10.016 -0.4618 -0.4265  0.5999
   41CHL1  H19A 5481  -0.045   6.219   9.943  0.2879 -0.4226 -0.2937
   41CHL1  H19B 5482   0.124   6.164   9.970  0.3604 -0.4308  2.0691
   41CHL1  H19C 5483   0.014   6.159  10.106 -0.3450 -3.1529 -1.0489
   41CHL1    C1 5484   0.226   6.362  10.089  0.4736  0.0057  0.5105
   41CHL1   H1A 5485   0.277   6.324   9.998  1.6448  0.4237  0.9793
   41CHL1   H1B 5486   0.260   6.465  10.114  0.1501 -0.2253  2.0175
   41CHL1    C2 5487   0.257   6.284  10.211  0.1068  0.1519 -0.7162
   41CHL1   H2A 5488   0.366   6.286  10.234  0.5813  0.2472 -2.7997
   41CHL1   H2B 5489   0.220   6.180  10.202 -1.8357  0.7073  0.2278
   41CHL1   C20 5490  -0.049   6.605   9.370  0.2528 -0.7189 -0.5019
   41CHL1   H20 5491  -0.112   6.514   9.362  1.1547 -1.5503  1.1445
   41CHL1   C21 5492   0.096   6.578   9.335 -0.6329 -0.5189 -0.0886
   41CHL1  H21A 5493   0.116   6.568   9.227  1.9180  2.5452 -0.0563
   41CHL1  H21B 5494   0.129   6.486   9.389 -3.9250  0.6199  4.4940
   41CHL1  H21C 5495   0.164   6.662   9.362  0.9588 -1.5450 -0.7885
   41CHL1   C22 5496  -0.128   6.708   9.281 -0.5606 -0.2964 -0.1600
   41CHL1  H22A 5497  -0.221   6.756   9.318  0.5133  1.6235  0.2040
   41CHL1  H22B 5498  -0.047   6.772   9.239 -0.4631 -1.1340 -1.2938
   41CHL1   C23 5499  -0.183   6.633   9.156  0.4079  0.0232 -0.2709
   41CHL1  H23A 5500  -0.116   6.565   9.099  0.0401 -1.6612  1.2532
   41CHL1  H23B 5501  -0.264   6.565   9.189  0.0062 -0.4947 -2.1898
   41CHL1   C24 5502  -0.232   6.734   9.043 -0.2235 -0.1079 -0.3736
   41CHL1  H24A 5503  -0.290   6.819   9.087 -0.4567 -1.3070  1.7818
   41CHL1  H24B 5504  -0.140   6.778   8.999 -1.0567  0.3391 -1.7332
   41CHL1   C25 5505  -0.309   6.669   8.927 -0.6775 -0.3733 -0.7298
   41CHL1   H25 5506  -0.246   6.589   8.883 -0.0739  0.4242 -1.3407
   41CHL1   C26 5507  -0.446   6.608   8.968 -0.7366  0.2447 -0.6113
   41CHL1  H26A 5508  -0.510   6.696   8.989 -0.7962 -0.0884  0.7097
   41CHL1  H26B 5509  -0.483   6.550   8.881  1.2144  0.6557 -1.7767
   41CHL1  H26C 5510  -0.443   6.544   9.059 -4.5297  1.6172  0.6682
   41CHL1   C27 5511  -0.322   6.765   8.813 -0.1847  0.0657  0.0424
   41CHL1  H27A 5512  -0.388   6.850   8.842 -1.2594 -0.1254 -1.7437
   41CHL1  H27B 5513  -0.229   6.821   8.788 -1.1197  2.4325  1.5026
   41CHL1  H27C 5514  -0.373   6.723   8.724  4.7379 -2.4805 -1.9522
   42CHL1    C3 5515   6.726   5.201  10.023 -0.1580 -0.6267 -1.0846
   42CHL1    H3 5516   6.615   5.204  10.013 -0.1870 -1.0788 -0.9279
   42CHL1    O3 5517   6.768   5.140  10.145 -0.7902 -0.2827 -0.4676
   42CHL1   H3' 5518   6.864   5.140  10.144 -0.7352  1.3215  1.4370
   42CHL1    C4 5519   6.782   5.113   9.915  0.4412 -0.5798  0.5089
   42CHL1   H4A 5520   6.893   5.106   9.924  1.0009  4.4994  0.6604
   42CHL1   H4B 5521   6.736   5.012   9.921  0.9959 -0.8321  0.5463
   42CHL1    C5 5522   6.747   5.180   9.781  0.4945  0.1725  0.1257
   42CHL1    C6 5523   6.668   5.116   9.689 -0.1528 -0.2483  0.8713
   42CHL1    H6 5524   6.628   5.014   9.697  1.2047 -0.7581  1.6063
   42CHL1    C7 5525   6.647   5.181   9.554 -0.8301 -0.2701 -0.5837
   42CHL1   H7A 5526   6.658   5.104   9.474  0.4774  0.1368 -0.8239
   42CHL1   H7B 5527   6.548   5.231   9.552 -0.6207  0.2688  1.2389
   42CHL1    C8 5528   6.734   5.301   9.504 -0.8503 -0.3264 -1.0278
   42CHL1    H8 5529   6.836   5.266   9.479 -1.0388 -1.1691 -0.6443
   42CHL1   C14 5530   6.686   5.378   9.382  0.4639  0.1611  0.0083
   42CHL1   H14 5531   6.583   5.417   9.398  0.4643 -0.4887  1.8317
   42CHL1   C15 5532   6.680   5.295   9.247  0.2569  0.3431  0.1308
   42CHL1  H15A 5533   6.767   5.228   9.229 -2.0991 -2.3773 -2.1785
   42CHL1  H15B 5534   6.594   5.225   9.250  0.4269  0.0603 -0.9819
   42CHL1   C16 5535   6.671   5.418   9.142 -0.0863  0.8067 -0.7095
   42CHL1  H16A 5536   6.748   5.392   9.067  1.8438  1.6061  0.8913
   42CHL1  H16B 5537   6.572   5.418   9.092  0.4300 -0.1159 -1.7664
   42CHL1   C17 5538   6.705   5.550   9.217  0.4732 -0.8986 -0.1315
   42CHL1   H17 5539   6.605   5.588   9.246  1.7381  0.9393  2.1655
   42CHL1   C13 5540   6.769   5.504   9.350  0.6408 -0.2850  0.1875
   42CHL1   C18 5541   6.917   5.472   9.327 -0.2508  0.9405 -0.2509
   42CHL1  H18A 5542   6.970   5.564   9.297  0.5731  0.3537 -0.6286
   42CHL1  H18B 5543   6.970   5.429   9.415  2.2513 -1.6117 -2.8124
   42CHL1  H18C 5544   6.931   5.404   9.241 -0.1490  0.6657 -0.0195
   42CHL1   C12 5545   6.760   5.601   9.469 -0.0004 -0.4460  0.3356
   42CHL1  H12A 5546   6.818   5.693   9.448  0.6823 -0.3871  2.2528
   42CHL1  H12B 5547   6.652   5.626   9.473 -0.5022 -2.5298  3.1696
   42CHL1   C11 5548   6.809   5.538   9.603 -0.0413 -0.1532 -0.1495
   42CHL1  H11A 5549   6.920   5.546   9.611 -0.1865  1.4907  0.7591
   42CHL1  H11B 5550   6.763   5.606   9.677  0.4023  0.5909 -0.5463
   42CHL1    C9 5551   6.742   5.394   9.627  0.1968 -0.6468 -0.4131
   42CHL1    H9 5552   6.636   5.417   9.650  0.2024  1.0365 -1.9006
   42CHL1   C10 5553   6.800   5.322   9.758 -0.4805 -1.1417  1.2665
   42CHL1   C19 5554   6.953   5.299   9.745  0.4415  0.2698 -0.6630
   42CHL1  H19A 5555   6.996   5.284   9.846 -0.5406  2.5446  0.1651
   42CHL1  H19B 5556   6.997   5.233   9.668  0.4512 -0.3425 -0.1382
   42CHL1  H19C 5557   7.001   5.396   9.717  1.7630 -0.2981 -0.4420
   42CHL1    C1 5558   6.769   5.405   9.887 -0.1077 -0.6127 -0.1352
   42CHL1   H1A 5559   6.831   5.497   9.893 -0.9627 -0.0994  1.2539
   42CHL1   H1B 5560   6.678   5.466   9.868  1.8330  3.4483  2.2741
   42CHL1    C2 5561   6.778   5.343  10.023 -0.1024 -0.5046  0.1569
   42CHL1   H2A 5562   6.736   5.412  10.099  3.6374  0.1997  1.7927
   42CHL1   H2B 5563   6.887   5.341  10.040  0.0807 -1.0844 -0.9816
   42CHL1   C20 5564   6.778   5.648   9.126  0.8950 -0.3302  0.4675
   42CHL1   H20 5565   6.867   5.589   9.095  1.4223  0.3552  0.6633
   42CHL1   C21 5566   6.817   5.785   9.189 -0.3684  0.0853  0.1535
   42CHL1  H21A 5567   6.731   5.831   9.242  0.9728  3.6788 -0.5249
   42CHL1  H21B 5568   6.864   5.861   9.124  0.6062 -0.7473 -0.1481
   42CHL1  H21C 5569   6.885   5.771   9.276 -1.4542  0.4609  1.0838
   42CHL1   C22 5570   6.694   5.673   8.989 -0.0159 -0.7489 -0.6873
   42CHL1  H22A 5571   6.641   5.583   8.949 -0.2068 -0.9689  0.0453
   42CHL1  H22B 5572   6.622   5.753   9.015  2.1034  1.4287 -1.2090
   42CHL1   C23 5573   6.783   5.724   8.880 -0.1757  0.4896 -0.8739
   42CHL1  H23A 5574   6.847   5.807   8.915 -2.4997  2.2419 -0.5396
   42CHL1  H23B 5575   6.854   5.641   8.858 -0.9152 -1.2711  2.7121
   42CHL1   C24 5576   6.697   5.762   8.757  0.0081  0.0089  0.1087
   42CHL1  H24A 5577   6.646   5.669   8.723 -0.3484 -0.3985  1.6713
   42CHL1  H24B 5578   6.610   5.821   8.794 -0.0050  0.2687 -0.3368
   42CHL1   C25 5579   6.765   5.822   8.636  0.3065  0.1857 -0.0753
   42CHL1   H25 5580   6.809   5.918   8.671 -0.3729  0.2896  0.5143
   42CHL1   C26 5581   6.877   5.733   8.580 -0.3834  0.0172 -0.1436
   42CHL1  H26A 5582   6.945   5.715   8.665 -2.5339 -1.3425  1.3954
   42CHL1  H26B 5583   6.837   5.640   8.534 -0.5347  0.2718 -0.5370
   42CHL1  H26C 5584   6.932   5.801   8.511 -0.1390 -1.3976 -1.3829
   42CHL1   C27 5585   6.665   5.867   8.525  0.8753  0.7471  0.3078
   42CHL1  H27A 5586   6.597   5.935   8.580 -0.2315 -0.1317  0.0552
   42CHL1  H27B 5587   6.722   5.920   8.445  2.0370  0.5755  0.9900
   42CHL1  H27C 5588   6.609   5.779   8.487  0.2237  1.5825 -0.7125
   43CHL1    C3 5589   6.190   0.058  10.154  0.2744  0.0824  0.7785
   43CHL1    H3 5590   6.172   0.167  10.166 -1.2003  0.0652 -0.7782
   43CHL1    O3 5591   6.272   0.016  10.256 -0.1025  0.8133 -0.7400
   43CHL1   H3' 5592   6.218  -0.037  10.316  2.0282  0.0653  0.6405
   43CHL1    C4 5593   6.053  -0.012  10.171 -0.4680  0.9761 -0.0641
   43CHL1   H4A 5594   6.058  -0.122  10.152 -1.2709  0.9645 -0.2432
   43CHL1   H4B 5595   6.013   0.011  10.272  1.2649  1.4496  0.5567
   43CHL1    C5 5596   5.951   0.036  10.078  0.0703 -0.0779  0.4724
   43CHL1    C6 5597   5.837   0.098  10.118  1.1097 -0.4939 -0.2114
   43CHL1    H6 5598   5.809   0.101  10.224 -1.6196 -3.5514 -0.6930
   43CHL1    C7 5599   5.728   0.147  10.026  0.2727 -0.1113 -0.9130
   43CHL1   H7A 5600   5.630   0.109  10.061  0.7562 -1.5599 -1.0683
   43CHL1   H7B 5601   5.719   0.258  10.026 -1.8472 -0.2451 -0.6921
   43CHL1    C8 5602   5.749   0.098   9.882 -0.4554  0.1289  0.4638
   43CHL1    H8 5603   5.713  -0.007   9.885 -2.3433  0.7442  0.5223
   43CHL1   C14 5604   5.667   0.169   9.783  0.4058 -0.7557  0.2284
   43CHL1   H14 5605   5.690   0.278   9.787 -3.3677  0.4175 -3.3109
   43CHL1   C15 5606   5.519   0.186   9.817 -0.0146 -0.1917 -0.1988
   43CHL1  H15A 5607   5.480   0.083   9.832  1.5903 -0.6124  1.5631
   43CHL1  H15B 5608   5.499   0.249   9.906  0.8334  0.7960 -0.6906
   43CHL1   C16 5609   5.457   0.238   9.684 -0.3032 -0.1091  0.1756
   43CHL1  H16A 5610   5.360   0.192   9.654 -2.3432  3.3415  1.0356
   43CHL1  H16B 5611   5.438   0.345   9.707 -0.6461 -0.1286 -0.0051
   43CHL1   C17 5612   5.564   0.225   9.574 -0.7690 -0.7179  0.6856
   43CHL1   H17 5613   5.608   0.327   9.571 -1.3356 -0.4732  0.4356
   43CHL1   C13 5614   5.675   0.135   9.630  0.1768  0.2732 -0.5490
   43CHL1   C18 5615   5.640  -0.011   9.611  0.2654 -0.2131 -0.3131
   43CHL1  H18A 5616   5.656  -0.043   9.506  0.3873  0.8555 -0.6342
   43CHL1  H18B 5617   5.708  -0.075   9.671 -0.2474  0.5306  1.1230
   43CHL1  H18C 5618   5.534  -0.020   9.644 -0.5247 -0.2208 -2.6698
   43CHL1   C12 5619   5.824   0.158   9.589 -0.3797 -0.2487 -0.8966
   43CHL1  H12A 5620   5.839   0.133   9.482 -0.2438  0.8066 -1.1361
   43CHL1  H12B 5621   5.853   0.265   9.593  2.4304 -0.8747 -2.3012
   43CHL1   C11 5622   5.915   0.077   9.689  0.2367  0.2449  0.6700
   43CHL1  H11A 5623   5.916  -0.031   9.661  0.2718  0.3616  0.2152
   43CHL1  H11B 5624   6.024   0.096   9.674  0.0258 -0.1921 -2.0520
   43CHL1    C9 5625   5.899   0.102   9.839  0.5960 -0.2664  0.2800
   43CHL1    H9 5626   5.938   0.205   9.855 -0.0247  0.0996 -0.5097
   43CHL1   C10 5627   5.998   0.021   9.931  0.8170  0.9434  0.2326
   43CHL1   C19 5628   5.986  -0.126   9.893  0.4481 -0.0171  0.1334
   43CHL1  H19A 5629   5.887  -0.175   9.901  0.5704 -0.5362 -1.2154
   43CHL1  H19B 5630   6.023  -0.135   9.788  0.3470 -0.5218  0.1385
   43CHL1  H19C 5631   6.054  -0.189   9.953 -1.6822 -0.5457  2.1109
   43CHL1    C1 5632   6.145   0.062   9.916 -0.2373  0.1566  0.3003
   43CHL1   H1A 5633   6.187   0.042   9.815  2.6756  0.2746  1.3967
   43CHL1   H1B 5634   6.152   0.172   9.919 -2.5762  0.3374  2.3800
   43CHL1    C2 5635   6.248   0.012  10.017  0.0012 -0.8177 -0.5971
   43CHL1   H2A 5636   6.349   0.053   9.997 -0.2064  0.4217  0.8027
   43CHL1   H2B 5637   6.268  -0.097  10.013  0.4555 -0.7696  0.2450
   43CHL1   C20 5638   5.515   0.181   9.431 -0.9437 -0.1987  0.2469
   43CHL1   H20 5639   5.475   0.077   9.437 -1.4567 -0.0923 -1.0536
   43CHL1   C21 5640   5.630   0.179   9.327  0.1890 -0.1647  0.2360
   43CHL1  H21A 5641   5.586   0.172   9.225 -1.2493 -1.9609  0.9273
   43CHL1  H21B 5642   5.680   0.084   9.355 -0.6936 -0.3322  1.2999
   43CHL1  H21C 5643   5.699   0.267   9.328 -0.1372  0.2315 -2.7544
   43CHL1   C22 5644   5.390   0.266   9.369 -0.0342 -1.0229 -0.9984
   43CHL1  H22A 5645   5.368   0.220   9.271 -1.0727 -0.5141 -1.0206
   43CHL1  H22B 5646   5.300   0.263   9.435  1.4846  0.9388  1.3286
   43CHL1   C23 5647   5.427   0.415   9.320  0.6300  0.4765 -0.1448
   43CHL1  H23A 5648   5.454   0.477   9.409  0.9308  1.9205 -1.2044
   43CHL1  H23B 5649   5.514   0.409   9.251 -1.0056 -1.7611 -2.1431
   43CHL1   C24 5650   5.302   0.471   9.251  0.3005 -0.6628  0.4894
   43CHL1  H24A 5651   5.259   0.406   9.172 -0.3044  2.4658 -1.9672
   43CHL1  H24B 5652   5.228   0.497   9.329 -0.2638  2.3423 -0.9202
   43CHL1   C25 5653   5.323   0.616   9.187 -0.0286  1.3071 -0.4752
   43CHL1   H25 5654   5.391   0.613   9.099  0.6598 -3.6043 -0.0371
   43CHL1   C26 5655   5.186   0.658   9.135  0.5218  0.2262 -0.8700
   43CHL1  H26A 5656   5.205   0.753   9.082 -1.0009 -0.2590 -2.3684
   43CHL1  H26B 5657   5.139   0.581   9.070 -0.2205  0.2410 -0.3573
   43CHL1  H26C 5658   5.103   0.668   9.208 -0.3406 -1.5439 -1.5425
   43CHL1   C27 5659   5.374   0.721   9.281  0.4427 -0.6290  0.0486
   43CHL1  H27A 5660   5.359   0.823   9.241  0.9895 -0.1224  1.0945
   43CHL1  H27B 5661   5.305   0.730   9.367 -1.5515 -0.2996 -1.5175
   43CHL1  H27C 5662   5.479   0.695   9.308 -0.0404 -2.7466  0.1062
   44CHL1    C3 5663   0.421   4.019  10.333 -0.0416 -0.0223 -0.6029
   44CHL1    H3 5664   0.504   3.955  10.297  0.6080 -0.3187  1.2882
   44CHL1    O3 5665   0.432   4.017  10.474 -0.1765  0.3474 -0.1128
   44CHL1   H3' 5666   0.355   4.067  10.500 -0.2321  0.9876 -1.4513
   44CHL1    C4 5667   0.445   4.170  10.292  0.0953 -0.3265  0.4944
   44CHL1   H4A 5668   0.389   4.242  10.355 -0.2901 -1.8095  1.9363
   44CHL1   H4B 5669   0.551   4.189  10.320  0.4501 -0.4011 -0.7362
   44CHL1    C5 5670   0.423   4.203  10.144  0.6914 -1.2977 -0.6741
   44CHL1    C6 5671   0.512   4.281  10.079 -0.0915 -0.3354  0.1590
   44CHL1    H6 5672   0.602   4.319  10.129 -0.7260 -0.6889  1.6013
   44CHL1    C7 5673   0.498   4.329   9.928 -0.3177 -0.1357 -0.0119
   44CHL1   H7A 5674   0.491   4.439   9.910  2.1461  0.5732  2.5513
   44CHL1   H7B 5675   0.577   4.290   9.861 -0.6359  1.5424 -1.4240
   44CHL1    C8 5676   0.361   4.282   9.866  0.1461 -0.5930  0.4753
   44CHL1    H8 5677   0.283   4.354   9.899  0.9823  0.2555  0.6465
   44CHL1   C14 5678   0.370   4.271   9.715  0.0865  1.1426  0.0835
   44CHL1   H14 5679   0.442   4.187   9.704 -2.7520 -1.3756 -0.5248
   44CHL1   C15 5680   0.433   4.384   9.634  0.5779  0.1729  0.2819
   44CHL1  H15A 5681   0.389   4.478   9.676  1.4148  0.6766  0.0641
   44CHL1  H15B 5682   0.543   4.382   9.645  0.4371 -1.0871  1.9232
   44CHL1   C16 5683   0.382   4.352   9.493  0.2057 -0.5264 -0.4309
   44CHL1  H16A 5684   0.331   4.444   9.455  0.3735 -0.6563 -0.9881
   44CHL1  H16B 5685   0.471   4.338   9.428  1.9963 -1.6004  2.0952
   44CHL1   C17 5686   0.288   4.236   9.495  0.4734  0.0784 -0.1549
   44CHL1   H17 5687   0.339   4.137   9.500  0.1658 -0.0094  2.8780
   44CHL1   C13 5688   0.244   4.237   9.639 -0.4079  0.7975 -0.3390
   44CHL1   C18 5689   0.139   4.346   9.664 -0.3674  0.1570 -0.2612
   44CHL1  H18A 5690   0.140   4.385   9.768  1.6342  1.0913 -0.5911
   44CHL1  H18B 5691   0.153   4.442   9.610 -1.5534  1.5334  1.7144
   44CHL1  H18C 5692   0.042   4.308   9.625  0.5618 -0.8514 -1.6760
   44CHL1   C12 5693   0.191   4.095   9.700 -0.3469  0.7673 -0.1524
   44CHL1  H12A 5694   0.093   4.076   9.651 -0.4715  0.1751  0.3197
   44CHL1  H12B 5695   0.256   4.007   9.680 -1.7978 -1.0375  2.4758
   44CHL1   C11 5696   0.174   4.107   9.853 -0.8699  0.2928  0.2603
   44CHL1  H11A 5697   0.103   4.192   9.868  1.2184  2.2560 -0.3807
   44CHL1  H11B 5698   0.140   4.015   9.905  0.3019 -0.7865 -0.8339
   44CHL1    C9 5699   0.305   4.151   9.929 -0.4150 -0.0078 -0.2323
   44CHL1    H9 5700   0.376   4.070   9.901  1.1881  1.7711 -1.6036
   44CHL1   C10 5701   0.301   4.146  10.083  0.6802  0.1795 -0.0037
   44CHL1   C19 5702   0.173   4.224  10.122 -0.0107  0.3526 -0.6103
   44CHL1  H19A 5703   0.076   4.200  10.073 -0.1276  2.5898 -1.5869
   44CHL1  H19B 5704   0.167   4.215  10.233 -0.2987  0.4135 -0.6203
   44CHL1  H19C 5705   0.188   4.333  10.103 -0.7935  0.2341 -2.0303
   44CHL1    C1 5706   0.282   3.997  10.128 -0.2045  0.3096 -0.3170
   44CHL1   H1A 5707   0.183   3.961  10.091 -0.4898  2.1260 -1.4419
   44CHL1   H1B 5708   0.363   3.936  10.082  0.3079 -0.1032  1.0939
   44CHL1    C2 5709   0.297   3.967  10.283 -0.1088  0.6982  0.3524
   44CHL1   H2A 5710   0.290   3.860  10.312  2.5745  0.3003 -0.1896
   44CHL1   H2B 5711   0.213   4.019  10.333  0.0795  1.8858 -0.5082
   44CHL1   C20 5712   0.196   4.239   9.372  0.4754 -0.6827  0.2535
   44CHL1   H20 5713   0.158   4.342   9.355 -1.1408 -1.2793  0.0794
   44CHL1   C21 5714   0.075   4.141   9.390 -0.0389  0.3719 -0.4753
   44CHL1  H21A 5715   0.007   4.148   9.303  0.3667  0.6259 -0.7682
   44CHL1  H21B 5716   0.010   4.156   9.479  1.4515  1.5403  0.4643
   44CHL1  H21C 5717   0.117   4.038   9.399  0.3457  0.6285  0.9972
   44CHL1   C22 5718   0.264   4.230   9.230 -0.0906 -0.5756  0.1359
   44CHL1  H22A 5719   0.189   4.249   9.150  0.8881 -1.2753 -0.9835
   44CHL1  H22B 5720   0.348   4.303   9.220  0.0309 -0.8661 -1.0588
   44CHL1   C23 5721   0.320   4.086   9.206  0.2632  0.6410 -0.6749
   44CHL1  H23A 5722   0.382   4.066   9.296  0.3157 -0.5516 -0.9593
   44CHL1  H23B 5723   0.238   4.010   9.209  0.1144  0.7712 -1.3751
   44CHL1   C24 5724   0.405   4.067   9.074  0.0080 -0.0674  0.0149
   44CHL1  H24A 5725   0.331   4.103   9.000 -0.3444  0.8763  0.8032
   44CHL1  H24B 5726   0.482   4.146   9.060 -0.1630 -0.0168 -0.6974
   44CHL1   C25 5727   0.433   3.922   9.041  0.0154  0.5554 -0.0902
   44CHL1   H25 5728   0.355   3.862   9.092  2.3617 -2.2077  0.5165
   44CHL1   C26 5729   0.447   3.889   8.888 -0.0986 -0.3192 -0.4652
   44CHL1  H26A 5730   0.516   3.958   8.836 -1.8285  1.3823 -0.6147
   44CHL1  H26B 5731   0.462   3.779   8.875  0.7929 -0.6333  2.4446
   44CHL1  H26C 5732   0.349   3.908   8.839 -0.5678  1.5177  1.0742
   44CHL1   C27 5733   0.565   3.863   9.097  0.5350  0.1475 -0.6275
   44CHL1  H27A 5734   0.575   3.759   9.060 -0.8533 -0.4841  0.6667
   44CHL1  H27B 5735   0.658   3.914   9.067 -0.4075  1.6715 -1.0713
   44CHL1  H27C 5736   0.559   3.881   9.206 -2.5588  3.8035 -1.1747
   45CHL1    C3 5737   4.863   0.262  10.419 -0.9921 -0.5871  0.1847
   45CHL1    H3 5738   4.911   0.162  10.425 -0.1187 -0.3227 -1.6745
   45CHL1    O3 5739   4.844   0.309  10.546  0.1077  0.2061  0.4105
   45CHL1   H3' 5740   4.821   0.401  10.531  2.0125  0.7196  0.4499
   45CHL1    C4 5741   4.968   0.354  10.340  1.3331  0.1907 -0.2813
   45CHL1   H4A 5742   4.942   0.462  10.347  0.1399 -0.1205  0.3045
   45CHL1   H4B 5743   5.060   0.331  10.397  0.2442  0.1315  1.5126
   45CHL1    C5 5744   4.984   0.302  10.198 -0.1296 -0.0134  0.1255
   45CHL1    C6 5745   5.102   0.279  10.144 -0.5798 -0.8897  0.0095
   45CHL1    H6 5746   5.187   0.309  10.208 -1.1865 -2.0347  1.4204
   45CHL1    C7 5747   5.128   0.236  10.003 -0.1538  0.6841  0.2043
   45CHL1   H7A 5748   5.216   0.287   9.959 -0.1029  0.9416  0.5966
   45CHL1   H7B 5749   5.148   0.127   9.997  4.7050  1.4463 -3.4495
   45CHL1    C8 5750   5.009   0.251   9.903  0.3866 -0.5121 -0.3953
   45CHL1    H8 5751   5.014   0.168   9.829 -2.8041 -1.4167  0.2653
   45CHL1   C14 5752   5.017   0.380   9.820  0.8328 -0.3135 -0.4879
   45CHL1   H14 5753   5.034   0.465   9.890  3.1947 -1.2371  0.1490
   45CHL1   C15 5754   5.133   0.373   9.717 -0.5156  0.0329 -0.2532
   45CHL1  H15A 5755   5.184   0.472   9.723 -1.1147  0.3125  0.3475
   45CHL1  H15B 5756   5.197   0.285   9.737 -1.5834 -0.9398 -0.9903
   45CHL1   C16 5757   5.074   0.363   9.580 -0.0065 -0.2788 -0.2689
   45CHL1  H16A 5758   5.077   0.464   9.533 -2.9106 -0.4987 -1.1544
   45CHL1  H16B 5759   5.127   0.290   9.514 -0.5756  0.3128 -1.4229
   45CHL1   C17 5760   4.923   0.333   9.604  0.4246  0.2669 -0.2369
   45CHL1   H17 5761   4.921   0.224   9.628  1.6393 -0.3892 -2.7254
   45CHL1   C13 5762   4.881   0.402   9.736 -0.7842  0.4539 -0.1425
   45CHL1   C18 5763   4.863   0.557   9.724  0.2056  0.1912  0.6349
   45CHL1  H18A 5764   4.960   0.602   9.696 -0.0863 -0.7535 -2.2365
   45CHL1  H18B 5765   4.785   0.587   9.650  1.5435  3.3848  0.3497
   45CHL1  H18C 5766   4.823   0.591   9.822 -1.6475  0.9636 -0.3210
   45CHL1   C12 5767   4.752   0.337   9.790 -0.4721  0.0542 -0.4844
   45CHL1  H12A 5768   4.701   0.418   9.847  0.8428  1.2061 -0.8752
   45CHL1  H12B 5769   4.686   0.319   9.703 -2.4404  1.6694  0.5852
   45CHL1   C11 5770   4.765   0.213   9.878 -0.0434 -1.4575  0.4953
   45CHL1  H11A 5771   4.674   0.182   9.934  0.3642 -0.0431  2.0452
   45CHL1  H11B 5772   4.789   0.139   9.799  1.0153  0.8155 -1.4182
   45CHL1    C9 5773   4.883   0.221   9.980 -0.2729 -0.1903  0.2546
   45CHL1    H9 5774   4.899   0.115  10.008 -0.1927 -1.2113 -3.3037
   45CHL1   C10 5775   4.854   0.287  10.113  1.2356  0.0222 -0.4720
   45CHL1   C19 5776   4.778   0.418  10.094 -0.1462 -0.2474 -0.4429
   45CHL1  H19A 5777   4.672   0.405  10.067 -0.7145  2.6236  0.1013
   45CHL1  H19B 5778   4.786   0.476  10.189  1.0732  0.8332 -1.1736
   45CHL1  H19C 5779   4.833   0.479  10.019  0.2388 -0.0086  0.0238
   45CHL1    C1 5780   4.767   0.198  10.198  0.2618  0.4809 -0.9154
   45CHL1   H1A 5781   4.671   0.198  10.143  0.3265  0.8391 -1.0286
   45CHL1   H1B 5782   4.797   0.092  10.205 -1.3464  0.0749  0.8412
   45CHL1    C2 5783   4.735   0.250  10.338 -0.3282  0.3249 -0.3882
   45CHL1   H2A 5784   4.681   0.171  10.394  1.3551  1.5290  3.2397
   45CHL1   H2B 5785   4.666   0.337  10.346  1.2657  1.6001  0.0072
   45CHL1   C20 5786   4.829   0.353   9.480  0.4279 -0.1021  0.3339
   45CHL1   H20 5787   4.743   0.416   9.511 -1.0178 -1.5042 -0.6389
   45CHL1   C21 5788   4.765   0.213   9.447  0.0431 -0.2744 -0.2003
   45CHL1  H21A 5789   4.709   0.176   9.536  0.0887 -0.1019 -0.0992
   45CHL1  H21B 5790   4.836   0.129   9.427  0.6169  0.0031  0.5801
   45CHL1  H21C 5791   4.695   0.232   9.364 -0.8891  2.1188  1.0339
   45CHL1   C22 5792   4.892   0.418   9.358  1.1666  0.0189 -0.5002
   45CHL1  H22A 5793   4.924   0.522   9.380 -2.2644  1.1303 -0.1194
   45CHL1  H22B 5794   4.983   0.360   9.331 -0.4030 -1.4769 -2.9211
   45CHL1   C23 5795   4.793   0.430   9.245  0.5727 -0.5680  0.4450
   45CHL1  H23A 5796   4.767   0.336   9.193  1.2794  0.3540 -1.6929
   45CHL1  H23B 5797   4.704   0.476   9.292  1.4444 -0.9992  2.6586
   45CHL1   C24 5798   4.855   0.507   9.130  0.0895 -0.2420 -0.0290
   45CHL1  H24A 5799   4.900   0.602   9.168 -1.2840 -0.3849  2.1205
   45CHL1  H24B 5800   4.939   0.442   9.099  2.0446  1.7385  0.8043
   45CHL1   C25 5801   4.762   0.516   9.008 -0.3466 -0.4835 -0.2679
   45CHL1   H25 5802   4.725   0.412   8.994  0.0313 -0.6993  0.3122
   45CHL1   C26 5803   4.638   0.605   9.042 -1.0739 -0.3115  0.4145
   45CHL1  H26A 5804   4.561   0.584   8.965  0.5784  2.1163 -2.0927
   45CHL1  H26B 5805   4.592   0.585   9.141  0.0816 -1.8060  0.6946
   45CHL1  H26C 5806   4.671   0.711   9.045 -0.1268 -0.6007  2.3203
   45CHL1   C27 5807   4.838   0.555   8.883  0.0090 -0.6201 -0.5001
   45CHL1  H27A 5808   4.850   0.665   8.883 -1.0448 -0.4906  0.2557
   45CHL1  H27B 5809   4.941   0.513   8.881  1.2194  1.9232  1.9055
   45CHL1  H27C 5810   4.794   0.520   8.787  0.6636 -1.2840 -0.5670
   46CHL1    C3 5811   2.299   1.445  10.294 -0.0016 -0.7018  0.0906
   46CHL1    H3 5812   2.347   1.544  10.310 -1.0619 -0.1576 -0.0097
   46CHL1    O3 5813   2.257   1.421  10.421 -0.4884  0.7212  0.6640
   46CHL1   H3' 5814   2.186   1.480  10.449 -0.7340  1.3283 -1.0984
   46CHL1    C4 5815   2.186   1.453  10.198 -0.4240  0.3010 -0.4044
   46CHL1   H4A 5816   2.127   1.359  10.203  3.0679 -2.2676 -2.5966
   46CHL1   H4B 5817   2.127   1.542  10.227  0.9438  0.9996  0.3335
   46CHL1    C5 5818   2.219   1.457  10.055  0.1920  0.2431  0.1958
   46CHL1    C6 5819   2.176   1.551   9.969 -1.0323 -0.6419  0.4451
   46CHL1    H6 5820   2.117   1.637  10.005  0.1565  0.5045 -0.2501
   46CHL1    C7 5821   2.212   1.549   9.829  0.5816 -0.5876  0.1808
   46CHL1   H7A 5822   2.133   1.609   9.779  0.7117  1.0669  1.8665
   46CHL1   H7B 5823   2.294   1.621   9.810  0.2119  0.4484  2.2605
   46CHL1    C8 5824   2.252   1.416   9.774 -0.1185 -0.0806 -0.7160
   46CHL1    H8 5825   2.157   1.362   9.756 -1.3342  1.2529  1.3612
   46CHL1   C14 5826   2.314   1.428   9.635 -0.0183 -0.3843 -0.5063
   46CHL1   H14 5827   2.412   1.476   9.655 -0.6424  0.5116  0.4621
   46CHL1   C15 5828   2.255   1.521   9.518 -0.2734 -0.2874 -0.1512
   46CHL1  H15A 5829   2.144   1.529   9.519 -0.3050 -0.4556  1.8792
   46CHL1  H15B 5830   2.292   1.624   9.536  0.1565 -0.2862 -0.9757
   46CHL1   C16 5831   2.317   1.463   9.390 -0.0224 -0.1514 -0.4165
   46CHL1  H16A 5832   2.236   1.434   9.319 -1.7561  1.6191  0.7622
   46CHL1  H16B 5833   2.393   1.530   9.345 -0.0641  0.1424 -0.0521
   46CHL1   C17 5834   2.392   1.336   9.431  0.1753 -0.4922  0.2372
   46CHL1   H17 5835   2.491   1.376   9.460  0.0673 -0.5665  0.7024
   46CHL1   C13 5836   2.337   1.293   9.565  0.4462  0.0488  0.1782
   46CHL1   C18 5837   2.208   1.209   9.556 -0.8609 -0.4906 -0.2997
   46CHL1  H18A 5838   2.130   1.266   9.501 -1.2714 -0.1826  0.5863
   46CHL1  H18B 5839   2.225   1.110   9.508  2.7067 -1.2980  2.2180
   46CHL1  H18C 5840   2.171   1.184   9.658 -1.7039 -1.9685 -0.9396
   46CHL1   C12 5841   2.440   1.217   9.653  0.6963  0.8004 -0.5385
   46CHL1  H12A 5842   2.453   1.115   9.609 -1.5191  1.2292 -2.3935
   46CHL1  H12B 5843   2.537   1.270   9.657  1.5392 -0.6254 -1.0114
   46CHL1   C11 5844   2.385   1.200   9.800 -0.4076  0.4300  0.2881
   46CHL1  H11A 5845   2.302   1.125   9.795 -0.4688  0.5761 -2.5204
   46CHL1  H11B 5846   2.464   1.160   9.867  1.2832  1.2959 -1.1322
   46CHL1    C9 5847   2.348   1.339   9.865 -0.6416  0.3787 -0.0944
   46CHL1    H9 5848   2.442   1.399   9.857 -0.8824  0.6755 -0.8502
   46CHL1   C10 5849   2.304   1.335  10.011  0.1957  0.1047 -0.1672
   46CHL1   C19 5850   2.228   1.197  10.037 -0.2664 -0.1784  0.1770
   46CHL1  H19A 5851   2.293   1.109  10.017 -1.2202 -0.5382 -1.5364
   46CHL1  H19B 5852   2.210   1.185  10.146  2.4338 -0.5596  0.6598
   46CHL1  H19C 5853   2.139   1.193   9.971  2.0436  1.4619 -3.3277
   46CHL1    C1 5854   2.429   1.353  10.100 -0.9099  0.0959 -0.4480
   46CHL1   H1A 5855   2.496   1.267  10.082 -0.9625 -0.0428  0.0262
   46CHL1   H1B 5856   2.483   1.446  10.070  1.9269 -0.8000  1.4405
   46CHL1    C2 5857   2.407   1.348  10.253  0.0673  0.0424  0.9533
   46CHL1   H2A 5858   2.502   1.355  10.312 -0.2167 -0.2639  1.4532
   46CHL1   H2B 5859   2.372   1.247  10.281 -1.0249  0.6487  1.8626
   46CHL1   C20 5860   2.425   1.234   9.328 -0.3611  0.4464 -0.2029
   46CHL1   H20 5861   2.451   1.136   9.373 -1.5825 -0.6454 -1.7733
   46CHL1   C21 5862   2.557   1.277   9.261 -0.7323  0.1396  0.5109
   46CHL1  H21A 5863   2.585   1.188   9.200 -2.8180 -0.6996  0.7008
   46CHL1  H21B 5864   2.635   1.292   9.338  0.3103  0.5514 -0.5860
   46CHL1  H21C 5865   2.553   1.374   9.206 -0.4859  0.2211  0.6381
   46CHL1   C22 5866   2.308   1.210   9.230 -0.5624 -0.1247 -0.3532
   46CHL1  H22A 5867   2.207   1.215   9.275 -0.6055 -1.4197 -0.2647
   46CHL1  H22B 5868   2.306   1.282   9.145  0.4651  0.8971  0.4695
   46CHL1   C23 5869   2.309   1.066   9.178  0.2698  0.0031 -0.3403
   46CHL1  H23A 5870   2.389   1.049   9.103 -0.6499  0.1192 -1.3812
   46CHL1  H23B 5871   2.327   0.994   9.260  2.4836 -0.1191 -0.8717
   46CHL1   C24 5872   2.158   1.035   9.134  0.3731  0.2226 -0.1877
   46CHL1  H24A 5873   2.081   1.051   9.212 -1.5916  1.0459 -2.1785
   46CHL1  H24B 5874   2.134   1.107   9.052  1.1649 -0.2081 -0.8130
   46CHL1   C25 5875   2.137   0.899   9.067 -0.1987  0.2489  0.2144
   46CHL1   H25 5876   2.227   0.867   9.011 -0.1429  1.2025 -0.2560
   46CHL1   C26 5877   2.103   0.805   9.187 -0.5323 -0.2450 -0.1537
   46CHL1  H26A 5878   2.191   0.803   9.255 -0.3047  1.1758 -0.3701
   46CHL1  H26B 5879   2.019   0.845   9.248 -0.1766 -0.4557  0.4870
   46CHL1  H26C 5880   2.079   0.709   9.137  0.3421  0.0755 -1.2301
   46CHL1   C27 5881   2.019   0.903   8.963 -0.3326 -0.3524  0.4026
   46CHL1  H27A 5882   2.042   0.957   8.869  3.4225  2.0364  2.4443
   46CHL1  H27B 5883   1.987   0.801   8.932 -3.2755  1.0289 -1.6240
   46CHL1  H27C 5884   1.935   0.953   9.017 -0.1343  0.4105  0.0183
   47CHL1    C3 5885   0.895   3.983  10.262 -0.0619  0.6526 -0.1398
   47CHL1    H3 5886   1.004   3.990  10.244  0.4426 -1.5855  1.6127
   47CHL1    O3 5887   0.866   3.961  10.397 -0.2481 -0.5392  0.0982
   47CHL1   H3' 5888   0.947   3.919  10.426  0.7961  1.0568 -0.3955
   47CHL1    C4 5889   0.819   4.105  10.217 -0.4779 -0.3499 -0.5217
   47CHL1   H4A 5890   0.715   4.098  10.254 -0.7312  0.5415 -1.0344
   47CHL1   H4B 5891   0.861   4.191  10.273 -0.5815 -1.5689  1.5174
   47CHL1    C5 5892   0.838   4.131  10.068 -0.0677  0.0198  0.1594
   47CHL1    C6 5893   0.879   4.253  10.020 -0.1363  0.5204 -0.3893
   47CHL1    H6 5894   0.902   4.341  10.082 -3.4768  1.0463  0.3219
   47CHL1    C7 5895   0.911   4.269   9.876 -0.5862 -0.1256 -0.7768
   47CHL1   H7A 5896   0.883   4.374   9.853 -1.2307  0.1352  1.0226
   47CHL1   H7B 5897   1.020   4.254   9.860 -0.8749 -0.8821 -2.1849
   47CHL1    C8 5898   0.839   4.171   9.777 -0.4944  0.4370 -0.2476
   47CHL1    H8 5899   0.730   4.191   9.788 -0.1234  2.2598  0.6108
   47CHL1   C14 5900   0.871   4.197   9.631 -0.3639  0.3428 -0.0965
   47CHL1   H14 5901   0.982   4.191   9.626 -0.3542 -0.2488  0.6152
   47CHL1   C15 5902   0.845   4.339   9.576 -0.0686  0.5699  1.1900
   47CHL1  H15A 5903   0.757   4.380   9.630 -1.6821 -1.2851  0.1026
   47CHL1  H15B 5904   0.932   4.405   9.596  1.4222 -1.1467  0.6363
   47CHL1   C16 5905   0.835   4.319   9.428  0.0241 -0.3458  0.2456
   47CHL1  H16A 5906   0.732   4.342   9.395  0.5570  2.1582  0.0432
   47CHL1  H16B 5907   0.909   4.385   9.377  1.0077 -1.0862  0.6733
   47CHL1   C17 5908   0.864   4.163   9.404 -0.0212 -0.0006  0.1988
   47CHL1   H17 5909   0.975   4.150   9.403  0.0544  0.6226  0.2224
   47CHL1   C13 5910   0.819   4.093   9.529 -0.2679 -0.5270  0.0893
   47CHL1   C18 5911   0.669   4.093   9.538 -0.4598  0.4425  0.1704
   47CHL1  H18A 5912   0.627   4.196   9.539 -0.9251  0.2523  0.4949
   47CHL1  H18B 5913   0.611   4.043   9.457 -2.6955  1.6781  0.8944
   47CHL1  H18C 5914   0.624   4.049   9.629  0.3890  2.7460  1.7723
   47CHL1   C12 5915   0.872   3.954   9.571 -0.5456  0.6588  0.1575
   47CHL1  H12A 5916   0.826   3.875   9.508 -1.5426  0.4617  1.0989
   47CHL1  H12B 5917   0.981   3.944   9.551 -0.9687 -0.4785 -1.9123
   47CHL1   C11 5918   0.836   3.915   9.718 -0.2608 -0.2563  0.0430
   47CHL1  H11A 5919   0.725   3.913   9.721 -0.2331 -1.1380  1.5836
   47CHL1  H11B 5920   0.878   3.819   9.753  3.1566  1.6520  1.7632
   47CHL1    C9 5921   0.872   4.027   9.824  0.6702  0.1071 -1.2531
   47CHL1    H9 5922   0.983   4.031   9.833  0.8125 -1.0406 -2.1429
   47CHL1   C10 5923   0.816   4.009   9.973 -0.4309  0.8570 -0.0315
   47CHL1   C19 5924   0.661   3.980   9.981 -0.0580 -0.0921 -0.2733
   47CHL1  H19A 5925   0.618   3.978  10.083 -1.6499  0.5942 -0.8930
   47CHL1  H19B 5926   0.605   4.060   9.930  1.1259  1.7387  1.1753
   47CHL1  H19C 5927   0.630   3.886   9.930 -0.7745  1.4021 -2.7865
   47CHL1    C1 5928   0.888   3.881  10.031  0.7912 -0.1983  0.1697
   47CHL1   H1A 5929   0.852   3.792   9.976 -1.3894 -0.0724  1.2919
   47CHL1   H1B 5930   0.999   3.885  10.027  0.7287  0.5395 -2.7305
   47CHL1    C2 5931   0.857   3.860  10.179 -0.4474 -0.2877 -0.5202
   47CHL1   H2A 5932   0.923   3.778  10.215 -0.8960 -1.9771 -3.2511
   47CHL1   H2B 5933   0.753   3.828  10.200 -1.0727  1.1771 -1.2383
   47CHL1   C20 5934   0.814   4.120   9.266 -0.2438  0.1816  0.4171
   47CHL1   H20 5935   0.703   4.114   9.266 -0.2587 -1.2487 -2.6127
   47CHL1   C21 5936   0.867   3.973   9.245  0.0590  0.3531  0.0570
   47CHL1  H21A 5937   0.846   3.935   9.143 -1.6678 -3.2292  1.5742
   47CHL1  H21B 5938   0.814   3.895   9.303  0.9858 -1.8234 -1.8661
   47CHL1  H21C 5939   0.975   3.969   9.269 -0.2306 -0.5545  1.2902
   47CHL1   C22 5940   0.848   4.224   9.157 -1.1822 -0.2061 -0.4465
   47CHL1  H22A 5941   0.781   4.312   9.172  1.1823  1.4584  1.3480
   47CHL1  H22B 5942   0.950   4.267   9.167 -0.2472 -2.6359  1.3792
   47CHL1   C23 5943   0.825   4.182   9.012 -0.0358  0.1893  0.3986
   47CHL1  H23A 5944   0.897   4.098   8.999  1.3933  1.3552  0.4087
   47CHL1  H23B 5945   0.722   4.142   9.009 -0.1513  0.3046  2.2560
   47CHL1   C24 5946   0.851   4.289   8.900  0.5385  0.0324 -1.1617
   47CHL1  H24A 5947   0.766   4.361   8.902 -0.8625 -1.4538  2.3109
   47CHL1  H24B 5948   0.940   4.348   8.933  0.9786  0.0610 -2.3505
   47CHL1   C25 5949   0.861   4.233   8.754  0.2483  0.1651 -0.2231
   47CHL1   H25 5950   0.769   4.174   8.735 -0.3181 -1.2186  5.1925
   47CHL1   C26 5951   0.859   4.352   8.664 -0.4389 -0.0144  0.0855
   47CHL1  H26A 5952   0.943   4.418   8.695 -1.4209  1.6630 -0.7089
   47CHL1  H26B 5953   0.759   4.400   8.665 -0.0733  0.8342 -1.2726
   47CHL1  H26C 5954   0.872   4.317   8.560  1.3813 -1.7846  0.8442
   47CHL1   C27 5955   0.998   4.153   8.739  0.1376  0.7468  0.5367
   47CHL1  H27A 5956   1.081   4.226   8.749  0.4395  0.5108 -0.1933
   47CHL1  H27B 5957   1.000   4.073   8.816  0.4035 -1.2306 -1.4237
   47CHL1  H27C 5958   1.009   4.114   8.636 -2.7137  0.3245  0.2975
   48CHL1    C3 5959   2.347   0.295  10.373  0.6031 -0.0294 -0.0472
   48CHL1    H3 5960   2.395   0.195  10.373  1.5748  0.4221 -1.0162
   48CHL1    O3 5961   2.346   0.341  10.510  1.1515  0.3698 -0.0358
   48CHL1   H3' 5962   2.306   0.428  10.506  0.6023  0.2134  1.4422
   48CHL1    C4 5963   2.421   0.388  10.277 -0.0466  0.0921 -0.1044
   48CHL1   H4A 5964   2.367   0.485  10.272 -2.0504 -0.9742 -0.3485
   48CHL1   H4B 5965   2.520   0.408  10.323 -0.4730 -0.3095  1.0454
   48CHL1    C5 5966   2.429   0.335  10.134  0.2503 -0.0687 -0.4406
   48CHL1    C6 5967   2.545   0.317  10.071 -0.0241 -0.0215  0.3477
   48CHL1    H6 5968   2.638   0.336  10.126 -0.0947 -0.2595  0.5498
   48CHL1    C7 5969   2.558   0.265   9.929 -0.5472 -0.1871 -0.4101
   48CHL1   H7A 5970   2.635   0.321   9.872  0.0284  1.0254  1.4783
   48CHL1   H7B 5971   2.588   0.159   9.941 -2.4737 -0.9757 -2.0109
   48CHL1    C8 5972   2.416   0.258   9.863  0.0759  0.0865  0.5382
   48CHL1    H8 5973   2.384   0.355   9.819 -0.7952 -1.0051 -1.3382
   48CHL1   C14 5974   2.435   0.157   9.750  0.3008  0.1072  0.8747
   48CHL1   H14 5975   2.465   0.061   9.798 -0.2433 -0.9446 -0.7866
   48CHL1   C15 5976   2.542   0.178   9.646 -0.3788  0.4765  0.3421
   48CHL1  H15A 5977   2.539   0.284   9.613  2.3063 -0.0333 -1.9806
   48CHL1  H15B 5978   2.643   0.157   9.689  0.7139  1.0324 -1.8290
   48CHL1   C16 5979   2.502   0.082   9.528 -0.2886  0.3142  0.4160
   48CHL1  H16A 5980   2.519   0.132   9.431  0.4411 -2.4023 -0.9545
   48CHL1  H16B 5981   2.563  -0.011   9.540  0.1366  0.2983 -1.5628
   48CHL1   C17 5982   2.353   0.040   9.552 -0.1248  0.0008  0.0316
   48CHL1   H17 5983   2.367  -0.056   9.607 -3.1976  0.5610  2.0396
   48CHL1   C13 5984   2.307   0.136   9.665 -0.3815  0.2804 -0.2999
   48CHL1   C18 5985   2.267   0.271   9.597  0.6530 -0.3094 -0.1215
   48CHL1  H18A 5986   2.333   0.282   9.508  4.3928 -2.7710  2.1342
   48CHL1  H18B 5987   2.160   0.261   9.569  0.9827 -2.3596 -0.7577
   48CHL1  H18C 5988   2.271   0.364   9.658  2.0909 -0.4448  0.0054
   48CHL1   C12 5989   2.199   0.087   9.755  0.1088 -0.0307 -0.3469
   48CHL1  H12A 5990   2.094   0.099   9.722 -1.0517  1.7238  3.4589
   48CHL1  H12B 5991   2.220  -0.019   9.783 -0.0457 -0.0502 -0.3063
   48CHL1   C11 5992   2.175   0.168   9.887  0.2527 -1.0648 -0.2603
   48CHL1  H11A 5993   2.129   0.265   9.860 -1.5829 -0.8492  3.0939
   48CHL1  H11B 5994   2.105   0.124   9.961 -0.5763  0.9539  0.2222
   48CHL1    C9 5995   2.301   0.202   9.961 -1.0018 -0.3255 -0.4915
   48CHL1    H9 5996   2.342   0.109  10.006 -0.4630 -0.6350 -1.5798
   48CHL1   C10 5997   2.286   0.295  10.081 -0.1484 -0.3532 -0.1563
   48CHL1   C19 5998   2.239   0.436  10.044 -0.6065 -0.8534  0.0971
   48CHL1  H19A 5999   2.295   0.500   9.973 -1.4779  1.5835  1.4509
   48CHL1  H19B 6000   2.142   0.412   9.995 -0.6181 -0.0313 -0.3048
   48CHL1  H19C 6001   2.223   0.500  10.134 -1.4444  0.5572 -1.0098
   48CHL1    C1 6002   2.195   0.227  10.188  0.3125  0.6913 -0.3401
   48CHL1   H1A 6003   2.090   0.238  10.153  0.3427 -0.7662 -0.9481
   48CHL1   H1B 6004   2.220   0.119  10.184  0.1075  0.4781  2.5239
   48CHL1    C2 6005   2.203   0.288  10.328  0.5825 -0.7092  0.2614
   48CHL1   H2A 6006   2.146   0.217  10.392 -1.8006  1.1656  0.3558
   48CHL1   H2B 6007   2.154   0.387  10.328  0.4755 -0.7584  0.5760
   48CHL1   C20 6008   2.266   0.026   9.425 -1.1137 -0.3489 -0.2542
   48CHL1   H20 6009   2.220   0.123   9.398 -0.6606  0.6038  2.1654
   48CHL1   C21 6010   2.149  -0.063   9.461 -0.3604 -0.3521 -0.3035
   48CHL1  H21A 6011   2.177  -0.169   9.478  1.1628 -0.0613 -0.8560
   48CHL1  H21B 6012   2.070  -0.057   9.383 -0.7750  0.5071  0.1586
   48CHL1  H21C 6013   2.096  -0.032   9.554 -0.2183  0.1353 -0.3830
   48CHL1   C22 6014   2.340  -0.014   9.297 -0.1208 -0.0643 -0.2648
   48CHL1  H22A 6015   2.405   0.070   9.265  1.2071 -0.7852  0.4618
   48CHL1  H22B 6016   2.406  -0.101   9.319 -0.0152 -0.0198 -0.4012
   48CHL1   C23 6017   2.247  -0.052   9.180 -0.0032  0.1541  0.1196
   48CHL1  H23A 6018   2.182  -0.136   9.213  0.4636 -1.2295 -2.2711
   48CHL1  H23B 6019   2.188   0.039   9.156 -0.9346 -0.1721  1.0748
   48CHL1   C24 6020   2.329  -0.091   9.056  0.5413  0.2341  0.2607
   48CHL1  H24A 6021   2.417  -0.028   9.034 -0.0244  0.1608 -2.4997
   48CHL1  H24B 6022   2.366  -0.195   9.061 -1.9147 -0.6920  0.7417
   48CHL1   C25 6023   2.245  -0.088   8.921 -0.3198  0.3735  0.3900
   48CHL1   H25 6024   2.227   0.019   8.898  1.9433  0.8248  0.5180
   48CHL1   C26 6025   2.336  -0.157   8.819 -0.0381  0.9433 -0.1384
   48CHL1  H26A 6026   2.295  -0.165   8.716  0.2866  2.0957 -0.3664
   48CHL1  H26B 6027   2.432  -0.102   8.810 -0.5110  1.5209 -2.0662
   48CHL1  H26C 6028   2.367  -0.262   8.837 -2.1499 -0.0254 -1.7880
   48CHL1   C27 6029   2.112  -0.165   8.923  0.2413 -0.5673  0.1810
   48CHL1  H27A 6030   2.059  -0.139   9.017 -0.3873 -1.9884  0.2449
   48CHL1  H27B 6031   2.048  -0.146   8.834  0.8609  0.2349 -0.1070
   48CHL1  H27C 6032   2.130  -0.275   8.922  0.1386 -0.6433 -2.6333
   49CHL1    C3 6033   1.149   0.719  10.304  0.1262  0.0064 -0.4960
   49CHL1    H3 6034   1.154   0.610  10.282  2.4386  0.0140 -0.2047
   49CHL1    O3 6035   1.157   0.731  10.440  0.3865 -0.7157  0.0039
   49CHL1   H3' 6036   1.178   0.822  10.461  1.3690 -1.1468  1.0220
   49CHL1    C4 6037   1.263   0.794  10.238 -0.1664 -0.1459 -0.2815
   49CHL1   H4A 6038   1.265   0.902  10.260  1.2065 -0.4041  1.0413
   49CHL1   H4B 6039   1.356   0.750  10.282  1.1216 -0.2083 -2.8444
   49CHL1    C5 6040   1.257   0.782  10.088  0.2382 -0.1889 -0.2967
   49CHL1    C6 6041   1.367   0.752  10.024 -0.0347 -0.1137 -0.2873
   49CHL1    H6 6042   1.457   0.739  10.085 -0.7372 -0.2168  0.7634
   49CHL1    C7 6043   1.374   0.743   9.875  0.2480  0.4113  0.1597
   49CHL1   H7A 6044   1.473   0.775   9.838  0.0555 -0.7299 -1.4386
   49CHL1   H7B 6045   1.357   0.639   9.840  2.2811 -0.2750  1.0467
   49CHL1    C8 6046   1.253   0.812   9.805  0.7187 -0.3563 -0.0896
   49CHL1    H8 6047   1.274   0.922   9.804 -1.3341  0.0812 -0.0389
   49CHL1   C14 6048   1.237   0.767   9.657 -0.5260 -0.4720  0.6030
   49CHL1   H14 6049   1.206   0.662   9.673  0.0934 -0.2780  3.5539
   49CHL1   C15 6050   1.362   0.762   9.561 -0.1848  0.3246 -0.4031
   49CHL1  H15A 6051   1.443   0.830   9.594 -1.4211  2.4739 -1.5119
   49CHL1  H15B 6052   1.390   0.656   9.546 -1.4635 -0.2420  0.9815
   49CHL1   C16 6053   1.308   0.790   9.421 -0.5938  0.1234 -0.1278
   49CHL1  H16A 6054   1.344   0.891   9.391 -2.5314  0.2799 -2.1160
   49CHL1  H16B 6055   1.328   0.708   9.349 -2.5995 -0.9211  0.4324
   49CHL1   C17 6056   1.152   0.787   9.435 -0.0281  0.1088  0.1719
   49CHL1   H17 6057   1.122   0.680   9.439 -0.5311  0.1596 -1.5135
   49CHL1   C13 6058   1.131   0.839   9.576 -0.0293  0.0148 -0.7810
   49CHL1   C18 6059   1.152   0.996   9.560 -0.3036 -0.1079 -0.0331
   49CHL1  H18A 6060   1.253   1.019   9.522  1.3696 -0.5684  3.6836
   49CHL1  H18B 6061   1.072   1.043   9.499  0.3150  2.1801  0.8263
   49CHL1  H18C 6062   1.148   1.050   9.657  1.7150  0.4791 -0.2440
   49CHL1   C12 6063   0.998   0.807   9.654 -0.5344  0.7850  0.1791
   49CHL1  H12A 6064   0.911   0.856   9.603 -1.3448 -2.5041 -1.8935
   49CHL1  H12B 6065   0.983   0.697   9.651 -0.0075  0.6313  2.2219
   49CHL1   C11 6066   0.998   0.850   9.794  0.5381  0.4311  0.3010
   49CHL1  H11A 6067   1.016   0.960   9.798  0.3736  0.4781 -0.1421
   49CHL1  H11B 6068   0.905   0.833   9.852 -0.8750 -1.5988 -2.3286
   49CHL1    C9 6069   1.117   0.788   9.872  0.8639 -0.2812  0.3525
   49CHL1    H9 6070   1.093   0.680   9.858  0.1096  0.1256 -1.9319
   49CHL1   C10 6071   1.119   0.821  10.024  0.3347 -1.2007  0.0801
   49CHL1   C19 6072   1.107   0.975  10.041  0.3127  0.0104 -0.0504
   49CHL1  H19A 6073   1.003   1.005  10.015  0.9420 -0.1116 -3.0097
   49CHL1  H19B 6074   1.137   1.006  10.143  1.7104 -1.2033 -0.0673
   49CHL1  H19C 6075   1.165   1.028   9.962 -2.1976  0.4391 -1.7454
   49CHL1    C1 6076   0.997   0.744  10.104 -0.2769 -0.2996 -0.5763
   49CHL1   H1A 6077   0.895   0.777  10.076 -0.7549  0.4810  1.8281
   49CHL1   H1B 6078   1.007   0.634  10.087 -1.9649 -0.4175 -1.0288
   49CHL1    C2 6079   1.009   0.770  10.258  0.0547  0.3438  0.4379
   49CHL1   H2A 6080   0.925   0.720  10.311  0.3606 -0.3389  0.2874
   49CHL1   H2B 6081   1.010   0.876  10.292 -0.6893  0.4633  0.1161
   49CHL1   C20 6082   1.083   0.851   9.314 -0.1388  0.4727 -0.1549
   49CHL1   H20 6083   1.100   0.961   9.310 -1.3027  0.6479 -0.8332
   49CHL1   C21 6084   0.929   0.852   9.338  0.0268  0.1324  0.0015
   49CHL1  H21A 6085   0.880   0.889   9.245 -0.7625  1.2491  0.8379
   49CHL1  H21B 6086   0.903   0.926   9.417 -1.2385 -0.1321 -0.1323
   49CHL1  H21C 6087   0.883   0.757   9.372 -2.4598  1.0774 -0.4824
   49CHL1   C22 6088   1.125   0.789   9.180 -0.3553  0.1937 -0.6077
   49CHL1  H22A 6089   1.236   0.777   9.187 -0.2169  2.0145  1.7681
   49CHL1  H22B 6090   1.080   0.689   9.163 -1.3060  0.7957 -1.8067
   49CHL1   C23 6091   1.093   0.878   9.064 -0.9333 -0.3911  0.6300
   49CHL1  H23A 6092   0.982   0.887   9.053 -0.8808 -1.8105 -1.8894
   49CHL1  H23B 6093   1.138   0.979   9.076  0.2183 -0.9170  0.8458
   49CHL1   C24 6094   1.153   0.820   8.931 -0.1028  0.1858 -0.3508
   49CHL1  H24A 6095   1.262   0.835   8.919 -0.3688  0.9462 -2.3121
   49CHL1  H24B 6096   1.145   0.709   8.928 -0.5912  0.2016  0.1741
   49CHL1   C25 6097   1.079   0.867   8.803 -0.3275  0.2813  0.5989
   49CHL1   H25 6098   1.105   0.803   8.716 -0.4895  0.2518  0.5725
   49CHL1   C26 6099   0.929   0.845   8.806  0.1169 -0.1419  0.3498
   49CHL1  H26A 6100   0.920   0.744   8.852 -0.4540  0.5430  1.7966
   49CHL1  H26B 6101   0.869   0.907   8.876 -0.5155 -1.9731  1.5011
   49CHL1  H26C 6102   0.898   0.851   8.700  2.0365  1.0767 -0.1991
   49CHL1   C27 6103   1.115   1.011   8.771  0.4679  0.4137  0.0292
   49CHL1  H27A 6104   1.077   1.077   8.852 -0.9539  0.0130 -0.2820
   49CHL1  H27B 6105   1.225   1.025   8.766  0.6986 -1.4785 -1.3561
   49CHL1  H27C 6106   1.065   1.041   8.676 -1.4986 -2.8070 -0.1034
   50CHL1    C3 6107   3.958   2.836  10.221  0.0562 -0.2338  0.0330
   50CHL1    H3 6108   3.986   2.728  10.223  3.2638  0.4984 -0.1873
   50CHL1    O3 6109   3.934   2.886  10.354  0.1420 -0.5857  0.3579
   50CHL1   H3' 6110   3.852   2.843  10.379 -1.0215  1.3118  0.0357
   50CHL1    C4 6111   4.072   2.906  10.145  0.1210 -0.4087  0.3161
   50CHL1   H4A 6112   4.048   3.014  10.140 -0.8357 -0.6516 -3.4104
   50CHL1   H4B 6113   4.158   2.900  10.216  1.0570 -1.8830 -0.8713
   50CHL1    C5 6114   4.104   2.855  10.008  0.7429 -0.2917  0.6679
   50CHL1    C6 6115   4.227   2.806   9.971  0.6232 -0.6983  0.1426
   50CHL1    H6 6116   4.301   2.783  10.049  0.6115  1.5401  0.8839
   50CHL1    C7 6117   4.256   2.776   9.828 -1.5101 -0.0649 -0.3571
   50CHL1   H7A 6118   4.355   2.810   9.790 -2.4976  2.0456 -1.2193
   50CHL1   H7B 6119   4.247   2.666   9.817 -0.2796 -0.2158 -0.0260
   50CHL1    C8 6120   4.149   2.830   9.727 -0.3873 -0.3272 -0.5766
   50CHL1    H8 6121   4.167   2.939   9.718  0.1465  0.0147  3.1183
   50CHL1   C14 6122   4.169   2.757   9.590 -1.0403 -0.9111 -0.3156
   50CHL1   H14 6123   4.163   2.651   9.621 -0.1868 -0.3313  2.0621
   50CHL1   C15 6124   4.301   2.757   9.522 -0.1686  0.1256  0.2356
   50CHL1  H15A 6125   4.354   2.855   9.522  1.1813 -0.5850 -0.0120
   50CHL1  H15B 6126   4.369   2.687   9.574  0.1812  0.6740  0.5337
   50CHL1   C16 6127   4.272   2.723   9.372  0.3981 -0.2678 -0.6881
   50CHL1  H16A 6128   4.312   2.798   9.301 -0.9866 -1.1183 -2.4621
   50CHL1  H16B 6129   4.318   2.623   9.355  2.0326  0.6120 -1.5942
   50CHL1   C17 6130   4.116   2.703   9.374  0.0436  0.3740  0.2919
   50CHL1   H17 6131   4.117   2.597   9.407  0.9915  0.8498  1.8905
   50CHL1   C13 6132   4.062   2.781   9.486  0.4253  0.1225  0.1421
   50CHL1   C18 6133   4.059   2.937   9.456 -0.1147 -0.7079  0.3250
   50CHL1  H18A 6134   4.047   2.988   9.554 -2.0180 -1.8456  0.7359
   50CHL1  H18B 6135   4.147   2.975   9.401 -0.1476  1.6591  1.7555
   50CHL1  H18C 6136   3.968   2.955   9.395  1.4589  0.4494 -1.8130
   50CHL1   C12 6137   3.919   2.740   9.532 -0.3211  0.4280 -0.5344
   50CHL1  H12A 6138   3.839   2.779   9.465  0.4084  0.9754 -1.1027
   50CHL1  H12B 6139   3.917   2.630   9.549 -0.7150  0.5893  0.5886
   50CHL1   C11 6140   3.891   2.819   9.672 -0.2038 -0.0824  0.4588
   50CHL1  H11A 6141   3.878   2.929   9.664  3.1699  0.3148 -1.0739
   50CHL1  H11B 6142   3.797   2.786   9.721 -0.7808  0.2964 -0.3713
   50CHL1    C9 6143   4.003   2.801   9.779 -0.5383 -0.5117 -0.5687
   50CHL1    H9 6144   4.002   2.694   9.811  2.0703 -0.7169 -0.9521
   50CHL1   C10 6145   3.982   2.867   9.917  0.3238 -0.3398 -0.2259
   50CHL1   C19 6146   3.938   3.018   9.897  0.4567 -0.6163 -0.4665
   50CHL1  H19A 6147   3.937   3.073   9.994 -0.1565  1.7681 -1.7518
   50CHL1  H19B 6148   4.012   3.071   9.833  0.8956 -0.5908  0.0555
   50CHL1  H19C 6149   3.836   3.022   9.853  0.9934  1.5757 -1.6541
   50CHL1    C1 6150   3.861   2.804   9.995 -0.2046  0.1100  0.4793
   50CHL1   H1A 6151   3.768   2.826   9.939  0.6040  3.1478  0.1238
   50CHL1   H1B 6152   3.870   2.694   9.988 -0.0390  0.1061  0.7525
   50CHL1    C2 6153   3.830   2.850  10.134  0.7468  0.5719 -0.5521
   50CHL1   H2A 6154   3.747   2.788  10.174  2.1819 -0.8803  0.2673
   50CHL1   H2B 6155   3.793   2.954  10.146 -0.2899  0.0150  1.7455
   50CHL1   C20 6156   4.041   2.708   9.239 -0.1283 -0.0947  0.3815
   50CHL1   H20 6157   3.933   2.712   9.267 -0.5111 -3.2919 -0.2668
   50CHL1   C21 6158   4.036   2.568   9.161 -0.7221  0.1022 -0.4473
   50CHL1  H21A 6159   3.986   2.490   9.222 -4.0541  1.3750 -1.3134
   50CHL1  H21B 6160   4.141   2.540   9.140 -0.5878  0.8646 -0.8390
   50CHL1  H21C 6161   3.994   2.564   9.058 -0.0007 -3.6458 -0.7316
   50CHL1   C22 6162   4.084   2.832   9.153  0.7868  0.3142  0.5203
   50CHL1  H22A 6163   4.085   2.928   9.209 -0.9958  0.9974 -0.4980
   50CHL1  H22B 6164   4.188   2.815   9.117  0.6601  1.4038 -0.4523
   50CHL1   C23 6165   4.014   2.857   9.012 -0.6814 -0.5115 -0.5084
   50CHL1  H23A 6166   4.075   2.942   8.973  0.9737 -2.0440 -1.4569
   50CHL1  H23B 6167   4.027   2.768   8.946 -0.1706 -0.6576 -0.2142
   50CHL1   C24 6168   3.861   2.878   9.006  0.2132 -0.0518 -0.0478
   50CHL1  H24A 6169   3.813   2.795   9.062  1.7324 -0.3848  0.8198
   50CHL1  H24B 6170   3.832   2.971   9.058  0.3169 -1.0646  1.9112
   50CHL1   C25 6171   3.809   2.895   8.861  0.4561  0.0901 -0.1167
   50CHL1   H25 6172   3.842   2.810   8.798 -0.2607 -0.1157 -0.2192
   50CHL1   C26 6173   3.653   2.906   8.864  0.3666 -0.2080 -0.3369
   50CHL1  H26A 6174   3.624   2.962   8.956 -1.9491 -1.2873 -0.3303
   50CHL1  H26B 6175   3.610   2.963   8.779  0.6267  1.2719  0.4825
   50CHL1  H26C 6176   3.623   2.800   8.879 -0.1628  0.2622  2.4285
   50CHL1   C27 6177   3.862   3.027   8.802 -0.6017 -0.1693  0.6838
   50CHL1  H27A 6178   3.806   3.102   8.862  0.4122 -0.3725  1.9235
   50CHL1  H27B 6179   3.972   3.039   8.812 -0.6653  0.7670  0.4216
   50CHL1  H27C 6180   3.841   3.045   8.695 -0.0853  2.8776  0.9856
   51CHL1    C3 6181   0.124   0.915  10.504  0.0182  0.4363  0.0929
   51CHL1    H3 6182   0.115   0.991  10.424 -3.0719  0.9013  0.7476
   51CHL1    O3 6183   0.060   0.970  10.622  0.6496 -0.4068 -0.4326
   51CHL1   H3' 6184   0.044   0.903  10.689 -3.4980  1.2317  0.5651
   51CHL1    C4 6185   0.045   0.785  10.455 -0.0395 -0.4200  0.1593
   51CHL1   H4A 6186   0.050   0.713  10.539  3.1510 -1.9347 -1.1448
   51CHL1   H4B 6187  -0.061   0.816  10.443  0.3612  2.6908  3.0387
   51CHL1    C5 6188   0.111   0.727  10.332  0.7560  0.6896  1.0974
   51CHL1    C6 6189   0.046   0.707  10.215 -0.6842  0.0847 -0.5813
   51CHL1    H6 6190  -0.062   0.722  10.206 -0.7779 -1.0225 -1.4776
   51CHL1    C7 6191   0.109   0.664  10.093 -0.1126 -0.0604  0.0812
   51CHL1   H7A 6192   0.044   0.593  10.039  0.9344 -0.4503 -0.6981
   51CHL1   H7B 6193   0.118   0.752  10.025 -1.2298  0.6237  0.7705
   51CHL1    C8 6194   0.250   0.596  10.117  0.3188  0.1321  0.0628
   51CHL1    H8 6195   0.234   0.498  10.166 -1.7260  0.7604  0.7867
   51CHL1   C14 6196   0.318   0.579   9.985 -0.2759  0.3991 -0.1792
   51CHL1   H14 6197   0.321   0.679   9.937 -1.0734  0.7826  0.5520
   51CHL1   C15 6198   0.248   0.490   9.889 -0.0138  0.4790 -0.0759
   51CHL1  H15A 6199   0.212   0.391   9.925 -1.9419 -0.0549 -3.0860
   51CHL1  H15B 6200   0.159   0.543   9.848  0.7250  0.5560 -1.6697
   51CHL1   C16 6201   0.345   0.462   9.776 -0.7950 -0.6771 -0.3798
   51CHL1  H16A 6202   0.351   0.352   9.766  0.3247 -0.7533  0.7657
   51CHL1  H16B 6203   0.303   0.513   9.687 -1.2791 -0.2450  0.0828
   51CHL1   C17 6204   0.481   0.523   9.831 -0.2043  0.9100  0.3997
   51CHL1   H17 6205   0.479   0.631   9.806 -0.3143  1.0205  0.8613
   51CHL1   C13 6206   0.458   0.520   9.985  0.0698 -0.0224  0.0611
   51CHL1   C18 6207   0.474   0.376  10.046 -0.5315  0.1453  1.2329
   51CHL1  H18A 6208   0.417   0.306   9.980  0.2478  0.8903 -0.2800
   51CHL1  H18B 6209   0.577   0.337  10.037 -0.0426  1.7537 -1.1323
   51CHL1  H18C 6210   0.439   0.375  10.151 -0.0897  1.0142  1.3972
   51CHL1   C12 6211   0.540   0.622  10.074 -0.4778 -0.0749  0.3470
   51CHL1  H12A 6212   0.642   0.583  10.096 -0.0620  0.3268 -0.7920
   51CHL1  H12B 6213   0.540   0.721  10.023  0.0231  0.8670  2.0805
   51CHL1   C11 6214   0.481   0.643  10.211 -0.3461  0.0594 -0.8762
   51CHL1  H11A 6215   0.488   0.542  10.256 -0.7670  0.1099 -0.6984
   51CHL1  H11B 6216   0.527   0.722  10.274  1.1155 -0.4204 -1.2981
   51CHL1    C9 6217   0.330   0.685  10.206  0.4914 -0.5326  0.0924
   51CHL1    H9 6218   0.332   0.788  10.166 -0.4660  0.5119  2.4913
   51CHL1   C10 6219   0.265   0.707  10.339 -0.2873 -0.6479 -0.4470
   51CHL1   C19 6220   0.278   0.584  10.435 -0.2861 -0.2022  0.3159
   51CHL1  H19A 6221   0.385   0.579  10.464 -0.2925 -2.6552  0.1056
   51CHL1  H19B 6222   0.218   0.598  10.527 -0.5798  1.1412 -0.0530
   51CHL1  H19C 6223   0.254   0.485  10.391 -0.3520 -0.1657  0.2688
   51CHL1    C1 6224   0.331   0.828  10.408 -0.1574  0.2629 -0.3545
   51CHL1   H1A 6225   0.433   0.792  10.434 -0.8371 -1.0835  0.6303
   51CHL1   H1B 6226   0.353   0.911  10.338  1.4082 -0.9751 -1.4075
   51CHL1    C2 6227   0.265   0.882  10.538 -0.3776  0.2231 -0.0209
   51CHL1   H2A 6228   0.334   0.963  10.569  0.7879 -1.3421  1.6432
   51CHL1   H2B 6229   0.268   0.802  10.614  0.4637  0.7986  0.5679
   51CHL1   C20 6230   0.610   0.467   9.771  0.5175  0.1590 -0.2951
   51CHL1   H20 6231   0.620   0.361   9.803  0.7880  0.3254  0.1706
   51CHL1   C21 6232   0.725   0.542   9.824 -0.3866 -0.3658 -1.0981
   51CHL1  H21A 6233   0.701   0.649   9.842 -0.3900 -0.8420  2.2965
   51CHL1  H21B 6234   0.822   0.531   9.770  1.0598 -1.4375  1.5489
   51CHL1  H21C 6235   0.737   0.496   9.925 -2.0325  0.7044 -0.3874
   51CHL1   C22 6236   0.601   0.463   9.616  0.1518  0.9132  0.2654
   51CHL1  H22A 6237   0.507   0.418   9.578 -0.5573  0.6995  2.1543
   51CHL1  H22B 6238   0.608   0.572   9.595  0.2447  0.6248 -1.3200
   51CHL1   C23 6239   0.717   0.404   9.538 -0.5731  0.2458  0.7687
   51CHL1  H23A 6240   0.812   0.450   9.574 -0.7514  2.2641 -1.1433
   51CHL1  H23B 6241   0.721   0.295   9.559 -1.7689  0.5773  3.0469
   51CHL1   C24 6242   0.705   0.437   9.391 -0.2921 -0.5650  0.4705
   51CHL1  H24A 6243   0.624   0.375   9.345  0.4552 -0.6061 -0.8405
   51CHL1  H24B 6244   0.672   0.543   9.381 -2.1589 -1.1407  0.1151
   51CHL1   C25 6245   0.835   0.421   9.305 -0.2048 -0.6554 -0.3337
   51CHL1   H25 6246   0.923   0.477   9.342  0.5139 -0.3298 -2.4250
   51CHL1   C26 6247   0.877   0.276   9.300  0.0502  0.1500 -0.1115
   51CHL1  H26A 6248   0.798   0.215   9.251 -0.4301 -0.4762  1.3756
   51CHL1  H26B 6249   0.969   0.259   9.240  0.8343  3.2291  0.0703
   51CHL1  H26C 6250   0.875   0.239   9.405 -1.1136  0.1752 -0.1072
   51CHL1   C27 6251   0.809   0.464   9.161  0.3281 -0.1198 -0.8382
   51CHL1  H27A 6252   0.903   0.496   9.111 -0.9385  2.9012 -1.5333
   51CHL1  H27B 6253   0.752   0.387   9.105 -1.4533  0.2987  0.3127
   51CHL1  H27C 6254   0.744   0.554   9.160  0.9359  0.3272 -0.5187
   52CHL1    C3 6255   3.380   5.175  10.267  0.1590  0.3606 -0.4901
   52CHL1    H3 6256   3.313   5.262  10.254 -0.0957  0.1753 -0.4276
   52CHL1    O3 6257   3.436   5.177  10.394  0.2771  0.3072  0.7477
   52CHL1   H3' 6258   3.488   5.096  10.400  0.1775 -0.0099 -1.6443
   52CHL1    C4 6259   3.279   5.048  10.247  0.0036 -0.6855  0.4879
   52CHL1   H4A 6260   3.338   4.960  10.280 -0.8567 -1.6882 -0.5774
   52CHL1   H4B 6261   3.198   5.059  10.322  0.2196 -0.1171  0.6482
   52CHL1    C5 6262   3.227   5.037  10.112  0.5758 -0.0847 -0.1729
   52CHL1    C6 6263   3.097   5.037  10.082 -1.0034  0.4520 -0.4237
   52CHL1    H6 6264   3.027   5.039  10.167 -1.1783  3.0028 -0.5336
   52CHL1    C7 6265   3.048   5.033   9.945  0.8614 -0.2960 -0.4549
   52CHL1   H7A 6266   2.963   4.961   9.943  0.1885  0.4552 -2.9308
   52CHL1   H7B 6267   2.997   5.131   9.929  2.0081  0.5855  1.0344
   52CHL1    C8 6268   3.154   5.004   9.839  0.1997  0.5470  0.1726
   52CHL1    H8 6269   3.182   4.896   9.839 -0.7940  0.1965 -2.5348
   52CHL1   C14 6270   3.096   5.032   9.699  0.3904 -0.1949 -0.6126
   52CHL1   H14 6271   3.083   5.141   9.687  0.5722  0.3441  2.9902
   52CHL1   C15 6272   2.963   4.969   9.669 -0.7836 -0.6135 -0.1473
   52CHL1  H15A 6273   2.973   4.863   9.702  1.7435 -0.6233 -0.7062
   52CHL1  H15B 6274   2.887   5.033   9.719  0.5368  1.9146 -1.2324
   52CHL1   C16 6275   2.964   4.984   9.516 -0.9764 -0.3901 -0.4023
   52CHL1  H16A 6276   2.944   4.889   9.463 -0.5073 -0.5401 -0.3184
   52CHL1  H16B 6277   2.885   5.057   9.489 -2.0026 -1.0005  0.8973
   52CHL1   C17 6278   3.108   5.032   9.465  0.2056 -0.2815 -0.7577
   52CHL1   H17 6279   3.104   5.143   9.468 -0.9973 -0.3269  0.8253
   52CHL1   C13 6280   3.196   5.000   9.584 -0.6390 -0.1895 -0.1287
   52CHL1   C18 6281   3.229   4.848   9.581 -0.1109  0.2501 -0.3300
   52CHL1  H18A 6282   3.275   4.812   9.676  0.6741  2.4224  0.1565
   52CHL1  H18B 6283   3.141   4.788   9.550 -1.4339  2.9674 -2.2168
   52CHL1  H18C 6284   3.303   4.835   9.499  0.8741 -0.2409  0.6083
   52CHL1   C12 6285   3.319   5.088   9.608  0.4407  0.1480  0.5497
   52CHL1  H12A 6286   3.395   5.064   9.531  1.0292  2.0451  0.4974
   52CHL1  H12B 6287   3.299   5.196   9.593 -0.8639 -0.4547 -3.2148
   52CHL1   C11 6288   3.384   5.067   9.740  0.9844 -0.6579 -0.1625
   52CHL1  H11A 6289   3.423   4.963   9.742  1.3393 -0.5115  1.8242
   52CHL1  H11B 6290   3.475   5.129   9.751  0.2850  0.4771 -0.5210
   52CHL1    C9 6291   3.278   5.084   9.857  0.7427 -0.3892  0.0660
   52CHL1    H9 6292   3.243   5.189   9.851  1.6689 -0.0708  0.1912
   52CHL1   C10 6293   3.334   5.058  10.001  0.0226  0.1441  0.2365
   52CHL1   C19 6294   3.421   4.939   9.994  0.0800 -0.2791 -0.0019
   52CHL1  H19A 6295   3.467   4.924  10.094 -1.6630  0.9133  1.0433
   52CHL1  H19B 6296   3.366   4.847   9.965  2.2030 -1.5670 -0.1036
   52CHL1  H19C 6297   3.502   4.949   9.919  0.7817 -3.2568  0.2342
   52CHL1    C1 6298   3.434   5.176  10.027 -0.1350 -0.1424 -0.4348
   52CHL1   H1A 6299   3.530   5.157   9.974  0.2064 -2.0600  0.7543
   52CHL1   H1B 6300   3.387   5.275  10.009  1.0544  0.6072  0.4458
   52CHL1    C2 6301   3.493   5.176  10.169  0.4506 -0.3243  0.5062
   52CHL1   H2A 6302   3.547   5.271  10.189 -0.0757 -0.3398  2.1861
   52CHL1   H2B 6303   3.565   5.096  10.197 -0.5216 -0.8072  1.7296
   52CHL1   C20 6304   3.147   4.990   9.325  0.4624  0.2809  0.2315
   52CHL1   H20 6305   3.136   4.880   9.318  1.7588  0.2513 -2.7390
   52CHL1   C21 6306   3.289   5.044   9.289  0.3835  0.0969 -0.2058
   52CHL1  H21A 6307   3.292   5.155   9.287 -2.2427  0.2544  0.3915
   52CHL1  H21B 6308   3.313   5.010   9.186 -1.2545 -1.2480 -0.1955
   52CHL1  H21C 6309   3.376   5.007   9.348 -0.3620 -0.7561  0.3934
   52CHL1   C22 6310   3.047   5.046   9.213  0.1085  0.6983 -0.5679
   52CHL1  H22A 6311   2.947   5.012   9.247  0.5298 -1.7282 -1.5551
   52CHL1  H22B 6312   3.053   5.157   9.207  0.0506  0.6623 -1.4091
   52CHL1   C23 6313   3.076   4.982   9.070  0.2541  0.5210 -0.0102
   52CHL1  H23A 6314   3.162   5.033   9.021  1.2089 -1.0262 -0.0211
   52CHL1  H23B 6315   3.095   4.873   9.074  1.4363  0.5804 -2.1544
   52CHL1   C24 6316   2.951   5.005   8.988  0.1169  0.0600 -0.0521
   52CHL1  H24A 6317   2.866   4.956   9.040 -0.9333 -1.1573 -2.7078
   52CHL1  H24B 6318   2.919   5.112   8.991  0.9208  0.2840  1.6838
   52CHL1   C25 6319   2.951   4.964   8.841 -0.3207  0.8692  0.2204
   52CHL1   H25 6320   2.989   4.860   8.843 -1.6814  0.2909 -1.6776
   52CHL1   C26 6321   2.812   4.954   8.786  0.1465 -0.4510 -0.4341
   52CHL1  H26A 6322   2.749   5.040   8.817  0.1178  0.0735 -1.8833
   52CHL1  H26B 6323   2.813   4.935   8.677 -0.2912 -0.8669 -0.3654
   52CHL1  H26C 6324   2.763   4.859   8.817 -1.2220  0.2407 -0.4177
   52CHL1   C27 6325   3.042   5.052   8.759  0.2575  0.6538  0.5164
   52CHL1  H27A 6326   3.024   5.156   8.792  2.3950  1.2461 -0.0112
   52CHL1  H27B 6327   3.147   5.038   8.792  0.8446  2.6491 -0.3469
   52CHL1  H27C 6328   3.028   5.035   8.650  1.5502  2.9087 -0.0653
   53CHL1    C3 6329   3.739   4.452   9.915  0.0993  0.4832 -0.5375
   53CHL1    H3 6330   3.719   4.529   9.837  0.1697  1.3394  0.2829
   53CHL1    O3 6331   3.746   4.507  10.045  0.2618  0.0439 -0.4318
   53CHL1   H3' 6332   3.775   4.435  10.101 -0.8525 -0.3167 -0.3036
   53CHL1    C4 6333   3.623   4.348   9.911  0.3511 -0.1015 -0.0676
   53CHL1   H4A 6334   3.654   4.274   9.988  1.9756  2.2835  1.6750
   53CHL1   H4B 6335   3.532   4.399   9.948 -0.1450 -0.2973 -0.9848
   53CHL1    C5 6336   3.610   4.273   9.777  0.6545  0.3519  0.1922
   53CHL1    C6 6337   3.496   4.273   9.706 -0.4781 -0.1657  0.0526
   53CHL1    H6 6338   3.402   4.312   9.748 -1.1917 -1.2915 -0.4401
   53CHL1    C7 6339   3.492   4.211   9.573  0.0713  0.4120  0.5990
   53CHL1   H7A 6340   3.393   4.166   9.548  1.1781 -0.4850 -2.6845
   53CHL1   H7B 6341   3.493   4.291   9.496  1.8366  0.1596  0.3287
   53CHL1    C8 6342   3.610   4.120   9.535  0.8471  0.0645 -0.7387
   53CHL1    H8 6343   3.607   4.028   9.597  2.3111 -0.8896 -2.0166
   53CHL1   C14 6344   3.606   4.076   9.387 -0.0946 -0.9593 -0.5911
   53CHL1   H14 6345   3.626   4.170   9.331 -1.0440 -1.1181 -1.2196
   53CHL1   C15 6346   3.476   4.021   9.329 -0.3493 -0.1405  0.2191
   53CHL1  H15A 6347   3.448   3.955   9.414 -2.0536  1.1513  0.7214
   53CHL1  H15B 6348   3.389   4.090   9.317 -0.1555  0.1742  0.6006
   53CHL1   C16 6349   3.524   3.953   9.210  0.6191 -0.1697 -0.4540
   53CHL1  H16A 6350   3.496   3.845   9.214  1.4463 -0.3736  0.2303
   53CHL1  H16B 6351   3.478   4.000   9.121 -1.5015 -0.3623  0.4650
   53CHL1   C17 6352   3.678   3.946   9.215  0.6636  0.1645 -0.1476
   53CHL1   H17 6353   3.705   4.038   9.159  1.4049  1.0586  1.6072
   53CHL1   C13 6354   3.723   3.979   9.359  0.5724 -0.6417  0.1809
   53CHL1   C18 6355   3.728   3.841   9.439  0.2831 -0.3057 -0.6390
   53CHL1  H18A 6356   3.753   3.864   9.545  0.0436  2.1498 -1.0687
   53CHL1  H18B 6357   3.628   3.793   9.443  0.2304 -0.3236 -1.7170
   53CHL1  H18C 6358   3.803   3.772   9.395  1.0389 -0.6059  1.0669
   53CHL1   C12 6359   3.855   4.058   9.378 -0.2246  0.3802  0.5952
   53CHL1  H12A 6360   3.941   3.988   9.364 -1.0566 -0.1464 -2.7685
   53CHL1  H12B 6361   3.857   4.132   9.295  0.1315  0.5709  0.7735
   53CHL1   C11 6362   3.872   4.112   9.517 -0.2937 -0.1021 -0.1684
   53CHL1  H11A 6363   3.905   4.033   9.587 -1.4060  2.4166  3.5385
   53CHL1  H11B 6364   3.957   4.183   9.520  0.3160 -0.8284 -0.0537
   53CHL1    C9 6365   3.747   4.186   9.567  0.7537  0.8360  0.3549
   53CHL1    H9 6366   3.744   4.284   9.516  2.2731  1.0093  0.5354
   53CHL1   C10 6367   3.747   4.217   9.721 -0.4320 -0.1088  0.1853
   53CHL1   C19 6368   3.786   4.088   9.804  0.7306  0.1901  0.2568
   53CHL1  H19A 6369   3.778   4.106   9.913  1.4116 -1.0773  0.5246
   53CHL1  H19B 6370   3.699   4.020   9.798  1.6487 -0.8913 -2.2525
   53CHL1  H19C 6371   3.889   4.052   9.782  1.5474  2.2530  0.4229
   53CHL1    C1 6372   3.863   4.321   9.750 -0.0423 -0.2043 -0.2882
   53CHL1   H1A 6373   3.963   4.276   9.732  0.9755 -0.2782  4.3149
   53CHL1   H1B 6374   3.840   4.400   9.675  0.4034 -0.4095 -0.6460
   53CHL1    C2 6375   3.872   4.379   9.889 -0.1152 -0.0196  0.3040
   53CHL1   H2A 6376   3.962   4.443   9.895  0.5483 -0.9336  0.2076
   53CHL1   H2B 6377   3.880   4.296   9.962  0.2303  1.3155  1.8409
   53CHL1   C20 6378   3.746   3.832   9.132 -0.5030 -0.1588 -0.0290
   53CHL1   H20 6379   3.719   3.746   9.197 -2.8225  1.4649  1.3336
   53CHL1   C21 6380   3.900   3.852   9.118 -0.5383 -0.9709  0.1339
   53CHL1  H21A 6381   3.932   3.761   9.062 -1.8623 -1.2646 -0.1962
   53CHL1  H21B 6382   3.937   3.861   9.222 -0.4533 -0.1679  0.0344
   53CHL1  H21C 6383   3.914   3.942   9.055 -0.8100  0.0629  1.5123
   53CHL1   C22 6384   3.680   3.804   9.000  0.6834 -0.2585 -0.3338
   53CHL1  H22A 6385   3.726   3.709   8.965 -0.8490 -1.7574  1.4830
   53CHL1  H22B 6386   3.571   3.795   9.017 -0.2405  2.1224 -3.8868
   53CHL1   C23 6387   3.678   3.922   8.905 -0.2204 -0.0961  0.7755
   53CHL1  H23A 6388   3.616   4.007   8.941  0.3224  0.4659  0.3963
   53CHL1  H23B 6389   3.775   3.974   8.893 -2.3521  4.1019 -0.1299
   53CHL1   C24 6390   3.619   3.882   8.762 -0.1169  0.8435 -0.5656
   53CHL1  H24A 6391   3.558   3.792   8.781  2.4650 -1.1136 -1.0037
   53CHL1  H24B 6392   3.549   3.965   8.735 -0.6844  0.6856  0.3975
   53CHL1   C25 6393   3.729   3.842   8.665  0.4740 -0.9635  0.0471
   53CHL1   H25 6394   3.797   3.782   8.729 -0.5103 -1.7134  0.4223
   53CHL1   C26 6395   3.668   3.760   8.555  0.5050  0.4953  0.3538
   53CHL1  H26A 6396   3.563   3.786   8.527  0.7642  0.0338 -1.1352
   53CHL1  H26B 6397   3.727   3.754   8.461 -1.6465 -2.0029 -0.9876
   53CHL1  H26C 6398   3.672   3.653   8.587 -0.6345 -0.7704 -3.1792
   53CHL1   C27 6399   3.803   3.967   8.611  0.5522  0.0908 -0.2533
   53CHL1  H27A 6400   3.873   4.009   8.687  0.4150 -1.3211  0.6914
   53CHL1  H27B 6401   3.864   3.947   8.521  2.0502 -0.2227  0.7834
   53CHL1  H27C 6402   3.736   4.055   8.600  1.1177  0.4183 -1.2103
   54CHL1    C3 6403   1.025   4.978  10.303  0.5223 -0.1909 -0.3834
   54CHL1    H3 6404   0.934   4.929  10.263  0.6960 -0.8423  0.0082
   54CHL1    O3 6405   1.030   4.956  10.445  0.1259  0.5529  0.6167
   54CHL1   H3' 6406   1.087   5.027  10.476 -2.2581  2.7270  0.4246
   54CHL1    C4 6407   1.146   4.920  10.235 -0.4753 -0.4143  0.9363
   54CHL1   H4A 6408   1.241   4.970  10.264  1.0336 -2.6330  0.2056
   54CHL1   H4B 6409   1.167   4.813  10.256  0.7460 -0.3717  0.0884
   54CHL1    C5 6410   1.136   4.935  10.082  0.3686  0.2278  0.2760
   54CHL1    C6 6411   1.139   4.824  10.002 -0.4297 -0.4512 -0.1027
   54CHL1    H6 6412   1.158   4.729  10.053  1.3402  1.3778  3.0037
   54CHL1    C7 6413   1.125   4.830   9.853 -0.1610  0.5408  0.1919
   54CHL1   H7A 6414   1.205   4.768   9.807 -0.0152 -0.5955  1.8736
   54CHL1   H7B 6415   1.030   4.789   9.814  1.1652  0.2987 -3.0541
   54CHL1    C8 6416   1.131   4.975   9.810  1.2822 -0.7769  0.7304
   54CHL1    H8 6417   1.237   5.006   9.805  0.4750  2.0623 -2.3453
   54CHL1   C14 6418   1.077   4.986   9.668  0.1591 -0.3963  0.7435
   54CHL1   H14 6419   0.969   4.959   9.661 -0.3588  0.8704  2.9638
   54CHL1   C15 6420   1.122   4.876   9.567 -0.2048  0.2017 -0.3667
   54CHL1  H15A 6421   1.230   4.855   9.580 -0.3146 -0.2752 -0.2312
   54CHL1  H15B 6422   1.071   4.778   9.578 -2.3604  1.3451  0.5272
   54CHL1   C16 6423   1.102   4.939   9.429 -0.3866 -0.0954 -0.5630
   54CHL1  H16A 6424   1.204   4.947   9.385 -1.1265  3.4116 -1.9565
   54CHL1  H16B 6425   1.038   4.886   9.354 -1.6243  2.8414 -1.7382
   54CHL1   C17 6426   1.055   5.079   9.454  0.3394  0.4988  0.5990
   54CHL1   H17 6427   0.945   5.063   9.464  0.4305  0.3658  1.4850
   54CHL1   C13 6428   1.091   5.120   9.595  0.4073 -0.3735 -0.5775
   54CHL1   C18 6429   1.242   5.166   9.591  0.4675 -0.5799  0.1610
   54CHL1  H18A 6430   1.311   5.093   9.545 -0.4109 -0.9557 -0.5953
   54CHL1  H18B 6431   1.240   5.258   9.529 -2.8493 -0.0947  0.7667
   54CHL1  H18C 6432   1.281   5.184   9.694 -1.2771 -1.3357  1.0015
   54CHL1   C12 6433   0.989   5.212   9.680 -0.4854  0.6283 -0.5178
   54CHL1  H12A 6434   0.972   5.309   9.628 -1.4290  0.0812 -1.2675
   54CHL1  H12B 6435   0.894   5.156   9.670  0.9738 -2.5201  1.6030
   54CHL1   C11 6436   1.036   5.224   9.825  0.4803  0.0220 -0.3648
   54CHL1  H11A 6437   1.131   5.281   9.833  0.3892  0.0290  0.9316
   54CHL1  H11B 6438   0.968   5.298   9.874  0.3328 -0.4369  0.1204
   54CHL1    C9 6439   1.054   5.080   9.897  0.4605 -0.5483  0.1121
   54CHL1    H9 6440   0.951   5.042   9.913 -1.5543  4.7648  1.9098
   54CHL1   C10 6441   1.109   5.079  10.041 -0.4873  0.1161  0.2061
   54CHL1   C19 6442   1.244   5.162  10.058 -0.7532 -0.4157 -0.1498
   54CHL1  H19A 6443   1.240   5.268  10.026 -1.2955 -0.3991 -0.0425
   54CHL1  H19B 6444   1.274   5.162  10.165 -0.0386 -1.0360 -0.3428
   54CHL1  H19C 6445   1.329   5.114  10.005  0.4675  0.4663  0.9727
   54CHL1    C1 6446   1.008   5.150  10.124 -0.0305  0.1803  0.3560
   54CHL1   H1A 6447   1.026   5.259  10.116  1.8488 -0.0811  0.5447
   54CHL1   H1B 6448   0.902   5.124  10.099  0.1175  0.2087 -0.3081
   54CHL1    C2 6449   1.023   5.126  10.280  0.4170  1.3116 -0.4683
   54CHL1   H2A 6450   0.936   5.173  10.329  1.1572  0.4737  1.7813
   54CHL1   H2B 6451   1.118   5.175  10.312 -0.0799  1.7500  0.3660
   54CHL1   C20 6452   1.070   5.182   9.335 -0.1873  0.3709 -0.1140
   54CHL1   H20 6453   1.181   5.195   9.333  0.0785 -1.4697  0.3292
   54CHL1   C21 6454   1.014   5.318   9.373 -0.3765  0.2301  0.0652
   54CHL1  H21A 6455   0.903   5.313   9.376 -0.3247 -1.3470 -0.0041
   54CHL1  H21B 6456   1.024   5.378   9.280 -1.8674 -0.4997 -0.6006
   54CHL1  H21C 6457   1.060   5.371   9.460 -0.4827 -1.6425  1.3293
   54CHL1   C22 6458   1.020   5.127   9.203  0.3336 -0.5653 -0.6050
   54CHL1  H22A 6459   1.050   5.021   9.187  3.9525  0.5596 -2.5641
   54CHL1  H22B 6460   0.910   5.128   9.195  0.0336 -0.1182  2.4959
   54CHL1   C23 6461   1.084   5.189   9.071 -0.0743  0.4285  0.3562
   54CHL1  H23A 6462   1.026   5.136   8.993  1.6772 -0.6500 -0.2780
   54CHL1  H23B 6463   1.059   5.297   9.072 -1.5904  0.1160  2.1706
   54CHL1   C24 6464   1.230   5.171   9.033 -0.4313 -0.1376  0.4313
   54CHL1  H24A 6465   1.286   5.239   9.102 -0.3761 -1.1493  1.4231
   54CHL1  H24B 6466   1.254   5.065   9.058  2.2222  0.6535  1.6093
   54CHL1   C25 6467   1.263   5.227   8.889  0.4480 -0.4398  0.0543
   54CHL1   H25 6468   1.223   5.159   8.811  1.0319 -0.2230 -0.4422
   54CHL1   C26 6469   1.193   5.363   8.873 -0.0961  0.2321 -0.3201
   54CHL1  H26A 6470   1.085   5.340   8.876  0.1554 -0.9384  1.2555
   54CHL1  H26B 6471   1.220   5.430   8.958  2.6591 -0.3833 -0.5962
   54CHL1  H26C 6472   1.233   5.397   8.775  0.6184 -0.4183 -0.2610
   54CHL1   C27 6473   1.410   5.237   8.858 -0.4737  0.0310 -0.4719
   54CHL1  H27A 6474   1.420   5.301   8.768  0.5560  0.6011  0.0275
   54CHL1  H27B 6475   1.461   5.298   8.936  1.8210 -0.3089 -1.6334
   54CHL1  H27C 6476   1.462   5.140   8.850 -3.0852 -1.5539  0.5147
   55CHL1    C3 6477   3.775   3.582  10.324  0.1907 -0.6429  0.3965
   55CHL1    H3 6478   3.819   3.480  10.331 -1.6454 -1.3994  2.0818
   55CHL1    O3 6479   3.677   3.602  10.432  0.0664 -0.1055  0.4081
   55CHL1   H3' 6480   3.704   3.684  10.474 -1.0373  0.9264 -0.7995
   55CHL1    C4 6481   3.889   3.690  10.307 -1.0168  0.6499 -0.3467
   55CHL1   H4A 6482   3.857   3.796  10.311  3.2453  2.1055  1.1339
   55CHL1   H4B 6483   3.949   3.672  10.399  0.5677 -0.7265 -1.5771
   55CHL1    C5 6484   3.971   3.668  10.184  0.5407 -0.2559 -0.6363
   55CHL1    C6 6485   4.100   3.638  10.193  1.0268 -0.8435 -0.0548
   55CHL1    H6 6486   4.145   3.618  10.291  1.3457 -0.9204 -0.2164
   55CHL1    C7 6487   4.190   3.626  10.073 -1.3250  0.3078 -0.7299
   55CHL1   H7A 6488   4.282   3.678  10.107 -1.4207 -0.4269  0.7598
   55CHL1   H7B 6489   4.211   3.518  10.058 -1.2959 -0.0414  1.4627
   55CHL1    C8 6490   4.125   3.676   9.941 -0.0253  0.0118 -0.1600
   55CHL1    H8 6491   4.119   3.787   9.952 -1.3869  0.0975 -1.4817
   55CHL1   C14 6492   4.205   3.629   9.821  0.1735 -0.1684 -0.0193
   55CHL1   H14 6493   4.197   3.519   9.826 -2.9953 -0.1252 -1.3610
   55CHL1   C15 6494   4.352   3.653   9.812 -0.6012 -0.0194  0.1777
   55CHL1  H15A 6495   4.371   3.756   9.849 -0.5162  1.2865 -3.2189
   55CHL1  H15B 6496   4.411   3.573   9.862  0.3057  1.4904  1.6262
   55CHL1   C16 6497   4.379   3.652   9.665 -0.1041  0.0192  0.6846
   55CHL1  H16A 6498   4.423   3.750   9.636 -2.8633  1.8604  2.1790
   55CHL1  H16B 6499   4.438   3.563   9.634  0.1686 -1.0065  3.8322
   55CHL1   C17 6500   4.242   3.642   9.586 -0.9049 -0.3036  0.0049
   55CHL1   H17 6501   4.218   3.536   9.563 -0.6101 -0.8429  2.0001
   55CHL1   C13 6502   4.140   3.681   9.692 -0.2586  0.4797  0.3927
   55CHL1   C18 6503   4.123   3.835   9.691  0.2791  0.0340  0.0497
   55CHL1  H18A 6504   4.216   3.894   9.706 -0.0694  0.5993  0.0001
   55CHL1  H18B 6505   4.069   3.856   9.597  0.5881  2.3021  0.3318
   55CHL1  H18C 6506   4.058   3.862   9.777  1.5624  1.1603  0.6974
   55CHL1   C12 6507   4.008   3.613   9.675 -0.2636 -0.1592  0.5374
   55CHL1  H12A 6508   3.962   3.651   9.581 -0.2284 -1.3713  0.0163
   55CHL1  H12B 6509   4.025   3.505   9.657  1.0327 -0.5502  3.3986
   55CHL1   C11 6510   3.911   3.647   9.786  0.0657 -0.7466  0.4737
   55CHL1  H11A 6511   3.885   3.754   9.772 -1.2307 -1.1202 -0.1146
   55CHL1  H11B 6512   3.816   3.591   9.783 -0.4060  0.0622 -0.1738
   55CHL1    C9 6513   3.984   3.629   9.926  0.0008  0.4877  0.4700
   55CHL1    H9 6514   3.987   3.519   9.938  0.1253  0.4411  0.0079
   55CHL1   C10 6515   3.900   3.670  10.049  0.2192  0.1630  0.1638
   55CHL1   C19 6516   3.851   3.816  10.029  0.5475  0.7660 -0.2029
   55CHL1  H19A 6517   3.936   3.886  10.037  0.7787  0.4687 -0.0329
   55CHL1  H19B 6518   3.798   3.837   9.933  2.8860  0.1819 -1.6968
   55CHL1  H19C 6519   3.794   3.853  10.117  0.5369 -0.6215  0.4087
   55CHL1    C1 6520   3.775   3.572  10.071 -0.4501 -0.3472  0.3066
   55CHL1   H1A 6521   3.718   3.569   9.976  1.1618  0.9334 -0.7516
   55CHL1   H1B 6522   3.825   3.474  10.080  0.2097 -0.1924 -1.4767
   55CHL1    C2 6523   3.690   3.597  10.198  0.8091  0.7220  0.5424
   55CHL1   H2A 6524   3.611   3.519  10.202 -0.5712  1.8477 -1.9460
   55CHL1   H2B 6525   3.637   3.694  10.183  0.0480  0.2059 -0.1998
   55CHL1   C20 6526   4.246   3.708   9.446 -0.4133  0.0744  0.5301
   55CHL1   H20 6527   4.236   3.818   9.460 -0.7051 -0.1793  2.5743
   55CHL1   C21 6528   4.128   3.664   9.361  0.8745  0.8992  0.0048
   55CHL1  H21A 6529   4.108   3.556   9.374  0.2840  0.5856 -2.7598
   55CHL1  H21B 6530   4.132   3.682   9.251 -1.9541 -1.0798 -0.5164
   55CHL1  H21C 6531   4.035   3.715   9.394 -0.8271 -1.2250 -1.2177
   55CHL1   C22 6532   4.372   3.687   9.364 -0.1746  0.1493 -0.3093
   55CHL1  H22A 6533   4.463   3.682   9.427 -0.2867  1.0923 -0.0542
   55CHL1  H22B 6534   4.352   3.592   9.310  1.6424 -1.3943  1.5958
   55CHL1   C23 6535   4.394   3.792   9.253  0.4407 -0.4190 -0.0975
   55CHL1  H23A 6536   4.305   3.803   9.188  0.2988  0.0567  0.1806
   55CHL1  H23B 6537   4.408   3.887   9.308  1.5648 -1.9005  2.3755
   55CHL1   C24 6538   4.528   3.760   9.171  0.0055 -0.2929  0.7235
   55CHL1  H24A 6539   4.614   3.737   9.237 -0.5527 -1.2660  1.1355
   55CHL1  H24B 6540   4.512   3.669   9.109 -0.8580  0.1712  0.2411
   55CHL1   C25 6541   4.567   3.875   9.075 -0.1773  0.0887  0.0592
   55CHL1   H25 6542   4.468   3.916   9.046  0.1115  0.8165  0.0857
   55CHL1   C26 6543   4.649   3.991   9.139  0.0141 -0.0069 -0.7101
   55CHL1  H26A 6544   4.577   4.042   9.206  1.3854 -0.1928  0.9947
   55CHL1  H26B 6545   4.737   3.946   9.191 -0.1016  2.3805  1.7789
   55CHL1  H26C 6546   4.673   4.061   9.056 -1.2194  1.7456  0.3543
   55CHL1   C27 6547   4.639   3.824   8.946  0.3315 -0.5063 -0.1949
   55CHL1  H27A 6548   4.743   3.789   8.964 -0.3890 -1.6774  2.1398
   55CHL1  H27B 6549   4.577   3.742   8.906  0.5669 -0.5594 -0.4512
   55CHL1  H27C 6550   4.653   3.902   8.868  1.6503  0.2762  0.7659
   56CHL1    C3 6551   2.500   2.729  10.154  0.3630  0.3393 -0.0389
   56CHL1    H3 6552   2.602   2.756  10.121  0.5053 -0.0391  0.0841
   56CHL1    O3 6553   2.513   2.667  10.283  0.1757  0.2597  0.1894
   56CHL1   H3' 6554   2.433   2.616  10.299  0.2738  0.2221  0.5791
   56CHL1    C4 6555   2.411   2.854  10.162  0.4867 -0.0147 -0.4782
   56CHL1   H4A 6556   2.310   2.830  10.200 -0.1991  0.6440 -1.8126
   56CHL1   H4B 6557   2.447   2.918  10.245 -1.4915  0.6143 -0.0632
   56CHL1    C5 6558   2.392   2.934  10.042  0.2057  0.6295  0.5846
   56CHL1    C6 6559   2.421   3.062  10.033 -0.0967  0.5836  0.4557
   56CHL1    H6 6560   2.464   3.124  10.113  0.7030  3.1619 -1.7963
   56CHL1    C7 6561   2.405   3.141   9.906  0.6931 -0.5726 -0.0625
   56CHL1   H7A 6562   2.336   3.225   9.925  1.2819  0.0984 -0.8479
   56CHL1   H7B 6563   2.505   3.174   9.870  0.3767 -1.5281 -1.9527
   56CHL1    C8 6564   2.336   3.061   9.783  0.7619 -0.1348 -0.3266
   56CHL1    H8 6565   2.228   3.069   9.804  0.8799  1.9060 -0.3242
   56CHL1   C14 6566   2.362   3.135   9.660 -0.0018 -0.4869  0.3395
   56CHL1   H14 6567   2.473   3.143   9.652 -0.0732 -1.4336 -2.5109
   56CHL1   C15 6568   2.306   3.282   9.642  0.7845  0.8217 -0.5215
   56CHL1  H15A 6569   2.201   3.287   9.676  1.0853  2.9511  0.2953
   56CHL1  H15B 6570   2.359   3.363   9.697 -0.0615  1.8289 -1.1434
   56CHL1   C16 6571   2.324   3.304   9.489 -0.5661  0.3725  0.3003
   56CHL1  H16A 6572   2.226   3.346   9.455 -1.0777 -1.9090 -1.3135
   56CHL1  H16B 6573   2.410   3.369   9.464 -0.6427  0.5603  0.5123
   56CHL1   C17 6574   2.354   3.164   9.428  0.4993  0.1896  0.3469
   56CHL1   H17 6575   2.463   3.154   9.410  0.2038 -3.0695 -0.3547
   56CHL1   C13 6576   2.322   3.060   9.530  0.1527 -0.1014 -0.2083
   56CHL1   C18 6577   2.164   3.035   9.532  0.3795  0.6399 -0.5031
   56CHL1  H18A 6578   2.150   2.963   9.449  0.7056  0.0057 -0.0185
   56CHL1  H18B 6579   2.148   2.992   9.634  1.2694 -0.8296 -0.9614
   56CHL1  H18C 6580   2.126   3.139   9.520  1.7117  0.8696 -3.4111
   56CHL1   C12 6581   2.398   2.932   9.527 -0.5212 -0.0210  0.6263
   56CHL1  H12A 6582   2.365   2.868   9.442 -0.7059  0.0091  0.6767
   56CHL1  H12B 6583   2.507   2.949   9.512 -0.5808 -0.1918 -0.0492
   56CHL1   C11 6584   2.374   2.851   9.654  0.5007  0.0529  0.4132
   56CHL1  H11A 6585   2.275   2.802   9.641  0.5398  0.2875 -0.8641
   56CHL1  H11B 6586   2.439   2.762   9.656 -1.6886 -1.6377  0.4014
   56CHL1    C9 6587   2.390   2.926   9.786 -0.2546  0.0941 -0.4688
   56CHL1    H9 6588   2.499   2.940   9.774 -0.1445  1.7573  1.9166
   56CHL1   C10 6589   2.362   2.840   9.919 -0.8322 -0.5628 -0.3032
   56CHL1   C19 6590   2.215   2.799   9.915 -0.7884 -0.1580 -0.5139
   56CHL1  H19A 6591   2.169   2.769  10.012 -1.8690 -0.7761 -1.1917
   56CHL1  H19B 6592   2.149   2.886   9.896  0.0424 -0.1056 -3.5439
   56CHL1  H19C 6593   2.192   2.715   9.846 -3.8041  0.3129 -0.2250
   56CHL1    C1 6594   2.452   2.714   9.912  0.2425 -0.2390  0.8006
   56CHL1   H1A 6595   2.417   2.644   9.833  1.5986  0.7218 -0.7104
   56CHL1   H1B 6596   2.556   2.748   9.890  0.2017 -0.8053 -0.3776
   56CHL1    C2 6597   2.461   2.638  10.046  0.0178 -0.5576 -0.3827
   56CHL1   H2A 6598   2.539   2.559  10.047  0.2885 -0.2815  0.5685
   56CHL1   H2B 6599   2.361   2.598  10.075  1.2003 -2.8503  0.7880
   56CHL1   C20 6600   2.299   3.147   9.285  0.1736  0.2687  0.3867
   56CHL1   H20 6601   2.193   3.117   9.299  0.1552 -0.3584 -0.9652
   56CHL1   C21 6602   2.369   3.037   9.215 -0.2379 -0.1764 -0.2709
   56CHL1  H21A 6603   2.315   3.041   9.118 -1.3516  0.6224  0.3437
   56CHL1  H21B 6604   2.340   2.936   9.249  0.6416  0.3250  2.1503
   56CHL1  H21C 6605   2.478   3.047   9.200  0.1531 -4.2183 -1.1831
   56CHL1   C22 6606   2.309   3.270   9.194 -0.3856 -0.1286 -0.0682
   56CHL1  H22A 6607   2.271   3.244   9.093  1.0802  1.4620 -1.0947
   56CHL1  H22B 6608   2.240   3.351   9.228 -1.1866 -1.5886  1.9602
   56CHL1   C23 6609   2.446   3.338   9.179 -1.0027 -0.1003  0.1823
   56CHL1  H23A 6610   2.463   3.401   9.269  0.5862  1.1478 -0.9510
   56CHL1  H23B 6611   2.524   3.261   9.162 -0.2214  0.8868 -0.8332
   56CHL1   C24 6612   2.455   3.433   9.058 -1.1167 -1.0450 -0.4669
   56CHL1  H24A 6613   2.368   3.501   9.053  0.5572  1.1385 -1.6206
   56CHL1  H24B 6614   2.544   3.498   9.065 -1.3115 -0.7681 -0.5322
   56CHL1   C25 6615   2.458   3.375   8.917  0.4054 -0.1915 -0.5745
   56CHL1   H25 6616   2.391   3.287   8.904 -1.2369  1.2042 -2.3088
   56CHL1   C26 6617   2.388   3.474   8.818  0.1752  0.2136 -0.5169
   56CHL1  H26A 6618   2.446   3.569   8.827 -1.2871  1.0899 -0.0196
   56CHL1  H26B 6619   2.392   3.432   8.715  0.4477 -0.4195 -0.2546
   56CHL1  H26C 6620   2.280   3.481   8.841  0.5802 -0.5316  1.9291
   56CHL1   C27 6621   2.603   3.346   8.871  0.1250 -0.3981  0.5197
   56CHL1  H27A 6622   2.648   3.275   8.944  2.3288 -0.1608 -0.5256
   56CHL1  H27B 6623   2.601   3.294   8.773  1.5914  0.2389  0.1222
   56CHL1  H27C 6624   2.666   3.438   8.866 -0.1441 -0.2652 -3.1710
   57CHL1    C3 6625   4.810   6.258  10.456 -0.2119  0.3189 -0.2689
   57CHL1    H3 6626   4.818   6.358  10.409 -2.3370  0.5611 -0.2292
   57CHL1    O3 6627   4.841   6.287  10.592 -0.7061 -0.5730 -0.1365
   57CHL1   H3' 6628   4.761   6.316  10.637  1.2462  2.1055  1.9597
   57CHL1    C4 6629   4.667   6.197  10.444 -0.4320  0.7514 -0.4919
   57CHL1   H4A 6630   4.665   6.094  10.485 -0.6558  1.6197  1.7839
   57CHL1   H4B 6631   4.603   6.266  10.503 -1.7579 -1.2627  0.5560
   57CHL1    C5 6632   4.628   6.182  10.298  0.0764  0.7326  1.0422
   57CHL1    C6 6633   4.531   6.250  10.243 -0.2418 -0.2370  0.0706
   57CHL1    H6 6634   4.473   6.324  10.300  3.7037  1.7993  1.9164
   57CHL1    C7 6635   4.508   6.249  10.095 -0.2261  0.3125 -0.0756
   57CHL1   H7A 6636   4.402   6.253  10.062  0.6484  0.1663 -3.2443
   57CHL1   H7B 6637   4.555   6.342  10.055 -2.6239  1.7085  0.1351
   57CHL1    C8 6638   4.570   6.121  10.032 -0.3610 -0.0307  0.3316
   57CHL1    H8 6639   4.505   6.033  10.053  0.1837 -0.7567 -0.8980
   57CHL1   C14 6640   4.564   6.142   9.883 -0.2707 -0.0386  0.6472
   57CHL1   H14 6641   4.633   6.227   9.866 -0.1672 -0.2004  0.2554
   57CHL1   C15 6642   4.434   6.165   9.810  0.2345  0.0964 -0.5458
   57CHL1  H15A 6643   4.351   6.098   9.841 -0.4871  0.4479 -1.6309
   57CHL1  H15B 6644   4.393   6.265   9.838  0.1840 -0.1348  0.2350
   57CHL1   C16 6645   4.470   6.160   9.656  0.2073 -0.3042 -0.5244
   57CHL1  H16A 6646   4.394   6.100   9.600 -1.8626  2.0996 -0.4891
   57CHL1  H16B 6647   4.476   6.261   9.609  0.8132 -0.2412 -0.3181
   57CHL1   C17 6648   4.610   6.097   9.649 -0.3720 -0.2968 -0.5453
   57CHL1   H17 6649   4.691   6.173   9.646 -0.6771  0.0025 -1.7923
   57CHL1   C13 6650   4.631   6.034   9.793  0.5406 -0.0447  0.2375
   57CHL1   C18 6651   4.547   5.908   9.795  0.2214  0.0737  0.4844
   57CHL1  H18A 6652   4.509   5.881   9.896 -0.0286  0.2514  0.4402
   57CHL1  H18B 6653   4.455   5.890   9.735 -0.1903 -0.2791  1.2073
   57CHL1  H18C 6654   4.607   5.822   9.757  1.4349  0.3793  1.6628
   57CHL1   C12 6655   4.779   6.015   9.836  0.0348 -0.6783  0.6950
   57CHL1  H12A 6656   4.842   5.945   9.777  0.0732  0.3834 -0.5772
   57CHL1  H12B 6657   4.829   6.113   9.820  3.1139 -2.2258  0.0544
   57CHL1   C11 6658   4.782   5.981   9.988  0.5873  0.5667  0.1892
   57CHL1  H11A 6659   4.741   5.880  10.009 -1.3665  0.4379 -3.4397
   57CHL1  H11B 6660   4.890   5.976  10.017  1.0390  0.3155 -1.4417
   57CHL1    C9 6661   4.713   6.088  10.075  0.4827  0.1681 -0.2541
   57CHL1    H9 6662   4.756   6.184  10.041 -0.5853  0.9473  0.5281
   57CHL1   C10 6663   4.726   6.087  10.222 -0.0905  1.3528 -0.1246
   57CHL1   C19 6664   4.699   5.942  10.266  0.8625 -0.0416 -0.5193
   57CHL1  H19A 6665   4.595   5.905  10.254  0.0222  0.2601  3.9904
   57CHL1  H19B 6666   4.762   5.867  10.213 -1.3695 -0.8118 -2.1874
   57CHL1  H19C 6667   4.732   5.919  10.370 -0.4575  2.0813  0.4326
   57CHL1    C1 6668   4.876   6.132  10.254  0.3834  0.6791 -0.0654
   57CHL1   H1A 6669   4.940   6.053  10.209 -0.5891 -0.7864  1.0205
   57CHL1   H1B 6670   4.898   6.228  10.202  1.3001 -0.4290 -1.8150
   57CHL1    C2 6671   4.910   6.158  10.399  0.9356 -0.3317 -0.1276
   57CHL1   H2A 6672   5.012   6.200  10.409  1.0948 -1.2603  3.2891
   57CHL1   H2B 6673   4.920   6.063  10.456  1.5724 -1.1635 -1.5723
   57CHL1   C20 6674   4.622   6.009   9.525 -0.0218 -0.2617 -0.1283
   57CHL1   H20 6675   4.542   5.934   9.538  0.9617 -0.9337  2.8488
   57CHL1   C21 6676   4.755   5.927   9.526 -0.1987  0.3601  1.1076
   57CHL1  H21A 6677   4.840   5.995   9.548 -0.2374  1.1076 -0.8567
   57CHL1  H21B 6678   4.779   5.881   9.428  0.5366  1.5351  0.7116
   57CHL1  H21C 6679   4.743   5.847   9.602  0.6090  1.5340  2.5224
   57CHL1   C22 6680   4.618   6.092   9.399 -0.2594 -0.4418 -0.5783
   57CHL1  H22A 6681   4.535   6.165   9.412  0.9803  0.9410 -0.2475
   57CHL1  H22B 6682   4.708   6.157   9.405 -0.8863  0.4149 -0.1792
   57CHL1   C23 6683   4.604   6.028   9.262  0.0543  0.4993  0.1749
   57CHL1  H23A 6684   4.689   5.958   9.247 -1.2682 -0.5885 -3.4119
   57CHL1  H23B 6685   4.509   5.969   9.265  1.3936 -1.8651 -1.0869
   57CHL1   C24 6686   4.595   6.124   9.140 -0.5587 -0.2278 -0.6154
   57CHL1  H24A 6687   4.518   6.202   9.151 -0.3338 -0.0576 -0.2382
   57CHL1  H24B 6688   4.689   6.182   9.133 -0.6157 -0.1106 -0.3875
   57CHL1   C25 6689   4.574   6.059   9.002 -0.1349 -0.4843 -0.1739
   57CHL1   H25 6690   4.657   5.986   8.987 -0.1761 -0.8086  1.0182
   57CHL1   C26 6691   4.452   5.979   8.990  0.4083  0.1904 -0.1822
   57CHL1  H26A 6692   4.447   5.953   8.882  2.1098  1.4789 -0.6136
   57CHL1  H26B 6693   4.468   5.881   9.040  3.2387  0.0565 -1.1892
   57CHL1  H26C 6694   4.365   6.038   9.025  1.2197  1.5842 -0.4256
   57CHL1   C27 6695   4.586   6.169   8.898 -0.6636  0.2113  0.0181
   57CHL1  H27A 6696   4.676   6.230   8.920 -0.0966 -0.7442  0.3953
   57CHL1  H27B 6697   4.598   6.131   8.794  0.4868  0.1579  0.1606
   57CHL1  H27C 6698   4.501   6.240   8.886 -0.3323  0.2622 -2.6691
   58CHL1    C3 6699   6.702   3.431  10.403  0.9997 -0.0212 -0.2625
   58CHL1    H3 6700   6.800   3.382  10.384 -0.8117 -3.0415 -2.7604
   58CHL1    O3 6701   6.672   3.419  10.544 -0.0983 -0.0268 -0.2777
   58CHL1   H3' 6702   6.757   3.425  10.590 -0.5266 -0.2121  0.5652
   58CHL1    C4 6703   6.709   3.579  10.356 -0.7134  0.4611 -0.0005
   58CHL1   H4A 6704   6.609   3.626  10.366 -0.2306  2.1197 -2.2620
   58CHL1   H4B 6705   6.771   3.640  10.424 -0.6865  0.2060  0.2062
   58CHL1    C5 6706   6.722   3.602  10.209 -0.3862 -0.3057 -0.2598
   58CHL1    C6 6707   6.827   3.666  10.146  0.0211  0.5989  0.0451
   58CHL1    H6 6708   6.902   3.709  10.215  1.6741  2.2847 -2.6347
   58CHL1    C7 6709   6.848   3.683   9.999  0.3774  1.0059 -0.2767
   58CHL1   H7A 6710   6.876   3.788   9.976 -3.3720  1.8335 -1.7584
   58CHL1   H7B 6711   6.931   3.625   9.952 -0.0553  0.2560 -0.1414
   58CHL1    C8 6712   6.720   3.656   9.923  0.5260 -0.2906 -0.3920
   58CHL1    H8 6713   6.645   3.737   9.936 -1.9231 -2.0175 -2.4524
   58CHL1   C14 6714   6.755   3.638   9.775  0.3441  0.3592  0.2612
   58CHL1   H14 6715   6.827   3.555   9.762  0.5073  0.4165  0.7705
   58CHL1   C15 6716   6.821   3.758   9.705  0.4455 -0.5384 -1.2400
   58CHL1  H15A 6717   6.787   3.855   9.746  1.2103 -0.1649 -1.4718
   58CHL1  H15B 6718   6.931   3.745   9.694  0.7237  2.2509 -2.3419
   58CHL1   C16 6719   6.780   3.752   9.557 -0.7877  0.1412 -0.1043
   58CHL1  H16A 6720   6.727   3.843   9.524  0.2898  0.3162 -1.4407
   58CHL1  H16B 6721   6.869   3.744   9.491  0.0414 -1.8375  1.1300
   58CHL1   C17 6722   6.686   3.635   9.551 -0.0654  0.9756 -0.3273
   58CHL1   H17 6723   6.738   3.537   9.540 -0.7257  0.3593  1.6579
   58CHL1   C13 6724   6.627   3.613   9.697 -0.4949 -0.0318 -0.0968
   58CHL1   C18 6725   6.515   3.718   9.725 -0.1276  0.0411  0.3854
   58CHL1  H18A 6726   6.480   3.727   9.830  2.2653  0.7129  1.1933
   58CHL1  H18B 6727   6.548   3.820   9.695 -1.9627  1.1984  2.0324
   58CHL1  H18C 6728   6.428   3.698   9.659 -0.0293 -2.5176  0.9081
   58CHL1   C12 6729   6.579   3.475   9.736  0.6425  0.4627  0.2087
   58CHL1  H12A 6730   6.498   3.432   9.674  2.3066 -1.2669 -0.8670
   58CHL1  H12B 6731   6.661   3.404   9.717  0.3174  0.2297 -0.3325
   58CHL1   C11 6732   6.543   3.466   9.882  0.5825 -0.9745  0.3391
   58CHL1  H11A 6733   6.445   3.519   9.889  1.9097  1.6310  0.6396
   58CHL1  H11B 6734   6.520   3.363   9.917 -0.8518  0.0747  2.7809
   58CHL1    C9 6735   6.657   3.527   9.978 -0.6759 -0.2809  0.4275
   58CHL1    H9 6736   6.740   3.455   9.960  0.6419  1.2545  0.1798
   58CHL1   C10 6737   6.615   3.526  10.128 -1.0711  0.1043  0.5299
   58CHL1   C19 6738   6.478   3.590  10.143  1.2987 -0.0819 -0.0867
   58CHL1  H19A 6739   6.403   3.529  10.087 -2.3224  2.7595  1.2592
   58CHL1  H19B 6740   6.444   3.582  10.248  2.0659 -0.0194  0.1728
   58CHL1  H19C 6741   6.475   3.694  10.106  0.5205  0.1426  0.5690
   58CHL1    C1 6742   6.608   3.375  10.168 -0.0423  0.6450  0.3065
   58CHL1   H1A 6743   6.528   3.318  10.115  0.6093  1.4366 -1.6421
   58CHL1   H1B 6744   6.702   3.324  10.137 -0.2433  0.3227  0.2199
   58CHL1    C2 6745   6.590   3.358  10.325  0.0120  0.0823  0.6314
   58CHL1   H2A 6746   6.608   3.251  10.351 -0.5064 -0.3919 -0.8202
   58CHL1   H2B 6747   6.493   3.388  10.369  0.4456 -1.5039  2.8023
   58CHL1   C20 6748   6.586   3.641   9.432 -0.1133  0.0968  0.4942
   58CHL1   H20 6749   6.513   3.725   9.441 -1.3541 -0.6654 -1.5427
   58CHL1   C21 6750   6.488   3.525   9.426 -0.2584  0.1472  0.1275
   58CHL1  H21A 6751   6.446   3.522   9.323  2.6985  1.7678 -1.2480
   58CHL1  H21B 6752   6.409   3.537   9.503  0.3801  0.9737  0.6736
   58CHL1  H21C 6753   6.543   3.430   9.440 -0.1974  0.0014 -0.9894
   58CHL1   C22 6754   6.662   3.666   9.289 -0.2471  0.1019 -0.0842
   58CHL1  H22A 6755   6.736   3.748   9.308 -1.0149  0.7733  0.0993
   58CHL1  H22B 6756   6.712   3.576   9.250 -0.1762  0.0087  0.2180
   58CHL1   C23 6757   6.561   3.719   9.181  0.3179 -0.2998 -0.4143
   58CHL1  H23A 6758   6.490   3.635   9.165 -0.1294  0.1192 -0.6618
   58CHL1  H23B 6759   6.495   3.803   9.211 -0.6365 -0.9634 -0.6069
   58CHL1   C24 6760   6.634   3.730   9.046 -0.3629 -0.6324  0.1834
   58CHL1  H24A 6761   6.671   3.630   9.014  1.1928 -0.4459  1.3253
   58CHL1  H24B 6762   6.562   3.756   8.965  0.6393 -1.1896 -0.9194
   58CHL1   C25 6763   6.750   3.836   9.043 -0.1984  0.0065 -0.1084
   58CHL1   H25 6764   6.820   3.786   9.114 -2.4827 -2.1030  0.8292
   58CHL1   C26 6765   6.824   3.853   8.911  0.0906 -0.0345 -0.1767
   58CHL1  H26A 6766   6.774   3.934   8.855 -2.0020 -1.4704 -0.4866
   58CHL1  H26B 6767   6.925   3.895   8.932 -1.0093  2.2919  0.8184
   58CHL1  H26C 6768   6.825   3.761   8.848 -1.2076 -0.3487  0.2234
   58CHL1   C27 6769   6.702   3.967   9.097  0.2909  0.2760  0.2632
   58CHL1  H27A 6770   6.648   4.029   9.022  1.4326  1.3867  0.3459
   58CHL1  H27B 6771   6.641   3.955   9.189 -1.3079  0.4396 -0.7266
   58CHL1  H27C 6772   6.795   4.025   9.114  2.0239 -1.5474 -2.2158
   59CHL1    C3 6773   5.796   2.898  10.459  0.1251 -0.3540  0.2290
   59CHL1    H3 6774   5.840   2.998  10.441  0.1853 -0.2676  0.8413
   59CHL1    O3 6775   5.763   2.900  10.595  0.2112  0.3217 -0.1106
   59CHL1   H3' 6776   5.839   2.930  10.647  0.3569 -0.0527 -0.1053
   59CHL1    C4 6777   5.670   2.878  10.374  0.0295  0.4294 -0.4592
   59CHL1   H4A 6778   5.629   2.779  10.406  1.9904 -0.8514 -1.6909
   59CHL1   H4B 6779   5.599   2.955  10.409 -1.2832 -0.9079 -0.0522
   59CHL1    C5 6780   5.690   2.864  10.227 -0.4926  0.2598 -0.2421
   59CHL1    C6 6781   5.623   2.944  10.144  0.1584 -0.1743  0.3959
   59CHL1    H6 6782   5.544   3.003  10.194  1.4678  0.3708  1.8895
   59CHL1    C7 6783   5.643   2.944   9.997 -0.0189  0.1038 -0.5738
   59CHL1   H7A 6784   5.548   2.935   9.940 -0.3073 -1.7622  0.1131
   59CHL1   H7B 6785   5.687   3.042   9.967 -0.6416  1.0616  1.4600
   59CHL1    C8 6786   5.729   2.821   9.951  0.2172  0.4000  0.5011
   59CHL1    H8 6787   5.668   2.728   9.951  2.6599 -1.3272  1.7481
   59CHL1   C14 6788   5.794   2.840   9.814  0.0342  0.2808 -0.2772
   59CHL1   H14 6789   5.859   2.929   9.826 -0.8371  0.6856  1.8303
   59CHL1   C15 6790   5.703   2.888   9.703  0.2225  0.6029  0.2489
   59CHL1  H15A 6791   5.605   2.837   9.694  0.3520  0.5826 -1.2683
   59CHL1  H15B 6792   5.691   2.998   9.702 -0.7506  0.5567  2.1183
   59CHL1   C16 6793   5.790   2.859   9.577  0.2375 -0.4387  0.1067
   59CHL1  H16A 6794   5.726   2.810   9.502 -0.6338  1.3458 -0.3655
   59CHL1  H16B 6795   5.821   2.959   9.539  0.1998 -0.1701  0.7667
   59CHL1   C17 6796   5.922   2.777   9.627 -0.2458 -0.2859 -0.3287
   59CHL1   H17 6797   5.995   2.858   9.650 -0.2951 -0.9461  2.4540
   59CHL1   C13 6798   5.878   2.724   9.761  0.4611 -0.0065 -0.1364
   59CHL1   C18 6799   5.786   2.594   9.746 -0.1836 -1.0717 -0.0698
   59CHL1  H18A 6800   5.716   2.628   9.666  2.0543  4.2081 -0.1865
   59CHL1  H18B 6801   5.851   2.511   9.713 -1.2924 -2.3178  0.7789
   59CHL1  H18C 6802   5.737   2.570   9.843 -2.1163  5.3312  0.9998
   59CHL1   C12 6803   5.992   2.702   9.859 -0.2359  0.0262 -0.2946
   59CHL1  H12A 6804   6.051   2.615   9.824  2.3686  1.7002 -0.3404
   59CHL1  H12B 6805   6.064   2.786   9.870 -1.1627  0.6432  1.6755
   59CHL1   C11 6806   5.940   2.675   9.997  0.5695  0.3587 -0.5442
   59CHL1  H11A 6807   5.881   2.581  10.000  0.4735  0.4442  1.1461
   59CHL1  H11B 6808   6.025   2.654  10.066  1.9810  3.2722 -1.2123
   59CHL1    C9 6809   5.843   2.785  10.051 -1.1203 -0.0451 -0.3050
   59CHL1    H9 6810   5.910   2.873  10.049 -0.1810 -0.6524  1.8620
   59CHL1   C10 6811   5.806   2.761  10.200  0.4168 -0.5643  0.0760
   59CHL1   C19 6812   5.747   2.620  10.217 -0.4464 -0.1892  0.0633
   59CHL1  H19A 6813   5.648   2.608  10.166 -1.4787  1.7307  1.4773
   59CHL1  H19B 6814   5.824   2.550  10.180 -1.0409 -0.3743 -0.8643
   59CHL1  H19C 6815   5.729   2.598  10.324 -2.2750  2.7208  0.4498
   59CHL1    C1 6816   5.930   2.781  10.283 -0.2966 -0.5218 -0.4585
   59CHL1   H1A 6817   6.004   2.698  10.270 -1.0369 -1.1178 -0.9860
   59CHL1   H1B 6818   5.984   2.874  10.255  0.8797 -0.1562  2.6690
   59CHL1    C2 6819   5.896   2.786  10.434 -0.4140  0.1648  0.5827
   59CHL1   H2A 6820   5.981   2.800  10.504  0.8869  0.7085 -1.0418
   59CHL1   H2B 6821   5.846   2.688  10.451  1.7412 -1.6086 -2.3263
   59CHL1   C20 6822   5.983   2.695   9.515 -0.2695  0.7242  0.6433
   59CHL1   H20 6823   5.921   2.603   9.502 -0.0342  0.5891  0.4803
   59CHL1   C21 6824   6.122   2.645   9.556  0.5705 -0.2655  0.3608
   59CHL1  H21A 6825   6.098   2.566   9.630 -1.4345  0.3536  0.4499
   59CHL1  H21B 6826   6.181   2.722   9.610  3.5785 -1.1828 -1.3737
   59CHL1  H21C 6827   6.190   2.609   9.476  1.7892  0.3277  1.1038
   59CHL1   C22 6828   5.983   2.773   9.386 -0.2643  0.0203 -0.2740
   59CHL1  H22A 6829   5.879   2.791   9.352 -0.1455  2.6484  0.4775
   59CHL1  H22B 6830   6.024   2.876   9.397  2.5023 -1.0377  0.1061
   59CHL1   C23 6831   6.050   2.703   9.268 -0.1388  0.1801 -0.1113
   59CHL1  H23A 6832   6.159   2.718   9.276 -0.3105  1.3525  0.3165
   59CHL1  H23B 6833   6.023   2.597   9.284  1.8058  0.0222  2.8290
   59CHL1   C24 6834   6.001   2.737   9.126  0.1882 -0.2795  0.6259
   59CHL1  H24A 6835   6.038   2.672   9.043  0.1126  0.3529  0.0896
   59CHL1  H24B 6836   5.892   2.717   9.126 -0.0114  0.6930 -0.7382
   59CHL1   C25 6837   6.026   2.884   9.089  0.1096 -0.2355  0.0413
   59CHL1   H25 6838   5.953   2.944   9.146 -1.1102 -0.9440 -0.7468
   59CHL1   C26 6839   6.174   2.916   9.123 -0.2433  0.4848  0.1310
   59CHL1  H26A 6840   6.185   2.926   9.233  1.1416  2.1852 -0.1147
   59CHL1  H26B 6841   6.239   2.828   9.103 -2.2597 -1.3173  1.0797
   59CHL1  H26C 6842   6.205   3.011   9.074  0.5541 -0.4994 -1.3203
   59CHL1   C27 6843   5.999   2.916   8.946 -0.0977 -0.0608 -0.5830
   59CHL1  H27A 6844   5.903   2.869   8.918 -1.4786  0.9183  2.1845
   59CHL1  H27B 6845   5.978   3.025   8.940 -2.5344 -0.5002 -0.9420
   59CHL1  H27C 6846   6.091   2.890   8.888  1.4852  1.0593  1.2902
   60CHL1    C3 6847   5.476   1.718  10.389 -0.1195 -0.5178 -0.2473
   60CHL1    H3 6848   5.557   1.687  10.459  0.8963  0.1561 -1.1108
   60CHL1    O3 6849   5.356   1.737  10.469 -0.3437  0.6678  0.8574
   60CHL1   H3' 6850   5.330   1.646  10.484  2.4808 -0.3415  0.3689
   60CHL1    C4 6851   5.506   1.853  10.331 -1.3314  0.0848  0.2343
   60CHL1   H4A 6852   5.418   1.885  10.272 -1.4631 -0.2770  0.2288
   60CHL1   H4B 6853   5.509   1.927  10.414 -1.7790  1.0110 -0.5589
   60CHL1    C5 6854   5.623   1.835  10.233  0.0246 -0.2772 -0.5228
   60CHL1    C6 6855   5.741   1.899  10.253  0.3119  0.3448 -0.4485
   60CHL1    H6 6856   5.741   1.970  10.338  0.4711 -0.1554 -0.0277
   60CHL1    C7 6857   5.864   1.899  10.163  0.4643 -0.9389  0.0396
   60CHL1   H7A 6858   5.903   2.002  10.149  0.0623 -0.9078 -1.0049
   60CHL1   H7B 6859   5.943   1.835  10.207  3.6239  1.6582 -1.4278
   60CHL1    C8 6860   5.827   1.826  10.029  0.2269  0.0303  0.1901
   60CHL1    H8 6861   5.759   1.893   9.972  1.4065 -0.8890 -2.4224
   60CHL1   C14 6862   5.946   1.803   9.946  0.4874  0.1545  0.2580
   60CHL1   H14 6863   6.017   1.755  10.016  0.8479 -0.0826 -0.2621
   60CHL1   C15 6864   6.024   1.931   9.903  0.3317 -0.4977  0.6549
   60CHL1  H15A 6865   5.960   2.020   9.887  1.8959  0.4579 -0.5751
   60CHL1  H15B 6866   6.102   1.951   9.980  0.8182 -2.2399  0.6574
   60CHL1   C16 6867   6.092   1.876   9.770  0.6939  0.3574 -0.0510
   60CHL1  H16A 6868   6.062   1.940   9.684  0.1400  0.5027  0.2449
   60CHL1  H16B 6869   6.202   1.861   9.782  0.4575 -1.3642  0.2079
   60CHL1   C17 6870   6.047   1.723   9.750  0.0476  0.2529 -0.3593
   60CHL1   H17 6871   6.109   1.647   9.801 -0.2100 -0.8131 -1.5906
   60CHL1   C13 6872   5.917   1.718   9.820 -0.1927  0.3954  0.1139
   60CHL1   C18 6873   5.813   1.775   9.716 -0.2836 -0.6191  0.3293
   60CHL1  H18A 6874   5.792   1.703   9.634  0.4049 -2.4751  1.7218
   60CHL1  H18B 6875   5.716   1.791   9.767 -1.4735  0.0868 -2.0255
   60CHL1  H18C 6876   5.854   1.866   9.668  3.2992 -1.5539  1.3115
   60CHL1   C12 6877   5.878   1.580   9.867 -0.2360 -0.0141 -0.6259
   60CHL1  H12A 6878   5.874   1.544   9.762  1.4655  1.1023 -1.1133
   60CHL1  H12B 6879   5.954   1.545   9.940 -2.1172 -2.7943  0.1787
   60CHL1   C11 6880   5.746   1.583   9.949 -0.6331 -0.3872 -0.0077
   60CHL1  H11A 6881   5.661   1.592   9.879 -0.4527 -0.0997 -0.1924
   60CHL1  H11B 6882   5.731   1.485  10.000 -2.5597  0.2219  0.6635
   60CHL1    C9 6883   5.754   1.692  10.061  0.7636 -0.1549  0.0308
   60CHL1    H9 6884   5.800   1.641  10.148 -3.4640 -1.8657  1.5359
   60CHL1   C10 6885   5.613   1.724  10.126  0.4929 -0.1208  0.2786
   60CHL1   C19 6886   5.508   1.766  10.023  0.3133  0.3381  0.0903
   60CHL1  H19A 6887   5.550   1.826   9.940 -1.2687  0.6301 -0.5421
   60CHL1  H19B 6888   5.459   1.679   9.975 -0.5549  1.1469 -0.5248
   60CHL1  H19C 6889   5.428   1.825  10.072 -0.0795 -0.1482  0.0374
   60CHL1    C1 6890   5.566   1.590  10.199 -0.4443  0.6579  0.2652
   60CHL1   H1A 6891   5.541   1.513  10.124  1.0552  0.1691  0.2373
   60CHL1   H1B 6892   5.657   1.562  10.257 -0.0827  0.1896 -0.5250
   60CHL1    C2 6893   5.446   1.616  10.287 -0.4364 -0.3709 -0.0426
   60CHL1   H2A 6894   5.418   1.525  10.344 -0.3534 -0.5397 -0.2679
   60CHL1   H2B 6895   5.363   1.649  10.221  0.3806  2.0072  0.0452
   60CHL1   C20 6896   6.056   1.675   9.600 -0.4661  0.3287  0.1725
   60CHL1   H20 6897   5.961   1.623   9.575 -0.3967 -1.2468  2.8465
   60CHL1   C21 6898   6.169   1.562   9.580 -0.0659 -0.1447 -0.8529
   60CHL1  H21A 6899   6.176   1.531   9.473 -0.8699  0.1038 -0.9757
   60CHL1  H21B 6900   6.138   1.471   9.635  2.4130 -1.4197 -1.3985
   60CHL1  H21C 6901   6.266   1.593   9.625 -1.1364  0.4172  1.1291
   60CHL1   C22 6902   6.075   1.775   9.478  0.2756  0.5555 -0.8148
   60CHL1  H22A 6903   6.003   1.857   9.501 -0.0976  0.8646 -2.8404
   60CHL1  H22B 6904   6.178   1.817   9.473 -0.0099  1.3919 -0.0378
   60CHL1   C23 6905   6.011   1.714   9.347 -0.3879 -0.2071  0.2759
   60CHL1  H23A 6906   6.065   1.620   9.322  0.5942  0.0647  1.2762
   60CHL1  H23B 6907   5.905   1.690   9.367 -0.8134  2.0298  0.9102
   60CHL1   C24 6908   6.004   1.823   9.232  0.7248 -0.2059 -0.3879
   60CHL1  H24A 6909   5.975   1.922   9.272 -1.3678  0.0317 -2.3053
   60CHL1  H24B 6910   6.109   1.838   9.198  0.0957 -0.0754 -2.4417
   60CHL1   C25 6911   5.905   1.798   9.122  0.3405  0.0068 -0.5379
   60CHL1   H25 6912   5.808   1.760   9.160  0.2248  2.5056  2.0168
   60CHL1   C26 6913   5.903   1.931   9.044  0.2660  0.3424  0.1442
   60CHL1  H26A 6914   5.856   2.013   9.102 -1.0968  0.5584 -1.2099
   60CHL1  H26B 6915   6.007   1.962   9.018 -1.1351  3.0694 -2.9516
   60CHL1  H26C 6916   5.854   1.916   8.945  0.6520 -1.1263  0.1613
   60CHL1   C27 6917   5.968   1.688   9.031 -0.2463 -0.2565 -0.0843
   60CHL1  H27A 6918   5.894   1.615   8.992 -3.1422  2.3015  0.2153
   60CHL1  H27B 6919   6.018   1.742   8.947 -1.1413  1.4939  0.4671
   60CHL1  H27C 6920   6.049   1.640   9.089  0.3330  0.1652 -0.5380
   61CHL1    C3 6921   3.137   0.299  10.422  0.6084 -0.2304  0.7291
   61CHL1    H3 6922   3.185   0.203  10.393  0.6178  0.3525 -1.3174
   61CHL1    O3 6923   3.131   0.312  10.566 -0.2251  0.2967 -0.1105
   61CHL1   H3' 6924   3.055   0.261  10.594 -0.2125  0.3762  0.0685
   61CHL1    C4 6925   3.206   0.413  10.350 -0.4815 -0.3344  0.0892
   61CHL1   H4A 6926   3.150   0.501  10.390  0.3750  1.2778 -2.0390
   61CHL1   H4B 6927   3.307   0.432  10.392 -0.9109 -1.6480  1.8213
   61CHL1    C5 6928   3.193   0.413  10.197  0.3769  0.2179  0.1186
   61CHL1    C6 6929   3.300   0.430  10.108  0.1489 -0.6389 -0.6373
   61CHL1    H6 6930   3.402   0.443  10.147  0.4071 -1.7683 -0.8912
   61CHL1    C7 6931   3.284   0.453   9.961 -0.8765 -0.1274  0.0860
   61CHL1   H7A 6932   3.330   0.544   9.917 -2.0351 -0.4692 -2.0157
   61CHL1   H7B 6933   3.350   0.376   9.915 -2.8192 -0.5413 -2.2444
   61CHL1    C8 6934   3.141   0.451   9.910 -0.3338 -0.5069  0.5324
   61CHL1    H8 6935   3.122   0.560   9.917  3.2627  0.4386 -1.7284
   61CHL1   C14 6936   3.136   0.421   9.764 -0.5656 -0.3224 -0.2765
   61CHL1   H14 6937   3.163   0.314   9.753  0.6182  0.1352 -2.1897
   61CHL1   C15 6938   3.233   0.499   9.670  0.4093  0.2829 -0.1871
   61CHL1  H15A 6939   3.226   0.609   9.682 -2.2640  0.1373  0.0166
   61CHL1  H15B 6940   3.337   0.461   9.682 -0.5377 -2.6583 -0.5936
   61CHL1   C16 6941   3.173   0.474   9.530 -0.9190  0.7466 -0.3571
   61CHL1  H16A 6942   3.155   0.570   9.477 -0.3918 -0.6009 -3.1731
   61CHL1  H16B 6943   3.232   0.410   9.462 -0.7944 -0.2395  0.6521
   61CHL1   C17 6944   3.038   0.401   9.559  0.6204  0.5110  0.2251
   61CHL1   H17 6945   3.060   0.293   9.540  1.9690  0.9976 -1.2161
   61CHL1   C13 6946   2.999   0.421   9.710 -0.1408 -0.4909  0.1186
   61CHL1   C18 6947   2.924   0.554   9.722  0.1740  0.1438 -0.6575
   61CHL1  H18A 6948   2.975   0.633   9.664  2.8243 -1.0262 -0.0570
   61CHL1  H18B 6949   2.818   0.553   9.689  0.2639  2.2065 -1.1346
   61CHL1  H18C 6950   2.920   0.599   9.823 -0.5629  1.4610 -1.2559
   61CHL1   C12 6951   2.914   0.316   9.777 -0.3367  1.0568  0.6481
   61CHL1  H12A 6952   2.805   0.321   9.761 -0.6495 -0.2294  2.0839
   61CHL1  H12B 6953   2.958   0.217   9.753 -0.7916  1.4992 -2.4715
   61CHL1   C11 6954   2.915   0.338   9.928 -0.3623  0.0560  0.7156
   61CHL1  H11A 6955   2.843   0.422   9.942 -2.0910 -1.1847 -0.3816
   61CHL1  H11B 6956   2.872   0.245   9.970 -0.5274 -1.2159 -2.0544
   61CHL1    C9 6957   3.047   0.359   9.996 -0.0670 -0.1243  0.1660
   61CHL1    H9 6958   3.098   0.261   9.987  0.2216 -0.0912  1.2945
   61CHL1   C10 6959   3.050   0.393  10.147 -0.2222  0.0604  0.2339
   61CHL1   C19 6960   2.971   0.520  10.177 -0.0648 -0.5119 -0.1786
   61CHL1  H19A 6961   2.988   0.561  10.279  2.9275  3.4346 -2.0376
   61CHL1  H19B 6962   3.002   0.603  10.110 -1.4587  1.5851  1.6016
   61CHL1  H19C 6963   2.861   0.503  10.174 -0.2162  0.1009  0.9892
   61CHL1    C1 6964   2.980   0.277  10.220 -0.2246 -0.1922  0.2802
   61CHL1   H1A 6965   2.871   0.269  10.204 -0.3939  1.0683  0.7118
   61CHL1   H1B 6966   3.024   0.179  10.192  2.3978  1.5541 -2.3463
   61CHL1    C2 6967   2.990   0.281  10.372  0.1173 -0.0592  0.1564
   61CHL1   H2A 6968   2.941   0.192  10.415  0.4049 -0.5024 -0.4259
   61CHL1   H2B 6969   2.943   0.374  10.413 -0.5818  0.1289 -1.0386
   61CHL1   C20 6970   2.930   0.430   9.458  0.1291  0.8989 -0.0438
   61CHL1   H20 6971   2.902   0.537   9.465 -0.4002  0.7619  0.0039
   61CHL1   C21 6972   2.798   0.352   9.483  0.5619  0.3647  0.6878
   61CHL1  H21A 6973   2.726   0.406   9.549 -1.7074  0.0680 -1.3883
   61CHL1  H21B 6974   2.819   0.255   9.533  0.0600  0.0776  0.3471
   61CHL1  H21C 6975   2.742   0.327   9.391  0.2764 -0.3396  1.0495
   61CHL1   C22 6976   2.969   0.406   9.309 -0.0290  0.0651 -0.6663
   61CHL1  H22A 6977   3.073   0.446   9.302  0.4048 -0.0310  3.0296
   61CHL1  H22B 6978   2.981   0.297   9.291  0.5981 -0.0597  0.4006
   61CHL1   C23 6979   2.881   0.467   9.200 -0.0454 -0.0351  0.0186
   61CHL1  H23A 6980   2.788   0.407   9.199 -0.2384  0.2730 -0.2303
   61CHL1  H23B 6981   2.849   0.571   9.220 -3.2132 -0.8796 -0.1026
   61CHL1   C24 6982   2.947   0.447   9.067  0.4936 -0.3051 -0.1591
   61CHL1  H24A 6983   3.050   0.489   9.068  0.2913  0.1952  0.4982
   61CHL1  H24B 6984   2.961   0.339   9.042 -1.8324 -0.4228 -1.2078
   61CHL1   C25 6985   2.870   0.508   8.944  0.0333  0.6424  0.1279
   61CHL1   H25 6986   2.766   0.472   8.958  0.7491 -0.9747  1.9145
   61CHL1   C26 6987   2.876   0.659   8.937  0.7051 -1.1551  0.1657
   61CHL1  H26A 6988   2.983   0.687   8.946 -0.2296  2.7686  0.8240
   61CHL1  H26B 6989   2.837   0.701   8.842  2.9369  2.8978  0.8517
   61CHL1  H26C 6990   2.821   0.702   9.024 -1.1717 -0.1393 -1.4261
   61CHL1   C27 6991   2.915   0.454   8.806 -0.3812 -0.4648  0.6456
   61CHL1  H27A 6992   3.020   0.474   8.778 -0.5626 -1.0359 -0.4767
   61CHL1  H27B 6993   2.889   0.349   8.779  0.4161 -0.0359 -2.0333
   61CHL1  H27C 6994   2.860   0.513   8.730  2.8835  1.4810 -0.3761
   62CHL1    C3 6995   3.451   4.148  10.202  0.3047 -0.2748  0.0476
   62CHL1    H3 6996   3.501   4.232  10.149  1.6195  0.5113  2.3589
   62CHL1    O3 6997   3.447   4.192  10.340 -0.6092 -0.3151 -0.1136
   62CHL1   H3' 6998   3.413   4.121  10.395  1.0406 -0.5055  0.6887
   62CHL1    C4 6999   3.305   4.114  10.154  0.4834  0.0606  1.0223
   62CHL1   H4A 7000   3.251   4.045  10.221 -0.0853 -0.0400  0.4720
   62CHL1   H4B 7001   3.256   4.214  10.144  0.6530  0.0547 -0.0426
   62CHL1    C5 7002   3.308   4.048  10.016 -0.3907 -0.0397 -0.8139
   62CHL1    C6 7003   3.234   4.101   9.913 -0.9911  0.3845 -0.2911
   62CHL1    H6 7004   3.173   4.189   9.938 -0.0378  1.1268 -0.5202
   62CHL1    C7 7005   3.221   4.035   9.774  0.2913  0.9154 -0.3208
   62CHL1   H7A 7006   3.111   4.027   9.756  0.1594  1.8547 -0.0151
   62CHL1   H7B 7007   3.277   4.086   9.693  0.1030 -0.6328 -1.4742
   62CHL1    C8 7008   3.278   3.890   9.782  0.1303 -0.5115  0.2735
   62CHL1    H8 7009   3.202   3.827   9.833  1.0329 -1.8823  0.0002
   62CHL1   C14 7010   3.296   3.825   9.642  0.2695 -0.1981  0.1613
   62CHL1   H14 7011   3.372   3.890   9.594  0.5495 -0.0879  0.7388
   62CHL1   C15 7012   3.170   3.830   9.551 -0.2896 -0.5042 -0.8044
   62CHL1  H15A 7013   3.080   3.797   9.608 -1.6507 -0.5561 -2.8738
   62CHL1  H15B 7014   3.138   3.930   9.517 -2.8430 -1.4046 -1.2895
   62CHL1   C16 7015   3.202   3.734   9.436 -0.2404  0.8758 -0.0700
   62CHL1  H16A 7016   3.122   3.659   9.416  0.7269 -0.9029  2.1923
   62CHL1  H16B 7017   3.212   3.788   9.339  1.8532 -0.4921 -0.6820
   62CHL1   C17 7018   3.348   3.682   9.469 -0.2997 -0.5170 -0.9949
   62CHL1   H17 7019   3.430   3.752   9.441 -0.5510  0.8436  1.4095
   62CHL1   C13 7020   3.353   3.680   9.629  0.4337  0.3377 -0.6873
   62CHL1   C18 7021   3.250   3.578   9.693  0.1758  0.0872  0.0472
   62CHL1  H18A 7022   3.229   3.615   9.795  0.7398  1.6026 -0.3535
   62CHL1  H18B 7023   3.157   3.564   9.633  0.9593  2.9537 -2.0801
   62CHL1  H18C 7024   3.308   3.485   9.707 -1.6439 -1.1993 -0.6283
   62CHL1   C12 7025   3.486   3.678   9.708  0.0219 -0.4412 -0.3458
   62CHL1  H12A 7026   3.519   3.572   9.703  1.2037 -0.1097  0.0040
   62CHL1  H12B 7027   3.568   3.735   9.657  1.0270 -1.7046 -0.1894
   62CHL1   C11 7028   3.468   3.731   9.843  0.4709 -0.4174  0.3820
   62CHL1  H11A 7029   3.406   3.659   9.902  1.5553 -0.1914  1.8612
   62CHL1  H11B 7030   3.567   3.735   9.893  0.5064  0.5219  0.2667
   62CHL1    C9 7031   3.407   3.872   9.857  0.1659 -0.6126 -0.4721
   62CHL1    H9 7032   3.480   3.933   9.800  0.0681 -0.6170 -0.6015
   62CHL1   C10 7033   3.398   3.924  10.007  0.0656  0.0418  0.3824
   62CHL1   C19 7034   3.333   3.808  10.089 -0.3522  0.5045 -0.5461
   62CHL1  H19A 7035   3.402   3.722  10.105 -1.6659 -0.8244 -1.6189
   62CHL1  H19B 7036   3.285   3.840  10.184 -2.3960  1.4273 -1.8158
   62CHL1  H19C 7037   3.256   3.755  10.028  0.3190 -1.2716  0.0796
   62CHL1    C1 7038   3.538   3.959  10.061 -0.4495 -0.0080 -0.2416
   62CHL1   H1A 7039   3.602   3.869  10.068  1.8678  1.5523 -0.4679
   62CHL1   H1B 7040   3.586   4.036   9.998 -0.7085 -0.5823 -1.1496
   62CHL1    C2 7041   3.536   4.023  10.205 -0.1329  0.3760  0.3773
   62CHL1   H2A 7042   3.635   4.056  10.242 -0.2893 -0.5066  1.6586
   62CHL1   H2B 7043   3.501   3.953  10.284  1.6456 -0.1213  0.7660
   62CHL1   C20 7044   3.382   3.552   9.394 -0.4353  0.5827  0.1787
   62CHL1   H20 7045   3.322   3.475   9.447 -1.8674  1.8155  0.4295
   62CHL1   C21 7046   3.533   3.524   9.402  0.4905  0.0685 -0.2679
   62CHL1  H21A 7047   3.584   3.589   9.328 -1.0031  3.3623  1.3754
   62CHL1  H21B 7048   3.539   3.416   9.379 -0.8308 -0.6407  2.3207
   62CHL1  H21C 7049   3.576   3.543   9.503  1.1982  4.4646 -1.1868
   62CHL1   C22 7050   3.351   3.554   9.243 -0.0013 -0.4485  0.6748
   62CHL1  H22A 7051   3.255   3.607   9.226  0.1241 -0.5004 -0.2192
   62CHL1  H22B 7052   3.422   3.623   9.194 -1.0025  0.7993  0.9099
   62CHL1   C23 7053   3.342   3.417   9.165 -0.6264 -0.5830 -0.4473
   62CHL1  H23A 7054   3.423   3.355   9.208 -1.8888 -0.7109  1.8845
   62CHL1  H23B 7055   3.251   3.362   9.197  0.1977 -1.1520  0.9638
   62CHL1   C24 7056   3.357   3.420   9.011 -0.4934 -0.3425 -0.2895
   62CHL1  H24A 7057   3.365   3.317   8.970 -0.9369 -1.9895  3.4141
   62CHL1  H24B 7058   3.274   3.479   8.966 -3.1726 -3.7020 -0.1379
   62CHL1   C25 7059   3.486   3.491   8.967  0.7353  0.3030  0.0813
   62CHL1   H25 7060   3.473   3.593   9.010  1.1040 -0.8508  3.1629
   62CHL1   C26 7061   3.610   3.436   9.030 -0.1573 -0.2617 -0.9036
   62CHL1  H26A 7062   3.633   3.332   9.000  2.5283 -0.0489  0.1899
   62CHL1  H26B 7063   3.698   3.498   9.003 -0.3133  0.8917  1.0276
   62CHL1  H26C 7064   3.605   3.445   9.140  2.4039  1.2530 -0.8216
   62CHL1   C27 7065   3.508   3.500   8.819 -0.1141 -0.1379  0.1595
   62CHL1  H27A 7066   3.532   3.397   8.785  0.3501 -0.4554  1.3619
   62CHL1  H27B 7067   3.421   3.546   8.768  0.6162  0.2755 -0.7530
   62CHL1  H27C 7068   3.596   3.567   8.806 -0.9130  0.9132  0.0085
   63CHL1    C3 7069   3.701   6.502  10.595 -0.6870 -0.5947  0.0879
   63CHL1    H3 7070   3.638   6.412  10.576 -1.8109  0.2030 -0.0125
   63CHL1    O3 7071   3.682   6.536  10.733  0.4441 -0.1137  0.1579
   63CHL1   H3' 7072   3.599   6.584  10.742  2.0658  3.0121 -0.0112
   63CHL1    C4 7073   3.853   6.478  10.572 -0.0561 -0.1300 -0.1089
   63CHL1   H4A 7074   3.900   6.576  10.596  1.5157 -0.2820 -2.3242
   63CHL1   H4B 7075   3.883   6.407  10.652  0.6775  1.3302  0.9597
   63CHL1    C5 7076   3.892   6.443  10.428  0.1564 -0.2681 -0.1602
   63CHL1    C6 7077   3.952   6.328  10.388  0.1509 -0.0440  1.0197
   63CHL1    H6 7078   3.979   6.252  10.463  0.1418 -1.5157 -0.4134
   63CHL1    C7 7079   3.971   6.286  10.247  0.7789  0.5674 -0.5077
   63CHL1   H7A 7080   4.075   6.250  10.232  1.6774  2.6102  0.5105
   63CHL1   H7B 7081   3.904   6.204  10.215  0.4803  0.1323  1.1380
   63CHL1    C8 7082   3.943   6.403  10.150  0.7289 -0.0896  0.7289
   63CHL1    H8 7083   4.032   6.469  10.164  0.0202  0.5658  2.3508
   63CHL1   C14 7084   3.952   6.356  10.007  0.3667  0.6778  0.6354
   63CHL1   H14 7085   3.864   6.291   9.993  0.7435  0.4755 -0.9607
   63CHL1   C15 7086   4.066   6.261   9.960  0.2088  0.4246 -0.5851
   63CHL1  H15A 7087   4.161   6.293  10.007 -1.2716  1.8835  1.5732
   63CHL1  H15B 7088   4.039   6.156   9.983  0.1436  0.8048  1.2256
   63CHL1   C16 7089   4.071   6.282   9.806 -0.7407  0.3240 -0.4870
   63CHL1  H16A 7090   4.175   6.319   9.790 -0.6633 -0.3172 -1.6536
   63CHL1  H16B 7091   4.059   6.188   9.747 -1.1531  0.1056 -0.0558
   63CHL1   C17 7092   3.966   6.385   9.769 -0.5365 -0.8189  0.0980
   63CHL1   H17 7093   3.870   6.333   9.748 -0.9555  0.6891 -2.1884
   63CHL1   C13 7094   3.943   6.468   9.899  0.0891 -0.5912 -0.2703
   63CHL1   C18 7095   4.051   6.573   9.913 -0.0101  0.8379 -0.6211
   63CHL1  H18A 7096   4.058   6.615  10.015  0.8564 -1.9141  0.5603
   63CHL1  H18B 7097   4.147   6.526   9.882 -0.7882  0.4030 -2.5292
   63CHL1  H18C 7098   4.038   6.656   9.841 -1.1521  0.1443 -1.2492
   63CHL1   C12 7099   3.799   6.527   9.922 -0.9850  0.8668 -0.8121
   63CHL1  H12A 7100   3.777   6.619   9.863 -1.0745  3.0967  2.4526
   63CHL1  H12B 7101   3.733   6.439   9.908 -0.0459  0.0994 -0.5247
   63CHL1   C11 7102   3.788   6.573  10.070 -0.1920 -0.0642 -0.4423
   63CHL1  H11A 7103   3.846   6.667  10.078 -1.9937  1.0033  0.7153
   63CHL1  H11B 7104   3.683   6.604  10.091 -0.3079 -1.7951  2.0057
   63CHL1    C9 7105   3.823   6.483  10.186 -0.3345 -0.0616 -0.1407
   63CHL1    H9 7106   3.740   6.409  10.179  1.3484 -2.1772  0.8846
   63CHL1   C10 7107   3.828   6.545  10.327 -0.8971  0.1182  0.7532
   63CHL1   C19 7108   3.927   6.667  10.323 -0.8105  0.0497 -0.0593
   63CHL1  H19A 7109   3.895   6.748  10.255 -0.4653 -0.5137 -0.9089
   63CHL1  H19B 7110   3.934   6.715  10.423 -0.5770 -1.5197  0.7201
   63CHL1  H19C 7111   4.030   6.635  10.297  0.0133  1.4328  1.3351
   63CHL1    C1 7112   3.688   6.600  10.363 -0.0443  0.0071  0.0957
   63CHL1   H1A 7113   3.672   6.691  10.301  1.1865 -0.4283 -0.8937
   63CHL1   H1B 7114   3.608   6.533  10.324 -0.2763  0.9439 -1.0878
   63CHL1    C2 7115   3.662   6.625  10.508 -0.2382  0.1845 -0.0029
   63CHL1   H2A 7116   3.557   6.650  10.534 -0.5498 -2.1898  1.3817
   63CHL1   H2B 7117   3.719   6.715  10.538  0.8461 -0.7614  0.8785
   63CHL1   C20 7118   4.005   6.460   9.643 -0.5949 -0.3216 -0.3850
   63CHL1   H20 7119   4.109   6.498   9.655 -1.0540  1.8976 -2.6759
   63CHL1   C21 7120   3.898   6.574   9.621  0.4976  0.0347  0.1653
   63CHL1  H21A 7121   3.916   6.622   9.523  1.5947 -0.2692  0.2000
   63CHL1  H21B 7122   3.906   6.654   9.699 -0.8952  0.8195 -0.4440
   63CHL1  H21C 7123   3.796   6.530   9.626  1.1943 -1.6464 -0.0417
   63CHL1   C22 7124   4.008   6.358   9.523 -0.1658 -0.9030  0.2223
   63CHL1  H22A 7125   4.069   6.271   9.555  0.2777  0.1659  2.4758
   63CHL1  H22B 7126   3.906   6.318   9.507 -0.3289  0.1209 -1.6221
   63CHL1   C23 7127   4.067   6.424   9.390  0.9121  0.1522 -0.0044
   63CHL1  H23A 7128   4.002   6.511   9.366  1.2411  0.5711  0.6027
   63CHL1  H23B 7129   4.173   6.447   9.412  1.2448  0.0874 -1.4749
   63CHL1   C24 7130   4.060   6.327   9.271 -0.2332 -0.3556  0.3803
   63CHL1  H24A 7131   4.123   6.240   9.299  2.1359  1.4028  0.8547
   63CHL1  H24B 7132   3.957   6.290   9.253  0.3739 -1.8842 -0.0927
   63CHL1   C25 7133   4.113   6.384   9.142 -0.3295  0.2779  0.4235
   63CHL1   H25 7134   4.057   6.475   9.112  1.0639  0.6881 -1.0537
   63CHL1   C26 7135   4.263   6.423   9.132  0.2013  0.5723  0.8486
   63CHL1  H26A 7136   4.334   6.343   9.105  0.6379  1.0767  0.4814
   63CHL1  H26B 7137   4.278   6.494   9.048 -1.2067 -1.0616 -0.8624
   63CHL1  H26C 7138   4.302   6.454   9.231 -0.4339  2.3970  0.5802
   63CHL1   C27 7139   4.072   6.288   9.029 -0.1210 -0.1908  0.0685
   63CHL1  H27A 7140   4.057   6.340   8.931  0.1973  1.1563  0.7024
   63CHL1  H27B 7141   4.149   6.209   9.016 -0.3319 -0.1851 -1.3391
   63CHL1  H27C 7142   3.973   6.246   9.054  0.1237 -0.3539  0.7770
   64CHL1    C3 7143   4.812   4.929  10.301  0.5107  0.2458  0.9826
   64CHL1    H3 7144   4.916   4.890  10.301  1.2268  1.8679 -1.9160
   64CHL1    O3 7145   4.753   4.928  10.430  0.3050 -0.5201 -0.7581
   64CHL1   H3' 7146   4.667   4.969  10.415  0.1025 -0.4207  0.6048
   64CHL1    C4 7147   4.811   5.078  10.248  0.6801  0.4923 -0.2638
   64CHL1   H4A 7148   4.714   5.118  10.285  0.7391 -0.5226  1.0938
   64CHL1   H4B 7149   4.893   5.128  10.304 -1.2177  1.0964  2.1457
   64CHL1    C5 7150   4.836   5.085  10.100  0.6627  0.4411  0.7713
   64CHL1    C6 7151   4.935   5.160  10.047 -0.1268  0.6095  0.0631
   64CHL1    H6 7152   4.994   5.227  10.111 -1.2130 -0.0678  1.8336
   64CHL1    C7 7153   4.970   5.178   9.903 -0.3935  0.9581  0.0253
   64CHL1   H7A 7154   4.990   5.283   9.873  0.5134  1.3329  1.8434
   64CHL1   H7B 7155   5.062   5.117   9.890 -0.8827  0.2239 -0.0522
   64CHL1    C8 7156   4.858   5.112   9.809 -0.3425 -0.0662 -0.6295
   64CHL1    H8 7157   4.781   5.193   9.812 -0.8287 -0.4272 -2.5003
   64CHL1   C14 7158   4.920   5.110   9.670  0.1747  0.4834  0.0326
   64CHL1   H14 7159   5.012   5.048   9.676 -0.1704 -0.2243 -1.6093
   64CHL1   C15 7160   4.965   5.240   9.605 -0.6158  0.9344 -0.5083
   64CHL1  H15A 7161   4.893   5.319   9.636 -2.9874 -1.2787 -0.0846
   64CHL1  H15B 7162   5.073   5.258   9.627  1.1224 -4.1023 -3.1587
   64CHL1   C16 7163   4.956   5.214   9.458 -0.8097  0.0679 -0.0475
   64CHL1  H16A 7164   4.895   5.294   9.413  1.5858  2.0431 -0.0117
   64CHL1  H16B 7165   5.056   5.215   9.409  0.3757  0.5201  2.2300
   64CHL1   C17 7166   4.895   5.077   9.439  0.4447  0.4592 -0.6899
   64CHL1   H17 7167   4.977   5.003   9.440  0.3057  0.2871 -1.5025
   64CHL1   C13 7168   4.819   5.053   9.574 -0.1342  0.9379  0.3458
   64CHL1   C18 7169   4.690   5.139   9.578 -0.7025 -0.1978  0.4350
   64CHL1  H18A 7170   4.642   5.122   9.676 -1.2845  1.9238  0.5601
   64CHL1  H18B 7171   4.708   5.246   9.554 -1.7325 -0.2307 -0.5882
   64CHL1  H18C 7172   4.612   5.112   9.504  0.3920 -0.9465 -0.4923
   64CHL1   C12 7173   4.779   4.909   9.617 -0.1836 -0.5108 -0.0517
   64CHL1  H12A 7174   4.693   4.882   9.552 -0.9304  0.9329  0.2974
   64CHL1  H12B 7175   4.868   4.844   9.607  0.4475 -0.1040  2.3101
   64CHL1   C11 7176   4.731   4.895   9.766 -0.4179  0.0996  1.0100
   64CHL1  H11A 7177   4.625   4.923   9.755 -0.7175 -1.3609 -0.1298
   64CHL1  H11B 7178   4.732   4.787   9.790  0.0158 -0.6031 -1.7821
   64CHL1    C9 7179   4.818   4.977   9.865  0.3121  0.4054 -0.1295
   64CHL1    H9 7180   4.917   4.928   9.865  0.1862  0.0833  1.4470
   64CHL1   C10 7181   4.759   4.981  10.009 -0.0994 -0.0669  0.3902
   64CHL1   C19 7182   4.609   5.014  10.006  0.7056 -0.8572 -0.6237
   64CHL1  H19A 7183   4.586   5.105   9.948  0.0655  0.3153  1.3555
   64CHL1  H19B 7184   4.545   4.925   9.989 -0.0578 -0.2311 -1.1111
   64CHL1  H19C 7185   4.578   5.040  10.110  1.1149 -1.5859 -0.3103
   64CHL1    C1 7186   4.764   4.833  10.069 -0.1694  0.3692 -0.1606
   64CHL1   H1A 7187   4.695   4.770  10.009 -0.2415 -1.1869  1.4736
   64CHL1   H1B 7188   4.865   4.791  10.054 -0.6011 -0.4471 -0.8804
   64CHL1    C2 7189   4.727   4.830  10.217  0.5252  0.0194  0.6590
   64CHL1   H2A 7190   4.730   4.726  10.257  0.3313 -0.3954 -0.3662
   64CHL1   H2B 7191   4.623   4.864  10.234  0.3326 -1.3910  2.6405
   64CHL1   C20 7192   4.825   5.056   9.304 -0.0548 -0.9446 -0.1255
   64CHL1   H20 7193   4.736   5.122   9.303 -0.5871 -1.5742  1.6116
   64CHL1   C21 7194   4.774   4.917   9.279  0.2846  0.0389  0.2687
   64CHL1  H21A 7195   4.690   4.883   9.343 -0.4868 -0.3525 -0.9181
   64CHL1  H21B 7196   4.850   4.839   9.301  0.6418  0.0797 -0.7218
   64CHL1  H21C 7197   4.747   4.893   9.173 -0.9633  0.7123  0.4116
   64CHL1   C22 7198   4.914   5.094   9.180  0.8185  0.6041  0.1007
   64CHL1  H22A 7199   4.857   5.051   9.094  4.0033  0.7503 -2.2827
   64CHL1  H22B 7200   4.921   5.202   9.156  0.2750  0.9619  1.4990
   64CHL1   C23 7201   5.050   5.024   9.186 -0.2165 -0.1990  0.3597
   64CHL1  H23A 7202   5.120   5.051   9.267  0.3699 -0.6698  0.0227
   64CHL1  H23B 7203   5.040   4.917   9.211  1.3876 -0.2005  1.1184
   64CHL1   C24 7204   5.131   5.043   9.061  0.7971 -0.5090 -0.4844
   64CHL1  H24A 7205   5.081   5.002   8.971 -2.1949  1.2512  0.2342
   64CHL1  H24B 7206   5.133   5.152   9.037 -2.1972 -0.4055 -0.6338
   64CHL1   C25 7207   5.279   4.984   9.067  0.3150 -0.2593 -0.1816
   64CHL1   H25 7208   5.314   5.023   9.165 -0.6882 -2.4768  1.1254
   64CHL1   C26 7209   5.277   4.834   9.059  0.9600  0.2815 -0.8906
   64CHL1  H26A 7210   5.383   4.804   9.045  1.1779  1.3696 -1.7867
   64CHL1  H26B 7211   5.220   4.772   9.131 -0.7462 -1.1444 -3.3413
   64CHL1  H26C 7212   5.229   4.805   8.964 -2.1407  1.1840  0.2864
   64CHL1   C27 7213   5.367   5.047   8.954 -0.1909  0.7815 -0.3560
   64CHL1  H27A 7214   5.472   5.047   8.992 -0.8046 -1.2011  1.6002
   64CHL1  H27B 7215   5.354   4.994   8.858 -1.1150  0.2451  0.0523
   64CHL1  H27C 7216   5.323   5.147   8.938 -3.0162  0.1685  2.4654
   65CHL1    C3 7217   0.224   2.954  10.452 -0.2954 -0.0925 -0.2184
   65CHL1    H3 7218   0.334   2.971  10.461 -0.3000 -0.6491  1.0496
   65CHL1    O3 7219   0.175   2.928  10.582  0.5598  0.1553 -0.1961
   65CHL1   H3' 7220   0.222   2.856  10.624  0.1644  0.5318  0.9354
   65CHL1    C4 7221   0.154   3.076  10.394  0.2680 -0.7012 -0.4358
   65CHL1   H4A 7222   0.046   3.066  10.418  0.0955  1.0504 -0.3622
   65CHL1   H4B 7223   0.185   3.161  10.458 -0.1027 -0.9822  0.1355
   65CHL1    C5 7224   0.167   3.100  10.250 -0.6647 -0.0619  0.3811
   65CHL1    C6 7225   0.210   3.221  10.202  0.9056  0.0676 -0.7276
   65CHL1    H6 7226   0.238   3.305  10.267  1.0259  0.4895 -1.3174
   65CHL1    C7 7227   0.226   3.255  10.054  1.1524  0.2349 -0.1083
   65CHL1   H7A 7228   0.171   3.350  10.038 -1.8206 -1.5517 -1.2486
   65CHL1   H7B 7229   0.332   3.257  10.020  1.0189 -4.0752 -1.3888
   65CHL1    C8 7230   0.158   3.156   9.964  0.9745  0.2819  0.1498
   65CHL1    H8 7231   0.049   3.176   9.968  0.7084 -1.0488  3.3858
   65CHL1   C14 7232   0.206   3.169   9.819  0.1572 -0.1591  0.6693
   65CHL1   H14 7233   0.315   3.147   9.817  0.0365 -0.7625  0.6145
   65CHL1   C15 7234   0.191   3.310   9.748  0.3268 -0.3626  0.2298
   65CHL1  H15A 7235   0.081   3.323   9.746  0.2310 -1.1700 -0.2013
   65CHL1  H15B 7236   0.253   3.393   9.787 -0.3773  1.1230 -1.6666
   65CHL1   C16 7237   0.212   3.274   9.601 -0.8009 -0.2465 -0.1461
   65CHL1  H16A 7238   0.139   3.332   9.540  1.5862  0.6198 -2.3865
   65CHL1  H16B 7239   0.308   3.317   9.564 -0.9043 -2.0533 -2.7962
   65CHL1   C17 7240   0.211   3.116   9.589  0.2667  0.1266 -0.1155
   65CHL1   H17 7241   0.318   3.085   9.587  0.3297  0.3431 -1.5322
   65CHL1   C13 7242   0.154   3.065   9.719  0.5953 -0.1619 -0.4813
   65CHL1   C18 7243   0.001   3.068   9.711  0.3814  0.6286  0.2086
   65CHL1  H18A 7244  -0.043   3.025   9.804 -0.8117 -0.6438 -0.9007
   65CHL1  H18B 7245  -0.045   3.168   9.694 -0.7658  0.0384 -0.3054
   65CHL1  H18C 7246  -0.042   2.990   9.644 -1.4636  2.7684 -1.2578
   65CHL1   C12 7247   0.204   2.928   9.769 -0.0980  0.2992  0.2834
   65CHL1  H12A 7248   0.175   2.841   9.706 -2.5325  0.3638  1.2065
   65CHL1  H12B 7249   0.314   2.928   9.753 -0.2635 -2.1699 -1.3652
   65CHL1   C11 7250   0.152   2.899   9.912  0.0365  0.3016 -0.1088
   65CHL1  H11A 7251   0.043   2.880   9.910 -0.1853  1.3282  1.0337
   65CHL1  H11B 7252   0.185   2.799   9.948 -0.2374  0.6024  1.0037
   65CHL1    C9 7253   0.189   3.007  10.012  0.3043 -0.3666  0.4350
   65CHL1    H9 7254   0.299   3.002  10.022  0.2750  1.2095  2.2586
   65CHL1   C10 7255   0.142   2.976  10.155 -0.8930 -0.6870 -0.0735
   65CHL1   C19 7256  -0.009   2.936  10.158 -0.3902 -0.4507 -0.8237
   65CHL1  H19A 7257  -0.043   2.921  10.262  0.3109  0.9544 -0.3693
   65CHL1  H19B 7258  -0.075   3.004  10.100 -0.3017  0.0791 -0.3111
   65CHL1  H19C 7259  -0.017   2.837  10.108 -1.8509  0.1390 -1.8102
   65CHL1    C1 7260   0.226   2.862  10.215 -0.0870 -0.1614  0.2001
   65CHL1   H1A 7261   0.205   2.770  10.156 -1.2455 -0.8423  1.6125
   65CHL1   H1B 7262   0.336   2.881  10.214  0.7236 -4.0806 -0.6021
   65CHL1    C2 7263   0.198   2.833  10.366 -0.0543  0.0249 -0.0594
   65CHL1   H2A 7264   0.260   2.746  10.397 -0.5278  0.0721  1.1004
   65CHL1   H2B 7265   0.090   2.804  10.365 -0.2191  0.5997 -1.4176
   65CHL1   C20 7266   0.151   3.065   9.456  1.0636  0.5285  0.5330
   65CHL1   H20 7267   0.047   3.105   9.452  2.1202  3.4537 -1.4160
   65CHL1   C21 7268   0.161   2.911   9.447 -0.3646 -0.4060  0.3392
   65CHL1  H21A 7269   0.267   2.877   9.441 -0.8162 -1.6861 -1.5375
   65CHL1  H21B 7270   0.105   2.888   9.354 -0.2419  3.0852 -0.7330
   65CHL1  H21C 7271   0.097   2.870   9.528 -0.9560  1.7789  1.0251
   65CHL1   C22 7272   0.217   3.124   9.330 -0.3051  0.3689  0.0528
   65CHL1  H22A 7273   0.214   3.234   9.346 -1.0766  0.2557  0.7746
   65CHL1  H22B 7274   0.322   3.089   9.330 -1.4754 -3.6146 -0.5957
   65CHL1   C23 7275   0.148   3.083   9.189 -0.7568  0.1685  0.5490
   65CHL1  H23A 7276   0.228   3.117   9.119  1.3994 -0.3343  2.6291
   65CHL1  H23B 7277   0.143   2.973   9.177  0.7715  0.2632 -1.6443
   65CHL1   C24 7278   0.015   3.151   9.165 -0.4783 -0.2543 -0.3432
   65CHL1  H24A 7279  -0.070   3.108   9.223  0.3252 -0.6964  0.5320
   65CHL1  H24B 7280   0.033   3.259   9.184  3.9100 -0.9104  0.1938
   65CHL1   C25 7281  -0.024   3.149   9.005  0.2624  0.6733 -0.4663
   65CHL1   H25 7282   0.066   3.174   8.945 -0.2530 -0.5705 -1.8215
   65CHL1   C26 7283  -0.053   2.999   8.968  0.0113 -0.4166  0.2380
   65CHL1  H26A 7284  -0.126   2.964   9.044 -1.8457  1.5142 -0.5351
   65CHL1  H26B 7285  -0.085   2.988   8.862  1.9435 -0.3315 -0.3941
   65CHL1  H26C 7286   0.040   2.939   8.967 -0.3652 -1.0174 -1.0163
   65CHL1   C27 7287  -0.149   3.242   8.988 -0.5463  0.8292  0.8798
   65CHL1  H27A 7288  -0.185   3.237   8.883  0.7997  0.3731  0.4171
   65CHL1  H27B 7289  -0.238   3.207   9.043 -1.8735 -0.2991 -1.7930
   65CHL1  H27C 7290  -0.135   3.346   9.025 -0.7292  1.6314 -1.1342
   66CHL1    C3 7291   4.250   0.302  10.503  0.1514  0.0851  0.4103
   66CHL1    H3 7292   4.283   0.408  10.494  0.0048  0.2388  1.5314
   66CHL1    O3 7293   4.243   0.271  10.642  0.2963  0.0916  0.0011
   66CHL1   H3' 7294   4.233   0.176  10.652 -1.0879  0.3956  2.0603
   66CHL1    C4 7295   4.112   0.304  10.435 -0.5647  0.0300 -0.1935
   66CHL1   H4A 7296   4.077   0.199  10.434  2.3281 -1.0297 -0.9739
   66CHL1   H4B 7297   4.032   0.357  10.491  2.0945  0.5004  3.5144
   66CHL1    C5 7298   4.137   0.353  10.291 -0.1574 -0.3504  0.5327
   66CHL1    C6 7299   4.073   0.462  10.252  0.7202  0.0201  0.0331
   66CHL1    H6 7300   3.995   0.498  10.320  0.0726 -3.2878  1.2090
   66CHL1    C7 7301   4.084   0.522  10.111 -0.2165  0.5750 -0.0510
   66CHL1   H7A 7302   3.981   0.548  10.079  0.2089  2.2888 -0.0973
   66CHL1   H7B 7303   4.134   0.620  10.097 -1.0981  1.1123  0.4046
   66CHL1    C8 7304   4.152   0.420  10.014 -0.3389  0.4053  0.1330
   66CHL1    H8 7305   4.081   0.338   9.990  1.3366 -0.4625 -2.3035
   66CHL1   C14 7306   4.185   0.490   9.877  0.0839 -0.2311  0.4164
   66CHL1   H14 7307   4.259   0.568   9.903 -0.8380  0.7049  0.3093
   66CHL1   C15 7308   4.073   0.571   9.803 -0.1137 -0.0584  0.0291
   66CHL1  H15A 7309   3.980   0.510   9.796 -0.7028  0.8025  0.2186
   66CHL1  H15B 7310   4.057   0.661   9.866 -0.4074  2.4725 -3.3524
   66CHL1   C16 7311   4.143   0.606   9.669 -0.3291  0.2148 -0.0899
   66CHL1  H16A 7312   4.070   0.593   9.587 -0.2451 -0.5718 -0.0415
   66CHL1  H16B 7313   4.170   0.714   9.665  2.6415 -0.3330  1.8015
   66CHL1   C17 7314   4.272   0.518   9.661  0.0030  0.0911  0.7163
   66CHL1   H17 7315   4.364   0.570   9.697  1.1052 -2.2898  1.5093
   66CHL1   C13 7316   4.254   0.407   9.775  0.3216  0.1010 -0.2549
   66CHL1   C18 7317   4.166   0.295   9.713 -1.1193  0.1691 -0.2523
   66CHL1  H18A 7318   4.126   0.219   9.782  2.3521  0.5019  2.3962
   66CHL1  H18B 7319   4.076   0.345   9.671 -0.9779  0.7198  0.0919
   66CHL1  H18C 7320   4.210   0.235   9.630  1.0945  1.0657  0.2098
   66CHL1   C12 7321   4.388   0.362   9.848 -0.4466  0.0628  0.3733
   66CHL1  H12A 7322   4.447   0.301   9.776  1.0824 -0.2315  1.8238
   66CHL1  H12B 7323   4.445   0.455   9.870 -0.0440  0.0879 -0.6861
   66CHL1   C11 7324   4.353   0.279   9.970  0.3867 -0.1285 -0.2479
   66CHL1  H11A 7325   4.286   0.203   9.925 -2.1051  1.3803  0.7041
   66CHL1  H11B 7326   4.449   0.237  10.008 -0.1082 -1.0442  0.0295
   66CHL1    C9 7327   4.275   0.357  10.076 -0.6578  0.4123 -0.9144
   66CHL1    H9 7328   4.344   0.439  10.105 -0.9549  0.3000  0.1296
   66CHL1   C10 7329   4.245   0.276  10.205  0.1838  0.2411  0.0737
   66CHL1   C19 7330   4.185   0.143  10.170 -0.9733  0.1802  0.5456
   66CHL1  H19A 7331   4.093   0.158  10.109  0.1333  3.5544 -0.4989
   66CHL1  H19B 7332   4.252   0.077  10.109 -3.0119 -0.2108 -1.4021
   66CHL1  H19C 7333   4.151   0.087  10.259  0.2467  0.6867  1.3558
   66CHL1    C1 7334   4.369   0.258  10.289  0.2003 -0.2831 -0.0510
   66CHL1   H1A 7335   4.451   0.197  10.244  0.5463 -0.4820  0.8399
   66CHL1   H1B 7336   4.417   0.358  10.284  1.2370 -0.7500 -5.0838
   66CHL1    C2 7337   4.352   0.214  10.432  0.4304  0.6824 -0.2404
   66CHL1   H2A 7338   4.453   0.215  10.480  0.8774  0.6299 -1.1526
   66CHL1   H2B 7339   4.306   0.112  10.433  0.2853  0.7131  2.1611
   66CHL1   C20 7340   4.300   0.468   9.522 -0.4208 -0.0583  0.8773
   66CHL1   H20 7341   4.227   0.395   9.482  1.6987 -1.6090 -0.3864
   66CHL1   C21 7342   4.444   0.409   9.526  0.8120 -0.2110  0.0241
   66CHL1  H21A 7343   4.448   0.315   9.586 -0.8264 -0.4433 -0.1873
   66CHL1  H21B 7344   4.516   0.479   9.573  1.5675 -0.1673 -1.1680
   66CHL1  H21C 7345   4.489   0.383   9.428  0.6189  1.9566 -0.7005
   66CHL1   C22 7346   4.300   0.583   9.409 -0.0134  0.4981  0.1527
   66CHL1  H22A 7347   4.204   0.637   9.422  0.1120  1.2541 -1.8278
   66CHL1  H22B 7348   4.373   0.665   9.425  0.0209  0.3309  0.8836
   66CHL1   C23 7349   4.303   0.533   9.268  0.2655  0.3159  0.0540
   66CHL1  H23A 7350   4.399   0.484   9.241  1.4912  1.1081  2.6489
   66CHL1  H23B 7351   4.212   0.468   9.262 -0.2230  1.0018 -0.1012
   66CHL1   C24 7352   4.269   0.640   9.155  1.0500 -0.3467  0.3890
   66CHL1  H24A 7353   4.173   0.690   9.184  0.4598 -0.1550 -1.7360
   66CHL1  H24B 7354   4.339   0.726   9.147  0.5829 -0.1316 -2.0972
   66CHL1   C25 7355   4.228   0.587   9.017  0.2990 -0.4245 -0.0191
   66CHL1   H25 7356   4.305   0.524   8.968 -0.8016 -0.1588 -2.2088
   66CHL1   C26 7357   4.096   0.510   9.020 -0.8584 -0.1554  0.5427
   66CHL1  H26A 7358   4.017   0.541   9.091 -0.3363 -2.2507  2.1255
   66CHL1  H26B 7359   4.063   0.500   8.914 -0.6733 -2.9777  0.6725
   66CHL1  H26C 7360   4.129   0.407   9.047 -1.3857 -0.4116  0.2293
   66CHL1   C27 7361   4.203   0.708   8.924 -0.3479  0.1173 -0.0635
   66CHL1  H27A 7362   4.287   0.780   8.938 -0.3137  0.0400  0.1365
   66CHL1  H27B 7363   4.205   0.669   8.820 -0.9380 -2.8614  0.9439
   66CHL1  H27C 7364   4.101   0.744   8.951 -0.0457  0.2383  0.9606
   67CHL1    C3 7365   2.750   0.832  10.231  1.2584 -0.5312  0.0440
   67CHL1    H3 7366   2.842   0.788  10.186  2.0085  0.3988  0.6454
   67CHL1    O3 7367   2.766   0.881  10.362 -0.1251  0.5076  0.1810
   67CHL1   H3' 7368   2.677   0.894  10.395 -0.1372 -0.1825  0.4379
   67CHL1    C4 7369   2.719   0.955  10.144 -0.2127 -0.2741  0.5261
   67CHL1   H4A 7370   2.632   1.013  10.181 -0.4078  2.3070 -3.3817
   67CHL1   H4B 7371   2.811   1.018  10.155  0.2100 -0.9691  1.0523
   67CHL1    C5 7372   2.684   0.920  10.002 -0.1553  0.7852  0.1097
   67CHL1    C6 7373   2.748   0.973   9.894  0.9759 -0.0186  0.1391
   67CHL1    H6 7374   2.817   1.059   9.900  0.6799  0.2982 -0.8856
   67CHL1    C7 7375   2.715   0.946   9.755 -0.6343 -0.9766  0.4092
   67CHL1   H7A 7376   2.704   1.044   9.703  2.5238  0.5839  2.3486
   67CHL1   H7B 7377   2.805   0.890   9.722  1.0927  0.3859  2.4821
   67CHL1    C8 7378   2.599   0.850   9.731  0.2348  0.3561 -0.5908
   67CHL1    H8 7379   2.505   0.910   9.728 -0.6373 -0.4947  3.2540
   67CHL1   C14 7380   2.610   0.792   9.593  0.1396  0.2673 -0.4934
   67CHL1   H14 7381   2.700   0.727   9.601 -0.4508 -0.3400  1.8454
   67CHL1   C15 7382   2.641   0.891   9.476  0.9965 -0.1746 -0.1823
   67CHL1  H15A 7383   2.572   0.978   9.466  1.4988  0.2251 -0.2005
   67CHL1  H15B 7384   2.736   0.949   9.471 -0.6707  2.6959 -1.5839
   67CHL1   C16 7385   2.624   0.791   9.360 -0.4072 -0.5569  0.6299
   67CHL1  H16A 7386   2.558   0.832   9.281  0.6775  1.0184  0.4997
   67CHL1  H16B 7387   2.721   0.756   9.319  0.7095  0.7166  2.0279
   67CHL1   C17 7388   2.542   0.671   9.412  0.4729  0.0203  0.1111
   67CHL1   H17 7389   2.610   0.584   9.429 -1.4233 -1.9808 -1.9071
   67CHL1   C13 7390   2.495   0.706   9.555 -0.7831  0.2536  0.2098
   67CHL1   C18 7391   2.365   0.799   9.542 -0.0297  0.7626 -0.6450
   67CHL1  H18A 7392   2.342   0.866   9.627  0.0573  1.8724 -1.4699
   67CHL1  H18B 7393   2.387   0.865   9.455  3.3474 -0.3720 -0.7927
   67CHL1  H18C 7394   2.279   0.730   9.530  0.4346 -0.8876  3.8291
   67CHL1   C12 7395   2.488   0.589   9.659  0.3045 -0.0857  0.4360
   67CHL1  H12A 7396   2.409   0.514   9.639  0.4496 -0.1131 -0.0367
   67CHL1  H12B 7397   2.584   0.533   9.660 -0.7072 -1.8998  0.5035
   67CHL1   C11 7398   2.473   0.634   9.805  0.2119 -0.5107 -0.2157
   67CHL1  H11A 7399   2.372   0.680   9.814  1.2744  1.5246  2.9465
   67CHL1  H11B 7400   2.484   0.546   9.872  1.7348  0.3647  0.7520
   67CHL1    C9 7401   2.584   0.739   9.838  0.1052 -0.0737  0.1694
   67CHL1    H9 7402   2.679   0.682   9.841  0.1388  0.0143  0.9585
   67CHL1   C10 7403   2.581   0.800   9.983  0.2272 -0.1828 -0.0139
   67CHL1   C19 7404   2.437   0.861  10.004 -0.8161  0.6411  0.1644
   67CHL1  H19A 7405   2.362   0.779   9.998  0.6244 -0.6460 -0.9581
   67CHL1  H19B 7406   2.438   0.911  10.103  2.2928  0.2539  0.4161
   67CHL1  H19C 7407   2.409   0.941   9.932 -0.3267 -1.2928 -2.3374
   67CHL1    C1 7408   2.606   0.691  10.083 -0.0034  0.2527  0.1347
   67CHL1   H1A 7409   2.527   0.613  10.077 -0.7094  1.0582 -3.1991
   67CHL1   H1B 7410   2.700   0.637  10.062 -0.5538  0.3273 -3.1002
   67CHL1    C2 7411   2.628   0.737  10.232 -0.2719 -0.4204 -0.1654
   67CHL1   H2A 7412   2.646   0.654  10.304 -1.4684  0.3606  1.0781
   67CHL1   H2B 7413   2.535   0.784  10.270  0.6966  1.3155  0.1519
   67CHL1   C20 7414   2.444   0.619   9.305  0.2431  0.2185  0.0577
   67CHL1   H20 7415   2.373   0.698   9.271 -0.1286 -0.1275  0.0279
   67CHL1   C21 7416   2.353   0.509   9.352 -0.3981  0.0402  0.3972
   67CHL1  H21A 7417   2.414   0.416   9.363  0.3432  0.4295 -0.3790
   67CHL1  H21B 7418   2.277   0.485   9.275 -1.1261  2.3697  0.3323
   67CHL1  H21C 7419   2.299   0.533   9.446 -0.7846 -1.4524  0.5825
   67CHL1   C22 7420   2.516   0.585   9.173 -0.5453  0.0282 -0.2481
   67CHL1  H22A 7421   2.574   0.674   9.140 -2.3356  1.3839  0.0911
   67CHL1  H22B 7422   2.580   0.495   9.186 -2.2690 -1.5854 -2.2141
   67CHL1   C23 7423   2.409   0.550   9.066 -0.3509 -0.1116 -0.5990
   67CHL1  H23A 7424   2.358   0.456   9.097  1.0179 -1.2294 -1.6024
   67CHL1  H23B 7425   2.335   0.631   9.050 -0.6636 -0.4872 -1.0661
   67CHL1   C24 7426   2.465   0.526   8.926  0.7170 -0.1504  0.3734
   67CHL1  H24A 7427   2.575   0.509   8.930  0.9538  1.3166  0.9096
   67CHL1  H24B 7428   2.426   0.438   8.871  1.4078  0.3046 -0.8715
   67CHL1   C25 7429   2.444   0.649   8.826  0.8326  0.2178 -0.0031
   67CHL1   H25 7430   2.515   0.629   8.742  0.7201  1.1285 -0.3351
   67CHL1   C26 7431   2.296   0.656   8.779  0.3770 -0.0277 -0.1080
   67CHL1  H26A 7432   2.279   0.751   8.725 -1.3492 -0.4313 -0.3410
   67CHL1  H26B 7433   2.273   0.574   8.708 -0.4514 -0.1702  0.3116
   67CHL1  H26C 7434   2.226   0.646   8.865  1.0190 -2.9183  0.1699
   67CHL1   C27 7435   2.498   0.786   8.879 -0.2765  0.5152 -0.6413
   67CHL1  H27A 7436   2.515   0.868   8.806 -0.0365  0.9788 -0.0765
   67CHL1  H27B 7437   2.421   0.820   8.952 -1.1825  0.5924 -1.6187
   67CHL1  H27C 7438   2.588   0.768   8.942 -1.3841  0.8975  1.1204
   68CHL1    C3 7439   5.217   3.077  10.428 -0.4992 -0.9080  0.5879
   68CHL1    H3 7440   5.297   3.000  10.430  0.2338 -0.1427  1.6467
   68CHL1    O3 7441   5.199   3.127  10.561  0.0083  0.4080  0.2954
   68CHL1   H3' 7442   5.270   3.189  10.577 -2.6922  3.8321  0.1798
   68CHL1    C4 7443   5.267   3.196  10.342 -0.3302  0.1770 -0.4965
   68CHL1   H4A 7444   5.204   3.282  10.372 -0.0509  0.6879 -1.3682
   68CHL1   H4B 7445   5.368   3.229  10.377 -0.2508 -0.1120 -0.4409
   68CHL1    C5 7446   5.274   3.188  10.194  0.0081  0.3019  0.5417
   68CHL1    C6 7447   5.379   3.244  10.131  0.4286  0.5595  0.4689
   68CHL1    H6 7448   5.462   3.290  10.188  0.5746 -0.9197  1.4938
   68CHL1    C7 7449   5.397   3.238   9.983 -0.5576 -0.2037  0.2031
   68CHL1   H7A 7450   5.428   3.340   9.951  0.1509 -0.7029 -0.7590
   68CHL1   H7B 7451   5.482   3.171   9.958  0.5878  1.6212 -1.1469
   68CHL1    C8 7452   5.269   3.187   9.906 -0.5889 -0.5211 -0.5296
   68CHL1    H8 7453   5.209   3.281   9.901  2.1711  1.4215  0.1102
   68CHL1   C14 7454   5.308   3.145   9.762  1.1751 -0.0159  0.2840
   68CHL1   H14 7455   5.363   3.051   9.782  0.3251 -0.4400  0.6712
   68CHL1   C15 7456   5.402   3.232   9.678  0.5840 -0.6136 -0.3810
   68CHL1  H15A 7457   5.388   3.337   9.713  1.9408 -0.3820 -0.4728
   68CHL1  H15B 7458   5.507   3.207   9.704  0.7699  1.1230  0.6793
   68CHL1   C16 7459   5.358   3.204   9.532 -0.5551 -0.8954  0.3607
   68CHL1  H16A 7460   5.336   3.296   9.474  0.8631 -0.7294  0.0652
   68CHL1  H16B 7461   5.449   3.159   9.487 -0.2009 -2.1859  2.2594
   68CHL1   C17 7462   5.243   3.100   9.535  0.0180  0.2484  1.0589
   68CHL1   H17 7463   5.284   2.997   9.535 -1.5842 -0.4347  1.7738
   68CHL1   C13 7464   5.184   3.124   9.676 -0.8585 -0.7574  0.3612
   68CHL1   C18 7465   5.097   3.250   9.674 -0.2594  0.0769 -0.1014
   68CHL1  H18A 7466   5.155   3.330   9.624 -0.3314  0.6996  0.7788
   68CHL1  H18B 7467   5.011   3.236   9.606 -1.1214  0.1618  0.9413
   68CHL1  H18C 7468   5.049   3.274   9.771 -0.7192  1.7969 -0.7305
   68CHL1   C12 7469   5.101   3.003   9.743 -0.1188  0.2445  0.6076
   68CHL1  H12A 7470   5.004   2.999   9.688  0.9391 -1.5540 -1.2748
   68CHL1  H12B 7471   5.163   2.914   9.721  1.0751  0.9427  1.0784
   68CHL1   C11 7472   5.076   3.022   9.897 -0.0592  0.1529 -0.1657
   68CHL1  H11A 7473   4.994   3.095   9.911 -0.8547 -0.6600 -0.4647
   68CHL1  H11B 7474   5.028   2.929   9.933  1.8844 -1.3782 -1.2713
   68CHL1    C9 7475   5.189   3.070   9.975 -0.5758 -0.3487 -0.7762
   68CHL1    H9 7476   5.265   2.989   9.982 -0.5460 -0.1770  1.6674
   68CHL1   C10 7477   5.163   3.107  10.125 -0.0593 -0.0707  0.2767
   68CHL1   C19 7478   5.048   3.215  10.129 -0.2070  0.1575  0.4392
   68CHL1  H19A 7479   4.953   3.170  10.092 -0.1161  2.2511 -2.7190
   68CHL1  H19B 7480   5.030   3.264  10.227 -0.7405  0.8428  0.0158
   68CHL1  H19C 7481   5.074   3.288  10.049  0.4011 -0.5730 -0.0440
   68CHL1    C1 7482   5.115   2.988  10.209 -0.0915  0.1833  0.3193
   68CHL1   H1A 7483   5.024   2.942  10.165 -0.5582  2.3956 -1.1837
   68CHL1   H1B 7484   5.200   2.917  10.203  0.1702  0.2327  2.5220
   68CHL1    C2 7485   5.095   3.019  10.362 -0.3464  0.2749  0.6950
   68CHL1   H2A 7486   5.086   2.914  10.399  1.6256  0.3043  1.3837
   68CHL1   H2B 7487   4.999   3.072  10.375  0.0056  1.1496 -0.1529
   68CHL1   C20 7488   5.157   3.097   9.407 -0.2116  0.1420 -0.1074
   68CHL1   H20 7489   5.097   3.190   9.401  2.1527  1.6467 -3.1620
   68CHL1   C21 7490   5.059   2.975   9.406 -0.1658  0.4378  0.1053
   68CHL1  H21A 7491   5.113   2.879   9.395  1.1779  1.1321  0.3673
   68CHL1  H21B 7492   5.015   2.985   9.304 -0.4475  0.7561  0.2555
   68CHL1  H21C 7493   4.983   2.969   9.486 -1.6807  0.6791 -1.2546
   68CHL1   C22 7494   5.238   3.093   9.279 -0.1932  0.2300  0.0568
   68CHL1  H22A 7495   5.167   3.113   9.195  1.4270  2.5752 -0.8500
   68CHL1  H22B 7496   5.309   3.178   9.288 -1.9632  1.6905  0.8212
   68CHL1   C23 7497   5.335   2.974   9.249 -0.0141 -0.2095 -0.1140
   68CHL1  H23A 7498   5.396   2.966   9.341 -0.6956 -2.9739  0.1875
   68CHL1  H23B 7499   5.280   2.877   9.252 -1.7749  0.7128 -0.7051
   68CHL1   C24 7500   5.422   2.988   9.123 -0.1724  0.3278  0.0893
   68CHL1  H24A 7501   5.360   3.004   9.032  1.9461  1.3156 -1.2771
   68CHL1  H24B 7502   5.479   3.083   9.128 -1.8270  1.2853  1.8989
   68CHL1   C25 7503   5.523   2.865   9.118  0.5261 -0.5837  1.2074
   68CHL1   H25 7504   5.464   2.776   9.148 -1.6247  0.0887 -0.7866
   68CHL1   C26 7505   5.588   2.841   8.982  0.0496 -0.0021  0.4512
   68CHL1  H26A 7506   5.519   2.868   8.899  3.1216 -0.8123 -2.6386
   68CHL1  H26B 7507   5.676   2.908   8.973 -0.1644  0.3778  1.1124
   68CHL1  H26C 7508   5.625   2.736   8.988 -0.3151 -0.0408  2.3015
   68CHL1   C27 7509   5.636   2.884   9.218  0.3850 -0.7904  0.5119
   68CHL1  H27A 7510   5.686   2.980   9.194  1.0623 -1.3181 -0.2348
   68CHL1  H27B 7511   5.596   2.880   9.321 -0.6342  1.0387  0.2269
   68CHL1  H27C 7512   5.711   2.803   9.207  1.8452  0.2167  2.4018
   69CHL1    C3 7513   5.330   6.017   7.092 -1.1079  0.4715  0.3977
   69CHL1    H3 7514   5.412   5.945   7.073 -0.0211  2.0845 -1.3517
   69CHL1    O3 7515   5.271   6.066   6.976 -0.0742  0.3189  0.0062
   69CHL1   H3' 7516   5.194   6.107   7.017 -0.6537 -1.1752  0.4918
   69CHL1    C4 7517   5.230   5.947   7.187 -0.3686 -0.1903  0.3741
   69CHL1   H4A 7518   5.141   6.012   7.199  0.8965  1.3982  1.8282
   69CHL1   H4B 7519   5.187   5.859   7.136 -2.2566  0.7895  0.1964
   69CHL1    C5 7520   5.279   5.929   7.327  0.5869 -0.2149  0.3972
   69CHL1    C6 7521   5.266   5.810   7.380  0.7178 -0.2295 -0.0312
   69CHL1    H6 7522   5.217   5.733   7.319 -0.1435 -0.4000  0.8563
   69CHL1    C7 7523   5.305   5.788   7.527  0.1250  0.3725 -0.0697
   69CHL1   H7A 7524   5.228   5.734   7.586  2.1089 -0.1831  2.1784
   69CHL1   H7B 7525   5.390   5.718   7.545  1.0059  1.4468  0.0552
   69CHL1    C8 7526   5.319   5.916   7.615  0.3041  0.3589 -0.2511
   69CHL1    H8 7527   5.221   5.968   7.627  1.4992  2.0935  4.0230
   69CHL1   C14 7528   5.375   5.893   7.748 -0.9988 -0.2632 -0.4902
   69CHL1   H14 7529   5.480   5.859   7.734 -1.6668 -2.1533 -1.3478
   69CHL1   C15 7530   5.299   5.781   7.827 -0.0382 -0.2249  0.0939
   69CHL1  H15A 7531   5.193   5.808   7.809  0.2004  0.3039 -0.5571
   69CHL1  H15B 7532   5.322   5.676   7.802 -1.2293 -1.2393  2.7785
   69CHL1   C16 7533   5.354   5.810   7.972  0.2873  0.6454  0.2936
   69CHL1  H16A 7534   5.270   5.826   8.042  1.6225  2.2448  1.6280
   69CHL1  H16B 7535   5.403   5.720   8.015  2.7693  1.5723 -0.3734
   69CHL1   C17 7536   5.447   5.934   7.961 -0.8082 -0.0782 -0.0502
   69CHL1   H17 7537   5.551   5.902   7.940 -0.4937 -0.2462  1.6331
   69CHL1   C13 7538   5.392   6.013   7.844 -0.3013 -0.3605 -0.4941
   69CHL1   C18 7539   5.264   6.088   7.879  0.6809  0.0901  0.2347
   69CHL1  H18A 7540   5.288   6.172   7.947 -0.5188  1.7128 -1.2521
   69CHL1  H18B 7541   5.217   6.132   7.789  0.3946  1.8465  1.1793
   69CHL1  H18C 7542   5.195   6.019   7.933 -0.4720 -0.8557 -2.3134
   69CHL1   C12 7543   5.489   6.112   7.769  0.8778 -0.0939  0.5452
   69CHL1  H12A 7544   5.502   6.212   7.814 -0.3056  1.1582 -1.7023
   69CHL1  H12B 7545   5.591   6.069   7.764  0.3120 -1.5462  0.9630
   69CHL1   C11 7546   5.438   6.146   7.623 -0.2427  0.2253 -0.3968
   69CHL1  H11A 7547   5.343   6.200   7.644  0.1614  1.1820 -0.9632
   69CHL1  H11B 7548   5.513   6.208   7.568 -0.2238  1.5040  1.0226
   69CHL1    C9 7549   5.398   6.026   7.534 -0.6811 -0.2545 -0.4281
   69CHL1    H9 7550   5.490   5.966   7.516 -0.2889 -0.4349  1.8605
   69CHL1   C10 7551   5.341   6.056   7.392 -0.3294  0.5948  0.1202
   69CHL1   C19 7552   5.237   6.170   7.403  1.5221 -0.2658  0.5001
   69CHL1  H19A 7553   5.205   6.190   7.298  0.3531 -0.1768  0.8643
   69CHL1  H19B 7554   5.146   6.138   7.459  1.9510 -2.2627  0.1359
   69CHL1  H19C 7555   5.274   6.266   7.445  0.3581  1.3823 -1.9833
   69CHL1    C1 7556   5.457   6.096   7.298  0.0657 -0.4032  0.2564
   69CHL1   H1A 7557   5.508   6.181   7.350  1.2997 -1.7916  1.4108
   69CHL1   H1B 7558   5.527   6.010   7.299 -0.2943 -0.7040 -0.2769
   69CHL1    C2 7559   5.410   6.131   7.153 -0.0048  0.6116 -0.2518
   69CHL1   H2A 7560   5.505   6.150   7.099  0.3298 -1.1499 -0.3354
   69CHL1   H2B 7561   5.350   6.225   7.155 -0.5621  0.2588  0.0396
   69CHL1   C20 7562   5.466   6.007   8.097 -0.0249 -0.0642  0.8935
   69CHL1   H20 7563   5.364   6.034   8.131 -0.0653  2.2611 -0.8053
   69CHL1   C21 7564   5.558   6.128   8.078 -1.5528 -0.2216 -0.2521
   69CHL1  H21A 7565   5.498   6.214   8.041  0.1814 -0.1150 -3.1759
   69CHL1  H21B 7566   5.650   6.117   8.016 -0.4733  3.6043  0.4066
   69CHL1  H21C 7567   5.587   6.164   8.179  0.5023  1.8868 -1.4820
   69CHL1   C22 7568   5.519   5.909   8.212  1.1036 -0.3842  0.0304
   69CHL1  H22A 7569   5.464   5.814   8.195 -1.0189  0.9606 -1.0537
   69CHL1  H22B 7570   5.629   5.900   8.193  1.0863 -0.6007  0.0327
   69CHL1   C23 7571   5.484   5.970   8.345  0.1204 -0.4496 -0.1540
   69CHL1  H23A 7572   5.559   5.936   8.420  0.9067 -0.3930 -0.9009
   69CHL1  H23B 7573   5.482   6.080   8.339  0.0830 -0.4038  0.5647
   69CHL1   C24 7574   5.345   5.913   8.395 -0.4246  0.2803 -0.3323
   69CHL1  H24A 7575   5.269   5.946   8.320 -1.5639 -1.6133 -0.0566
   69CHL1  H24B 7576   5.350   5.803   8.400  2.4598  0.4036  1.5821
   69CHL1   C25 7577   5.301   5.977   8.536 -0.5099 -0.6816  0.3798
   69CHL1   H25 7578   5.316   6.087   8.528 -0.4009 -0.6056  1.5901
   69CHL1   C26 7579   5.159   5.934   8.548  0.5600  0.1508  0.7346
   69CHL1  H26A 7580   5.121   5.964   8.648  3.5366 -0.4529  2.1573
   69CHL1  H26B 7581   5.103   5.989   8.468 -1.3407  2.2484  3.3175
   69CHL1  H26C 7582   5.156   5.823   8.547  0.2233  0.1510  1.2550
   69CHL1   C27 7583   5.384   5.939   8.661  1.0275 -0.4105  1.0349
   69CHL1  H27A 7584   5.488   5.963   8.632  1.0637 -2.0798 -0.4205
   69CHL1  H27B 7585   5.352   6.000   8.748 -1.6594 -1.4588  0.8852
   69CHL1  H27C 7586   5.368   5.831   8.682 -0.1366 -1.2850 -3.3301
   70CHL1    C3 7587   6.080   4.098   7.126  0.9334  0.5859 -0.0909
   70CHL1    H3 7588   6.119   4.009   7.180  1.1658 -1.3019 -3.1368
   70CHL1    O3 7589   6.078   4.073   6.989 -0.0355  0.0757  0.0659
   70CHL1   H3' 7590   6.058   4.161   6.956  0.7467 -0.2133 -1.2498
   70CHL1    C4 7591   5.935   4.108   7.175  0.1411  0.3160 -0.1150
   70CHL1   H4A 7592   5.887   4.184   7.110 -0.1740 -1.0293 -1.5152
   70CHL1   H4B 7593   5.889   4.007   7.168 -0.7454  0.5579  1.6733
   70CHL1    C5 7594   5.926   4.152   7.321 -0.9901  0.5288  0.2741
   70CHL1    C6 7595   5.845   4.083   7.403  0.5321 -1.1217  0.2515
   70CHL1    H6 7596   5.789   3.996   7.368  1.1843 -1.4064 -0.1140
   70CHL1    C7 7597   5.825   4.119   7.543 -0.2335  0.0903 -0.0545
   70CHL1   H7A 7598   5.715   4.114   7.558 -0.6036 -0.3453 -2.4237
   70CHL1   H7B 7599   5.872   4.043   7.609  1.9102  1.3601 -0.0298
   70CHL1    C8 7600   5.879   4.260   7.587  0.5603  0.1387  0.6737
   70CHL1    H8 7601   5.804   4.335   7.554 -1.3221 -1.4370  1.2050
   70CHL1   C14 7602   5.897   4.265   7.745  0.2231 -0.3131  0.4958
   70CHL1   H14 7603   5.980   4.192   7.757  0.2606 -0.2501  0.6180
   70CHL1   C15 7604   5.778   4.224   7.836 -0.4752 -0.7128 -0.7890
   70CHL1  H15A 7605   5.683   4.277   7.817 -0.1916 -0.3853 -1.2929
   70CHL1  H15B 7606   5.758   4.115   7.839 -2.3351 -0.3881 -0.2980
   70CHL1   C16 7607   5.822   4.276   7.977 -0.8553 -1.2308  0.0306
   70CHL1  H16A 7608   5.739   4.328   8.030 -0.5078 -0.0726 -0.5390
   70CHL1  H16B 7609   5.860   4.192   8.040  0.5187 -1.9920 -1.7559
   70CHL1   C17 7610   5.943   4.369   7.951  0.3496  0.1042  0.3482
   70CHL1   H17 7611   6.032   4.301   7.953 -1.7688 -2.8665  1.6220
   70CHL1   C13 7612   5.944   4.400   7.798 -0.1561  0.4382 -0.4891
   70CHL1   C18 7613   5.837   4.507   7.778 -0.2728 -0.5189  0.2241
   70CHL1  H18A 7614   5.802   4.513   7.673 -0.2472  2.3026  0.3161
   70CHL1  H18B 7615   5.756   4.493   7.853  2.1119 -0.4568  3.0017
   70CHL1  H18C 7616   5.884   4.604   7.804  1.7259 -1.0366 -1.2460
   70CHL1   C12 7617   6.075   4.435   7.731  0.3444  0.4049  0.1945
   70CHL1  H12A 7618   6.094   4.543   7.751  1.2545  0.3335 -0.2070
   70CHL1  H12B 7619   6.166   4.382   7.767  1.1075  1.8663  0.5191
   70CHL1   C11 7620   6.067   4.420   7.573  0.0801 -0.4012  0.4617
   70CHL1  H11A 7621   5.996   4.502   7.546 -0.2411 -0.3531  1.4164
   70CHL1  H11B 7622   6.169   4.440   7.535 -0.2628  1.5392  0.4362
   70CHL1    C9 7623   6.018   4.285   7.522  1.0369 -0.3488 -0.5548
   70CHL1    H9 7624   6.082   4.203   7.561  0.1921 -0.7185  0.0744
   70CHL1   C10 7625   6.014   4.269   7.367 -0.6443 -0.1652 -0.1844
   70CHL1   C19 7626   5.964   4.397   7.299 -0.8387 -0.2451 -0.1387
   70CHL1  H19A 7627   6.043   4.473   7.315  0.4935 -1.9952  2.2368
   70CHL1  H19B 7628   5.942   4.393   7.190  1.2236 -0.0708 -0.5882
   70CHL1  H19C 7629   5.869   4.435   7.343 -1.0671  1.0896 -1.6914
   70CHL1    C1 7630   6.159   4.242   7.319 -0.0200  0.7792  0.8350
   70CHL1   H1A 7631   6.230   4.324   7.345  1.2666 -0.4218  1.1753
   70CHL1   H1B 7632   6.194   4.146   7.362  0.5510  1.1638  1.2484
   70CHL1    C2 7633   6.167   4.218   7.163  0.3035  0.0251 -0.8723
   70CHL1   H2A 7634   6.271   4.184   7.146  0.2626 -1.3592  1.2277
   70CHL1   H2B 7635   6.142   4.316   7.116 -1.5779  0.5938  1.1000
   70CHL1   C20 7636   5.961   4.485   8.049 -0.2257  0.0484 -0.1682
   70CHL1   H20 7637   5.883   4.560   8.023 -0.8151 -0.4160  0.2401
   70CHL1   C21 7638   6.096   4.557   8.036 -0.6141 -0.8562  0.1662
   70CHL1  H21A 7639   6.101   4.626   7.949  0.7206  0.2535  1.0827
   70CHL1  H21B 7640   6.182   4.488   8.035 -0.0458 -0.1784  0.9269
   70CHL1  H21C 7641   6.111   4.620   8.126  0.9706  0.2381 -0.8091
   70CHL1   C22 7642   5.941   4.449   8.200  0.0626 -0.4066 -0.1501
   70CHL1  H22A 7643   5.934   4.549   8.249  1.1460 -0.8303  0.9283
   70CHL1  H22B 7644   5.837   4.411   8.215  0.3310 -0.7690  0.9115
   70CHL1   C23 7645   6.042   4.366   8.267 -0.2873  0.0644  0.5338
   70CHL1  H23A 7646   6.058   4.264   8.226  1.2493  0.3393  0.3956
   70CHL1  H23B 7647   6.136   4.424   8.277 -0.5714  0.4909  0.7652
   70CHL1   C24 7648   6.001   4.323   8.409 -0.2007  0.8143  0.6009
   70CHL1  H24A 7649   5.900   4.278   8.403 -0.4803  1.5955 -3.6828
   70CHL1  H24B 7650   6.068   4.239   8.436  1.7420  1.2478 -2.3978
   70CHL1   C25 7651   5.998   4.441   8.508 -0.0870 -0.3778 -0.0173
   70CHL1   H25 7652   5.942   4.529   8.471  0.5405  0.2767  0.5404
   70CHL1   C26 7653   5.934   4.404   8.644  0.6041  0.0440 -0.0790
   70CHL1  H26A 7654   5.945   4.484   8.721  0.1009  0.1900 -0.1589
   70CHL1  H26B 7655   5.827   4.378   8.633  0.4296  0.0463  1.4114
   70CHL1  H26C 7656   5.983   4.313   8.685  0.5145  0.7122  1.6256
   70CHL1   C27 7657   6.138   4.486   8.545 -0.4023 -0.5725  0.3248
   70CHL1  H27A 7658   6.197   4.460   8.455 -2.9094 -2.6407 -0.8220
   70CHL1  H27B 7659   6.142   4.595   8.568  2.0317 -0.3164 -0.9795
   70CHL1  H27C 7660   6.180   4.433   8.634  0.0595  1.1660  1.2085
   71CHL1    C3 7661   4.739   0.277   6.955 -0.0525  0.5558  0.8901
   71CHL1    H3 7662   4.842   0.311   6.931  0.5543 -0.5003  1.8934
   71CHL1    O3 7663   4.669   0.247   6.834 -0.4443 -0.4592  0.6342
   71CHL1   H3' 7664   4.581   0.279   6.854 -0.0520  0.2464  1.2742
   71CHL1    C4 7665   4.768   0.141   7.031  0.2730 -0.0298 -0.6746
   71CHL1   H4A 7666   4.671   0.088   7.042  0.1002  0.7405  2.2353
   71CHL1   H4B 7667   4.823   0.086   6.951 -1.0830 -0.0059 -1.6610
   71CHL1    C5 7668   4.845   0.156   7.159  0.1392  0.0507  0.0251
   71CHL1    C6 7669   4.964   0.092   7.184  0.0508  0.9090  0.6493
   71CHL1    H6 7670   5.009   0.024   7.110  0.9946  1.7500  0.4203
   71CHL1    C7 7671   5.027   0.091   7.312 -0.2507 -0.2018  0.4581
   71CHL1   H7A 7672   5.070  -0.008   7.337  0.9793 -0.0699 -0.9938
   71CHL1   H7B 7673   5.117   0.151   7.285  0.0876 -0.1657  1.6161
   71CHL1    C8 7674   4.943   0.152   7.423  0.3353 -0.6828  0.1074
   71CHL1    H8 7675   4.873   0.077   7.466  0.8551 -0.3319  1.6114
   71CHL1   C14 7676   5.032   0.203   7.529  0.0608 -0.7140  0.0513
   71CHL1   H14 7677   5.095   0.281   7.481 -1.0609 -0.5979 -1.3007
   71CHL1   C15 7678   5.132   0.110   7.589 -0.2891  0.1658 -0.1255
   71CHL1  H15A 7679   5.086   0.010   7.604  0.2267 -0.1453 -0.5374
   71CHL1  H15B 7680   5.214   0.096   7.515  0.3854  1.8024  0.2760
   71CHL1   C16 7681   5.189   0.182   7.713 -0.4483 -0.3285 -0.0164
   71CHL1  H16A 7682   5.212   0.107   7.793  1.4483 -0.1459 -0.3417
   71CHL1  H16B 7683   5.290   0.224   7.691 -0.1282 -0.5501  0.9711
   71CHL1   C17 7684   5.089   0.290   7.757 -0.0030 -1.1194  0.1687
   71CHL1   H17 7685   5.137   0.381   7.714  0.6032 -1.6050 -0.2030
   71CHL1   C13 7686   4.967   0.277   7.657 -1.1636  0.4086  0.3110
   71CHL1   C18 7687   4.875   0.172   7.727 -0.1305 -0.4024 -0.7731
   71CHL1  H18A 7688   4.790   0.151   7.659 -0.5273 -1.3063 -0.0243
   71CHL1  H18B 7689   4.914   0.068   7.734 -1.4405 -0.9394 -1.1387
   71CHL1  H18C 7690   4.845   0.195   7.832 -1.4327  0.3098 -1.2797
   71CHL1   C12 7691   4.906   0.404   7.606 -0.1788  0.8181 -0.6978
   71CHL1  H12A 7692   4.861   0.472   7.683 -0.2690  0.5521 -0.5155
   71CHL1  H12B 7693   4.989   0.469   7.570 -2.0195  3.3617 -0.6248
   71CHL1   C11 7694   4.809   0.361   7.494 -0.1245 -0.3106  0.2109
   71CHL1  H11A 7695   4.724   0.309   7.543 -0.5620 -0.1807 -0.3956
   71CHL1  H11B 7696   4.773   0.453   7.441  4.0653  1.5127  0.1901
   71CHL1    C9 7697   4.870   0.282   7.377 -0.3537  0.0027  0.5758
   71CHL1    H9 7698   4.953   0.344   7.338 -0.8999  0.7819  0.6281
   71CHL1   C10 7699   4.781   0.258   7.252  0.6057 -0.0765 -0.2244
   71CHL1   C19 7700   4.656   0.183   7.305  0.4184  0.0975 -0.1582
   71CHL1  H19A 7701   4.615   0.252   7.381  2.1026 -0.8196  1.6857
   71CHL1  H19B 7702   4.571   0.182   7.233 -2.0306 -0.3641  2.5692
   71CHL1  H19C 7703   4.662   0.076   7.336  0.0402 -1.2503 -4.1358
   71CHL1    C1 7704   4.745   0.389   7.175 -0.1648 -0.5647  0.1501
   71CHL1   H1A 7705   4.699   0.470   7.235  3.4548  1.8892 -0.1086
   71CHL1   H1B 7706   4.843   0.438   7.161 -0.4306 -0.1459 -0.3059
   71CHL1    C2 7707   4.664   0.372   7.044  0.1886 -0.0592  0.0660
   71CHL1   H2A 7708   4.649   0.468   6.990 -0.8868 -0.4985 -0.4460
   71CHL1   H2B 7709   4.562   0.334   7.065 -0.2243  1.5907  1.2010
   71CHL1   C20 7710   5.074   0.306   7.907  0.2695 -0.4118  0.0600
   71CHL1   H20 7711   5.024   0.219   7.954 -1.2580  0.3795 -0.0484
   71CHL1   C21 7712   4.988   0.425   7.928 -0.5276 -0.3201  0.4350
   71CHL1  H21A 7713   4.982   0.458   8.034  1.4837  0.4227  0.3461
   71CHL1  H21B 7714   4.882   0.412   7.895 -0.2975 -2.6406  0.4735
   71CHL1  H21C 7715   5.031   0.518   7.886 -0.6895  0.0945  1.1620
   71CHL1   C22 7716   5.212   0.332   7.985  0.7792  0.2383 -0.0479
   71CHL1  H22A 7717   5.289   0.261   7.948  1.1647  0.2623  0.6906
   71CHL1  H22B 7718   5.235   0.440   7.976  1.3573  0.5075  3.2071
   71CHL1   C23 7719   5.185   0.307   8.137 -0.5143 -0.8436 -0.1022
   71CHL1  H23A 7720   5.108   0.380   8.171 -0.6853 -0.5585 -1.0890
   71CHL1  H23B 7721   5.141   0.206   8.146 -1.2386 -0.4573  0.8636
   71CHL1   C24 7722   5.319   0.336   8.205  0.2431  0.5370 -1.0247
   71CHL1  H24A 7723   5.374   0.241   8.187 -0.4258 -0.0220 -0.2434
   71CHL1  H24B 7724   5.342   0.437   8.165 -0.0739  0.9229 -0.2547
   71CHL1   C25 7725   5.298   0.344   8.361 -0.2731 -0.5357 -0.4122
   71CHL1   H25 7726   5.205   0.402   8.381  0.0336 -0.5972  1.3807
   71CHL1   C26 7727   5.285   0.205   8.430  0.0092  0.1682 -0.1921
   71CHL1  H26A 7728   5.270   0.211   8.540 -1.9084  0.8609 -0.4601
   71CHL1  H26B 7729   5.196   0.153   8.389 -1.4855  1.6623  1.0025
   71CHL1  H26C 7730   5.381   0.153   8.410 -0.1654 -0.7011  1.1139
   71CHL1   C27 7731   5.408   0.421   8.432 -0.2619 -0.3836  0.0756
   71CHL1  H27A 7732   5.423   0.527   8.403 -0.3996 -0.1872  0.7067
   71CHL1  H27B 7733   5.388   0.418   8.542 -1.3766 -1.7502 -0.1340
   71CHL1  H27C 7734   5.509   0.376   8.417  1.1284  2.4830  0.0822
   72CHL1    C3 7735   4.799   5.387   7.271  0.8156 -0.0058  0.5326
   72CHL1    H3 7736   4.805   5.497   7.257  1.1673 -0.1166 -0.2635
   72CHL1    O3 7737   4.797   5.318   7.144 -0.3000  0.1177  0.4165
   72CHL1   H3' 7738   4.862   5.248   7.152 -0.5100 -0.1190  0.0506
   72CHL1    C4 7739   4.916   5.342   7.345 -0.2707  0.1275  0.0277
   72CHL1   H4A 7740   4.897   5.233   7.344 -1.6167  0.3437  0.2737
   72CHL1   H4B 7741   5.006   5.364   7.284 -0.8899 -1.6899 -1.6272
   72CHL1    C5 7742   4.921   5.393   7.488 -0.3119 -0.6687 -0.1786
   72CHL1    C6 7743   5.033   5.452   7.542  0.3645  0.0082 -0.4866
   72CHL1    H6 7744   5.127   5.458   7.486  0.7476 -1.9833 -0.1416
   72CHL1    C7 7745   5.054   5.485   7.688 -0.7527  0.3312  0.2379
   72CHL1   H7A 7746   5.150   5.450   7.731 -2.0744 -0.7804  2.4543
   72CHL1   H7B 7747   5.029   5.593   7.701 -0.9904  0.5542 -1.6506
   72CHL1    C8 7748   4.943   5.425   7.780  0.6069  0.6113 -0.2047
   72CHL1    H8 7749   4.963   5.318   7.798 -1.1937  0.0813 -1.0968
   72CHL1   C14 7750   4.943   5.491   7.918 -0.1434 -0.2600 -0.5385
   72CHL1   H14 7751   4.922   5.598   7.902  1.1603 -0.0115 -0.6490
   72CHL1   C15 7752   5.075   5.488   8.000  0.0518 -0.0744  0.3752
   72CHL1  H15A 7753   5.106   5.381   8.002  0.3921  0.0334  1.1085
   72CHL1  H15B 7754   5.158   5.547   7.955  0.5050 -0.5224  0.6149
   72CHL1   C16 7755   5.040   5.532   8.144  0.2319  0.4128  0.1892
   72CHL1  H16A 7756   5.084   5.456   8.212 -0.5400  0.5600  0.8716
   72CHL1  H16B 7757   5.076   5.631   8.179  0.0908  0.4041  0.3629
   72CHL1   C17 7758   4.883   5.516   8.149  0.6962  0.0315  0.3764
   72CHL1   H17 7759   4.836   5.616   8.146 -2.2501 -1.2538  0.7082
   72CHL1   C13 7760   4.837   5.439   8.015 -0.2613  0.8505 -0.2514
   72CHL1   C18 7761   4.848   5.289   8.033 -0.0531 -0.5862  0.1076
   72CHL1  H18A 7762   4.872   5.226   7.945 -0.4472 -1.0201  0.3075
   72CHL1  H18B 7763   4.936   5.287   8.100  0.5375  2.6456 -0.4064
   72CHL1  H18C 7764   4.758   5.239   8.075 -1.0520 -0.0501 -1.3339
   72CHL1   C12 7765   4.704   5.479   7.955  0.0036  0.3147 -0.1827
   72CHL1  H12A 7766   4.614   5.457   8.016  0.2865  0.1552  0.1787
   72CHL1  H12B 7767   4.705   5.589   7.938 -1.8642  0.2743 -0.7293
   72CHL1   C11 7768   4.689   5.414   7.810  0.2340 -0.0686 -1.1804
   72CHL1  H11A 7769   4.667   5.306   7.824 -2.6916  0.5295 -0.5806
   72CHL1  H11B 7770   4.599   5.452   7.756 -1.0355 -2.5481 -0.9656
   72CHL1    C9 7771   4.809   5.442   7.710 -0.2737 -0.3826 -0.1371
   72CHL1    H9 7772   4.802   5.549   7.680 -0.3088  0.0496  1.3167
   72CHL1   C10 7773   4.795   5.362   7.576 -0.0068 -0.4965 -0.0901
   72CHL1   C19 7774   4.786   5.209   7.596 -0.1941  0.1190 -0.8256
   72CHL1  H19A 7775   4.683   5.172   7.617 -0.2193  0.8810  0.5144
   72CHL1  H19B 7776   4.810   5.151   7.504  1.9216 -1.7511  0.7731
   72CHL1  H19C 7777   4.850   5.183   7.684  0.2581 -0.9265 -1.4515
   72CHL1    C1 7778   4.674   5.410   7.494 -0.1090 -0.4634  0.2920
   72CHL1   H1A 7779   4.584   5.383   7.553 -0.2109  2.4893  1.6624
   72CHL1   H1B 7780   4.676   5.521   7.482 -2.1362 -0.4977 -1.0613
   72CHL1    C2 7781   4.670   5.354   7.342 -0.1143 -0.2791 -0.3173
   72CHL1   H2A 7782   4.573   5.384   7.296 -2.1239 -3.2130  1.6771
   72CHL1   H2B 7783   4.664   5.243   7.344 -0.4658 -0.2640 -0.4360
   72CHL1   C20 7784   4.832   5.453   8.278  0.2489  0.0758  0.1249
   72CHL1   H20 7785   4.871   5.349   8.286 -1.8255 -1.1262 -3.3502
   72CHL1   C21 7786   4.679   5.450   8.287  0.0397  0.4398 -0.5306
   72CHL1  H21A 7787   4.631   5.550   8.289  1.3476  1.0977 -0.5969
   72CHL1  H21B 7788   4.659   5.383   8.373  1.1176 -2.4757 -2.3896
   72CHL1  H21C 7789   4.641   5.383   8.207  0.0372  0.3927 -0.4895
   72CHL1   C22 7790   4.895   5.524   8.396 -0.5139  0.2537  0.4623
   72CHL1  H22A 7791   5.005   5.527   8.384 -0.4686 -0.9510  0.3938
   72CHL1  H22B 7792   4.848   5.624   8.399 -0.4952  0.2460  2.5842
   72CHL1   C23 7793   4.883   5.438   8.523  0.5962 -0.1819  0.7958
   72CHL1  H23A 7794   4.776   5.424   8.549  1.0571 -0.6965  2.5132
   72CHL1  H23B 7795   4.928   5.340   8.498  2.1429 -0.1216  3.0582
   72CHL1   C24 7796   4.957   5.495   8.639 -0.2277  0.4669 -0.5832
   72CHL1  H24A 7797   5.047   5.538   8.588 -0.6565  2.8586  0.5699
   72CHL1  H24B 7798   4.916   5.588   8.683  1.1103  0.1173  1.5348
   72CHL1   C25 7799   4.991   5.397   8.759  1.2277  0.4704  0.3447
   72CHL1   H25 7800   5.075   5.446   8.814  0.6939  2.3585 -0.4184
   72CHL1   C26 7801   4.866   5.365   8.846  0.0701 -0.0225  0.2038
   72CHL1  H26A 7802   4.832   5.466   8.878 -2.5119 -0.1222 -1.8877
   72CHL1  H26B 7803   4.790   5.314   8.784 -1.1078  0.1463  1.4467
   72CHL1  H26C 7804   4.900   5.297   8.927  1.6473 -0.2282 -0.5882
   72CHL1   C27 7805   5.056   5.264   8.713  0.7985 -0.1805 -0.1679
   72CHL1  H27A 7806   5.125   5.277   8.627  2.4331 -0.1680  1.1018
   72CHL1  H27B 7807   5.107   5.214   8.797 -0.1877  1.1028  1.2497
   72CHL1  H27C 7808   4.977   5.193   8.680 -0.1950  0.2097  1.2588
   73CHL1    C3 7809   4.684   6.344   7.295 -0.4313 -0.3284 -0.2554
   73CHL1    H3 7810   4.611   6.269   7.333  1.3771 -2.2870 -0.4227
   73CHL1    O3 7811   4.665   6.355   7.156  0.6608 -0.2895 -0.1546
   73CHL1   H3' 7812   4.634   6.445   7.144 -0.9541 -0.4876  1.9110
   73CHL1    C4 7813   4.685   6.488   7.349  0.5112 -0.7486  0.1199
   73CHL1   H4A 7814   4.746   6.557   7.287  0.5624 -0.2873  0.6691
   73CHL1   H4B 7815   4.586   6.531   7.326  1.5914  1.6974 -0.2375
   73CHL1    C5 7816   4.728   6.494   7.494  0.3024 -0.2698  0.4394
   73CHL1    C6 7817   4.644   6.549   7.576  0.1659  0.0021  0.2103
   73CHL1    H6 7818   4.555   6.603   7.540 -0.2931 -0.0229  1.2739
   73CHL1    C7 7819   4.677   6.569   7.720  0.1345  0.0388  0.1717
   73CHL1   H7A 7820   4.671   6.678   7.742 -2.3736  0.1719 -0.8486
   73CHL1   H7B 7821   4.597   6.522   7.781 -1.0493  2.1748  0.3752
   73CHL1    C8 7822   4.818   6.527   7.766 -0.1113  0.5254  0.4202
   73CHL1    H8 7823   4.880   6.613   7.733  1.4834 -0.2614  1.2657
   73CHL1   C14 7824   4.824   6.523   7.913  0.0701 -0.0350  0.0211
   73CHL1   H14 7825   4.761   6.438   7.944 -0.4754  0.0374 -0.8536
   73CHL1   C15 7826   4.772   6.645   7.995 -0.0115  0.3116 -0.1270
   73CHL1  H15A 7827   4.795   6.742   7.946 -0.1665  0.2848 -0.2550
   73CHL1  H15B 7828   4.662   6.637   8.005  0.1210 -0.6332  0.7783
   73CHL1   C16 7829   4.844   6.612   8.129  0.2746  0.8521 -0.2083
   73CHL1  H16A 7830   4.891   6.702   8.174  1.2861  0.6539 -0.8389
   73CHL1  H16B 7831   4.763   6.570   8.193 -0.1291  0.5599 -0.9069
   73CHL1   C17 7832   4.943   6.489   8.116 -0.6538  0.7467  0.1184
   73CHL1   H17 7833   4.891   6.394   8.142  0.4775 -0.2548 -1.1571
   73CHL1   C13 7834   4.971   6.497   7.964 -0.1115  0.9086  0.0257
   73CHL1   C18 7835   5.070   6.610   7.929  0.1229  0.3388 -0.5252
   73CHL1  H18A 7836   5.047   6.659   7.832 -3.3134  2.3461  1.1141
   73CHL1  H18B 7837   5.057   6.696   7.998  0.6778  0.0142 -0.0096
   73CHL1  H18C 7838   5.177   6.586   7.947 -0.1365 -1.2904 -0.9546
   73CHL1   C12 7839   5.016   6.368   7.895  1.0111 -0.1207  0.8200
   73CHL1  H12A 7840   5.120   6.335   7.919  0.2598 -2.2976  1.3391
   73CHL1  H12B 7841   4.951   6.288   7.935  0.4237 -0.8200 -1.4000
   73CHL1   C11 7842   5.004   6.361   7.739  0.5851 -0.2810  0.5239
   73CHL1  H11A 7843   5.088   6.422   7.699  0.0495  0.1540  0.0560
   73CHL1  H11B 7844   5.026   6.257   7.708  1.1329  0.2611 -0.9892
   73CHL1    C9 7845   4.868   6.405   7.683 -0.6625  0.6389 -0.0026
   73CHL1    H9 7846   4.800   6.320   7.707  2.1246 -2.1606 -1.4004
   73CHL1   C10 7847   4.851   6.417   7.531  0.1958 -0.7581  0.0346
   73CHL1   C19 7848   4.973   6.501   7.478  0.1466  0.1024 -0.1114
   73CHL1  H19A 7849   4.951   6.534   7.375 -1.4808  1.1996  0.5453
   73CHL1  H19B 7850   5.009   6.576   7.552  1.3099 -3.5058  3.3708
   73CHL1  H19C 7851   5.055   6.430   7.457  0.9319  1.2207 -0.9075
   73CHL1    C1 7852   4.851   6.276   7.469  0.7582  0.6679 -0.5591
   73CHL1   H1A 7853   4.949   6.227   7.490  1.4660  1.9017 -0.8688
   73CHL1   H1B 7854   4.770   6.217   7.516 -0.2454 -0.0883 -3.0333
   73CHL1    C2 7855   4.820   6.278   7.320  0.4743  0.4595 -0.2437
   73CHL1   H2A 7856   4.830   6.173   7.285  3.8186  1.0030 -1.2911
   73CHL1   H2B 7857   4.903   6.329   7.266 -0.1225  1.2877 -0.3910
   73CHL1   C20 7858   5.059   6.512   8.218  0.1840  0.1477 -0.3907
   73CHL1   H20 7859   5.122   6.600   8.189  0.1627  0.2198 -0.2214
   73CHL1   C21 7860   5.159   6.393   8.205 -0.1847 -0.1958  0.6019
   73CHL1  H21A 7861   5.185   6.381   8.098 -0.1687 -0.5071  0.6381
   73CHL1  H21B 7862   5.106   6.297   8.226 -1.8725  0.6668  0.4197
   73CHL1  H21C 7863   5.244   6.416   8.274 -0.3001  1.7368  0.1401
   73CHL1   C22 7864   5.009   6.526   8.366  0.0191 -0.2690  0.1453
   73CHL1  H22A 7865   4.922   6.594   8.369  0.1910 -0.0555  0.3464
   73CHL1  H22B 7866   4.958   6.432   8.395 -3.0600  1.5934  1.1369
   73CHL1   C23 7867   5.117   6.574   8.460  0.0844  0.2225  0.9649
   73CHL1  H23A 7868   5.196   6.496   8.464 -0.4455 -0.4701 -1.1777
   73CHL1  H23B 7869   5.160   6.668   8.419  0.9483 -0.0455  1.2270
   73CHL1   C24 7870   5.081   6.595   8.605 -0.1552 -0.7558  0.2009
   73CHL1  H24A 7871   5.164   6.623   8.673  0.3542  1.7872 -1.3216
   73CHL1  H24B 7872   5.029   6.693   8.608  0.2959 -0.5315  1.5998
   73CHL1   C25 7873   4.992   6.476   8.663 -0.7104 -0.0071  0.1716
   73CHL1   H25 7874   4.904   6.469   8.596  0.7499  0.6510 -1.9285
   73CHL1   C26 7875   5.068   6.348   8.679  0.6453  1.2527  0.2758
   73CHL1  H26A 7876   5.167   6.362   8.729  0.3035  1.6682  0.8555
   73CHL1  H26B 7877   5.002   6.286   8.743  1.3762 -1.6711 -1.5720
   73CHL1  H26C 7878   5.086   6.284   8.590  1.7884 -0.2797  1.5199
   73CHL1   C27 7879   4.937   6.531   8.796  0.1494  0.1987 -0.4312
   73CHL1  H27A 7880   4.890   6.461   8.869 -0.4187  2.3000  1.3366
   73CHL1  H27B 7881   5.006   6.600   8.851 -0.8813  2.3979 -1.7966
   73CHL1  H27C 7882   4.853   6.596   8.763 -1.0559 -1.2735 -0.3564
   74CHL1    C3 7883   3.911   6.024   7.084 -0.0232 -0.6251 -0.1233
   74CHL1    H3 7884   3.802   6.042   7.091  0.6046  3.6754  3.2570
   74CHL1    O3 7885   3.954   6.017   6.947 -0.1060  0.4792 -0.2935
   74CHL1   H3' 7886   4.050   6.010   6.956 -0.3821 -1.0852  2.2863
   74CHL1    C4 7887   3.974   6.146   7.153 -0.1297  0.1236  0.0121
   74CHL1   H4A 7888   4.083   6.149   7.134 -0.4316 -1.5508 -2.4204
   74CHL1   H4B 7889   3.940   6.238   7.102 -0.0670  0.4504  0.5530
   74CHL1    C5 7890   3.957   6.148   7.303  0.2434  0.3165  1.1527
   74CHL1    C6 7891   3.913   6.264   7.356 -0.6064 -0.6874  0.0062
   74CHL1    H6 7892   3.898   6.351   7.290  0.4991  1.0820  1.9551
   74CHL1    C7 7893   3.891   6.275   7.504 -0.0121  0.1287 -0.1921
   74CHL1   H7A 7894   3.928   6.374   7.536 -1.8054  0.1908  1.9370
   74CHL1   H7B 7895   3.781   6.272   7.523  0.4664  0.4433  3.2788
   74CHL1    C8 7896   3.959   6.170   7.590  0.1549 -0.1400  0.2317
   74CHL1    H8 7897   4.070   6.179   7.588  0.3497 -1.9702 -1.9472
   74CHL1   C14 7898   3.912   6.180   7.736 -0.8877 -0.0861  0.3290
   74CHL1   H14 7899   3.808   6.144   7.720 -0.7594 -0.2067 -0.2619
   74CHL1   C15 7900   3.913   6.321   7.803 -0.1797 -0.1428 -1.0533
   74CHL1  H15A 7901   3.999   6.381   7.766 -1.1661  2.0309  0.0355
   74CHL1  H15B 7902   3.824   6.381   7.773 -1.3575 -1.9325 -1.2890
   74CHL1   C16 7903   3.920   6.279   7.958 -0.6283 -0.4766  0.1202
   74CHL1  H16A 7904   4.016   6.308   8.006 -0.7361 -1.3730  0.9136
   74CHL1  H16B 7905   3.839   6.330   8.015 -1.2339 -1.9401  0.6146
   74CHL1   C17 7906   3.905   6.125   7.953 -0.5506  0.2432 -0.0751
   74CHL1   H17 7907   3.797   6.106   7.939 -0.2078 -0.7368 -1.6238
   74CHL1   C13 7908   3.968   6.080   7.822 -0.3479 -0.1048 -0.9949
   74CHL1   C18 7909   4.126   6.103   7.834 -0.0087  0.6314 -0.2030
   74CHL1  H18A 7910   4.174   6.044   7.916  2.0517  1.0517 -1.0473
   74CHL1  H18B 7911   4.176   6.091   7.736 -0.6993 -2.5096 -0.2760
   74CHL1  H18C 7912   4.147   6.209   7.860  0.8091  0.2860  0.6188
   74CHL1   C12 7913   3.927   5.942   7.771 -0.3949 -0.1270 -0.6925
   74CHL1  H12A 7914   3.974   5.867   7.838  1.2018  3.1695  2.1641
   74CHL1  H12B 7915   3.816   5.947   7.781 -0.3222  3.7146 -0.4671
   74CHL1   C11 7916   3.971   5.918   7.626 -0.0528 -0.2920 -0.1729
   74CHL1  H11A 7917   4.081   5.903   7.631  0.2220  1.7521  1.5758
   74CHL1  H11B 7918   3.920   5.826   7.592 -1.8879  0.0076  1.5355
   74CHL1    C9 7919   3.929   6.033   7.529 -0.2138  0.1013  0.0588
   74CHL1    H9 7920   3.818   6.032   7.533 -0.1704 -0.3815  1.3038
   74CHL1   C10 7921   3.988   6.019   7.380  0.5481  0.5738 -0.2605
   74CHL1   C19 7922   4.137   5.997   7.380  0.1454  0.0976 -0.6407
   74CHL1  H19A 7923   4.168   5.999   7.273 -0.3136 -0.4136 -0.7842
   74CHL1  H19B 7924   4.181   6.078   7.442 -1.7668  0.1720  0.7108
   74CHL1  H19C 7925   4.169   5.900   7.423  0.4555  0.2679 -0.4824
   74CHL1    C1 7926   3.917   5.901   7.310 -0.9453  0.2154 -0.3383
   74CHL1   H1A 7927   3.954   5.811   7.364 -0.1484 -1.4611 -3.3828
   74CHL1   H1B 7928   3.807   5.915   7.312 -1.0101  0.0958 -1.6721
   74CHL1    C2 7929   3.952   5.892   7.157 -0.3832  0.5214 -0.4801
   74CHL1   H2A 7930   3.921   5.799   7.106  1.4732 -0.9762  0.9443
   74CHL1   H2B 7931   4.061   5.876   7.143 -0.5085 -0.6853 -0.1876
   74CHL1   C20 7932   3.961   6.063   8.089  0.2593 -0.4642 -0.7979
   74CHL1   H20 7933   4.071   6.075   8.095  0.1838 -0.2642  0.3681
   74CHL1   C21 7934   3.933   5.916   8.091 -0.4117  0.1607 -0.1757
   74CHL1  H21A 7935   3.834   5.887   8.050 -1.3224  0.8369  1.4489
   74CHL1  H21B 7936   3.933   5.886   8.198 -1.4073 -0.1054 -0.2389
   74CHL1  H21C 7937   4.017   5.864   8.039  1.3817 -0.9208  3.3881
   74CHL1   C22 7938   3.894   6.120   8.218 -0.1674 -0.6279  0.6061
   74CHL1  H22A 7939   3.941   6.087   8.314  0.9236  1.0266  0.6776
   74CHL1  H22B 7940   3.902   6.231   8.218 -0.1536 -0.6268  0.0558
   74CHL1   C23 7941   3.749   6.090   8.233  0.5291  0.9267  0.0556
   74CHL1  H23A 7942   3.696   6.120   8.140  0.5316  2.9462  0.6491
   74CHL1  H23B 7943   3.737   5.984   8.264  2.7474  0.3663 -0.8125
   74CHL1   C24 7944   3.700   6.165   8.360 -0.1851 -0.0510 -0.3636
   74CHL1  H24A 7945   3.750   6.131   8.453  0.1170 -1.4447 -1.0052
   74CHL1  H24B 7946   3.725   6.272   8.343  1.9522 -0.9043 -3.7003
   74CHL1   C25 7947   3.558   6.141   8.383  0.3409 -0.1123 -0.3345
   74CHL1   H25 7948   3.501   6.180   8.297  0.9892  1.1289 -0.2266
   74CHL1   C26 7949   3.527   5.996   8.409  0.2762 -0.7490  0.1419
   74CHL1  H26A 7950   3.422   5.987   8.443  0.1215  0.6064  0.0809
   74CHL1  H26B 7951   3.537   5.949   8.308  2.7592 -0.0201 -0.0182
   74CHL1  H26C 7952   3.598   5.949   8.481  0.1984  0.7946  1.2784
   74CHL1   C27 7953   3.515   6.219   8.510 -0.0926  0.0402  0.4791
   74CHL1  H27A 7954   3.468   6.318   8.490 -0.3789  0.4209  2.7546
   74CHL1  H27B 7955   3.436   6.160   8.561  0.0916  0.1075  0.8471
   74CHL1  H27C 7956   3.596   6.242   8.582  0.8652  2.0792 -1.1370
   75CHL1    C3 7957   5.937   0.363   6.799 -0.7973  0.1178 -0.2494
   75CHL1    H3 7958   5.857   0.290   6.824 -0.6207  0.1434  0.3825
   75CHL1    O3 7959   5.986   0.338   6.671  0.1244 -0.0947  0.1906
   75CHL1   H3' 7960   6.009   0.245   6.677  1.6133  0.2825  0.7044
   75CHL1    C4 7961   5.867   0.501   6.801 -0.3984 -0.3463 -0.3322
   75CHL1   H4A 7962   5.926   0.582   6.753 -0.1663 -0.4739 -0.2638
   75CHL1   H4B 7963   5.771   0.488   6.746 -1.5681 -1.7224  1.8790
   75CHL1    C5 7964   5.829   0.548   6.946  0.1500  0.3259  1.1378
   75CHL1    C6 7965   5.704   0.585   6.974 -0.5064 -0.9878  0.5158
   75CHL1    H6 7966   5.630   0.595   6.893 -1.0729 -1.0260  1.0180
   75CHL1    C7 7967   5.664   0.644   7.107 -0.1985 -0.4893  0.0228
   75CHL1   H7A 7968   5.609   0.738   7.084 -0.9390 -1.4168 -2.3089
   75CHL1   H7B 7969   5.601   0.568   7.157 -0.9390  0.2774  0.2825
   75CHL1    C8 7970   5.783   0.679   7.208  0.2325  0.0746  0.1654
   75CHL1    H8 7971   5.831   0.772   7.169 -0.8681  2.7459  4.4940
   75CHL1   C14 7972   5.753   0.703   7.348  0.0830  0.5551 -0.6770
   75CHL1   H14 7973   5.706   0.608   7.382 -0.7842  1.8348  1.9332
   75CHL1   C15 7974   5.648   0.805   7.393 -0.0491  0.1035  0.9495
   75CHL1  H15A 7975   5.652   0.895   7.327 -0.7090  0.3298  1.2147
   75CHL1  H15B 7976   5.551   0.752   7.395  1.3145 -2.5742  0.6892
   75CHL1   C16 7977   5.679   0.840   7.540 -0.5782  0.3120 -0.5488
   75CHL1  H16A 7978   5.701   0.949   7.544 -1.9988  0.6635 -1.4811
   75CHL1  H16B 7979   5.597   0.836   7.615 -2.1272  1.4646 -2.0702
   75CHL1   C17 7980   5.805   0.759   7.577 -0.0965 -0.2248  0.1357
   75CHL1   H17 7981   5.769   0.672   7.635  2.4421 -1.2666  0.2584
   75CHL1   C13 7982   5.870   0.720   7.444  0.6433  0.0473 -0.1172
   75CHL1   C18 7983   5.959   0.836   7.401 -0.0711  0.2026 -0.5687
   75CHL1  H18A 7984   6.052   0.843   7.461 -0.6714  0.4377  0.3574
   75CHL1  H18B 7985   5.995   0.821   7.298 -0.7818 -0.6044 -0.7127
   75CHL1  H18C 7986   5.912   0.936   7.414  0.7146  0.4219  0.7922
   75CHL1   C12 7987   5.948   0.586   7.448 -0.2916 -0.2780 -0.3093
   75CHL1  H12A 7988   6.033   0.587   7.519  0.5312 -1.2126 -1.2368
   75CHL1  H12B 7989   5.888   0.509   7.500  0.9010 -1.0140  0.0071
   75CHL1   C11 7990   5.998   0.562   7.305 -0.2292  0.8095 -0.1121
   75CHL1  H11A 7991   6.080   0.633   7.282  0.6880 -0.3546 -0.5754
   75CHL1  H11B 7992   6.047   0.463   7.299 -1.3556  0.2464 -0.2966
   75CHL1    C9 7993   5.888   0.561   7.197  0.0971 -0.1296 -0.1271
   75CHL1    H9 7994   5.832   0.467   7.215  0.4843 -0.8000 -2.1890
   75CHL1   C10 7995   5.943   0.539   7.051  0.5879 -0.7812  0.3631
   75CHL1   C19 7996   6.058   0.645   7.019  0.0363 -0.2564  0.7872
   75CHL1  H19A 7997   6.136   0.625   7.096  1.0397 -0.7083 -0.3075
   75CHL1  H19B 7998   6.107   0.625   6.921 -0.5476 -0.3344  0.5092
   75CHL1  H19C 7999   6.022   0.750   7.022  1.4620  0.3150 -0.6579
   75CHL1    C1 8000   6.003   0.392   7.036  0.1479  0.3064  0.0914
   75CHL1   H1A 8001   6.080   0.381   7.114  0.8137  1.3889 -0.3948
   75CHL1   H1B 8002   5.928   0.314   7.062  1.7726 -2.2378 -2.2287
   75CHL1    C2 8003   6.057   0.360   6.898  0.4861  0.1351 -0.2835
   75CHL1   H2A 8004   6.098   0.257   6.909 -1.8229 -0.7977  0.2476
   75CHL1   H2B 8005   6.146   0.422   6.875 -0.2463  1.1917 -0.3388
   75CHL1   C20 8006   5.883   0.839   7.685 -0.1717  0.5102 -0.2098
   75CHL1   H20 8007   5.936   0.927   7.642 -2.0605  1.7399 -0.1489
   75CHL1   C21 8008   5.988   0.737   7.734 -0.5379  0.0672  0.2641
   75CHL1  H21A 8009   5.931   0.648   7.769  0.6736 -0.4330  1.0405
   75CHL1  H21B 8010   6.056   0.767   7.817  1.7172  1.0711 -1.8414
   75CHL1  H21C 8011   6.063   0.714   7.655 -1.4827 -3.3856  0.2141
   75CHL1   C22 8012   5.798   0.887   7.805  0.0860  0.9510 -0.2178
   75CHL1  H22A 8013   5.724   0.962   7.769 -0.4084  0.1511 -0.9367
   75CHL1  H22B 8014   5.746   0.802   7.854  1.3375 -0.0992 -0.6684
   75CHL1   C23 8015   5.876   0.968   7.911  0.7022 -0.2014 -0.2942
   75CHL1  H23A 8016   5.931   0.905   7.984  0.1734 -1.6107 -1.0901
   75CHL1  H23B 8017   5.954   1.026   7.857  1.2005 -1.2692 -0.7286
   75CHL1   C24 8018   5.780   1.058   7.987 -0.1177  0.1969 -0.5584
   75CHL1  H24A 8019   5.730   1.141   7.932  0.7194  1.0939  0.0125
   75CHL1  H24B 8020   5.694   0.995   8.020 -1.0991  0.6737 -2.0697
   75CHL1   C25 8021   5.829   1.117   8.119  0.2409 -0.7365 -0.0089
   75CHL1   H25 8022   5.873   1.033   8.177  0.4163  0.1299  1.1485
   75CHL1   C26 8023   5.943   1.215   8.090 -0.9688  0.9908 -0.3929
   75CHL1  H26A 8024   5.920   1.300   8.022 -1.8807 -0.0584 -1.4603
   75CHL1  H26B 8025   5.993   1.237   8.186  2.3736 -2.4643 -1.1193
   75CHL1  H26C 8026   6.026   1.167   8.034 -2.1217 -1.1290 -0.3945
   75CHL1   C27 8027   5.722   1.196   8.200  0.8107 -0.1001 -0.3795
   75CHL1  H27A 8028   5.692   1.292   8.153  0.2546  0.3967  0.9419
   75CHL1  H27B 8029   5.627   1.138   8.198  0.6342  0.1484  0.2816
   75CHL1  H27C 8030   5.761   1.210   8.303 -1.6566 -1.2895  0.8127
   76CHL1    C3 8031   3.707   3.085   7.433 -1.0534 -0.1063  0.6233
   76CHL1    H3 8032   3.700   3.184   7.482 -0.2277 -0.0947  0.7427
   76CHL1    O3 8033   3.753   3.097   7.296  0.8477  0.0850 -0.0129
   76CHL1   H3' 8034   3.816   3.030   7.270  0.7379  1.1622 -3.6120
   76CHL1    C4 8035   3.812   3.006   7.520  0.3008 -0.3713  0.6026
   76CHL1   H4A 8036   3.832   2.911   7.466  1.3279  0.9627 -1.5012
   76CHL1   H4B 8037   3.904   3.068   7.516  1.6848 -2.2136  2.0945
   76CHL1    C5 8038   3.766   2.970   7.659 -0.8159 -0.3863 -0.0490
   76CHL1    C6 8039   3.840   3.012   7.760  0.5569 -0.0230 -0.2688
   76CHL1    H6 8040   3.937   3.058   7.735 -0.1884  3.0885  1.9287
   76CHL1    C7 8041   3.804   2.977   7.900 -0.1979  0.0949  0.0659
   76CHL1   H7A 8042   3.890   2.931   7.953  0.8238  2.4794  0.6079
   76CHL1   H7B 8043   3.771   3.071   7.948  1.3343  1.0522 -0.6545
   76CHL1    C8 8044   3.688   2.877   7.923  0.2930 -0.4749  0.2611
   76CHL1    H8 8045   3.709   2.772   7.894  0.5416 -0.9619  2.0940
   76CHL1   C14 8046   3.633   2.885   8.064  0.0559  0.0741  0.4736
   76CHL1   H14 8047   3.605   2.990   8.085 -2.6019 -0.8383  1.8427
   76CHL1   C15 8048   3.723   2.844   8.180 -0.0745  0.0208 -1.0441
   76CHL1  H15A 8049   3.759   2.744   8.147 -1.1149 -0.7966  0.1956
   76CHL1  H15B 8050   3.817   2.901   8.195 -1.0853  2.3930 -2.9686
   76CHL1   C16 8051   3.631   2.828   8.301  0.0660 -0.3280  0.3557
   76CHL1  H16A 8052   3.646   2.739   8.366 -1.5648 -0.0476  1.1679
   76CHL1  H16B 8053   3.634   2.918   8.366  1.5059 -0.6758  0.8221
   76CHL1   C17 8054   3.485   2.821   8.239  1.2366  0.6839 -0.0786
   76CHL1   H17 8055   3.442   2.923   8.234 -1.0083 -0.1865  0.1074
   76CHL1   C13 8056   3.508   2.795   8.092 -0.5001  0.8554  0.7676
   76CHL1   C18 8057   3.525   2.641   8.073 -0.1836  0.6145 -0.3577
   76CHL1  H18A 8058   3.552   2.609   7.970 -0.4445 -4.2620  0.8251
   76CHL1  H18B 8059   3.600   2.591   8.138 -1.4692  0.0840  0.7523
   76CHL1  H18C 8060   3.426   2.593   8.075 -0.2449  0.6969 -1.1914
   76CHL1   C12 8061   3.410   2.844   7.990  0.0538 -0.1284 -0.9592
   76CHL1  H12A 8062   3.318   2.786   8.012 -0.4551  0.2736 -1.9562
   76CHL1  H12B 8063   3.385   2.948   8.019  0.5648  0.0255 -1.0600
   76CHL1   C11 8064   3.450   2.834   7.845  0.5815 -0.3254 -0.5892
   76CHL1  H11A 8065   3.465   2.726   7.823 -1.0378 -0.3971 -1.5055
   76CHL1  H11B 8066   3.365   2.873   7.784  0.8250  1.7887  0.3536
   76CHL1    C9 8067   3.580   2.917   7.820  0.0141  0.0931 -0.2843
   76CHL1    H9 8068   3.558   3.022   7.848  2.2908  0.4501  0.3208
   76CHL1   C10 8069   3.625   2.906   7.669  0.2101 -0.4856  0.8424
   76CHL1   C19 8070   3.629   2.761   7.612 -0.0445  1.4538  0.0776
   76CHL1  H19A 8071   3.700   2.742   7.529  0.6742  0.9902  0.7829
   76CHL1  H19B 8072   3.686   2.693   7.679  0.7782 -0.5957 -2.5210
   76CHL1  H19C 8073   3.529   2.716   7.595 -0.0735  0.8845  1.5691
   76CHL1    C1 8074   3.522   2.986   7.580 -0.1838 -0.0613 -0.9860
   76CHL1   H1A 8075   3.422   2.937   7.583 -0.6073  0.8262  0.3885
   76CHL1   H1B 8076   3.498   3.085   7.625  1.4126  0.3237 -0.9339
   76CHL1    C2 8077   3.578   3.012   7.440  0.3623  0.0638  0.0342
   76CHL1   H2A 8078   3.506   3.069   7.378 -1.8295 -2.5153  0.0355
   76CHL1   H2B 8079   3.576   2.913   7.391 -0.0989 -1.2176  2.4625
   76CHL1   C20 8080   3.385   2.732   8.325  0.8171 -0.0987 -0.6958
   76CHL1   H20 8081   3.424   2.628   8.327  0.6978 -0.1899  2.2942
   76CHL1   C21 8082   3.241   2.721   8.268 -0.6408  0.3182  0.2458
   76CHL1  H21A 8083   3.172   2.663   8.333  1.0641 -0.7210  1.2003
   76CHL1  H21B 8084   3.249   2.661   8.175 -0.5977 -0.3567  0.6753
   76CHL1  H21C 8085   3.206   2.823   8.241 -0.3012  0.7855  1.5041
   76CHL1   C22 8086   3.379   2.788   8.476  0.4937  0.5064 -0.1400
   76CHL1  H22A 8087   3.479   2.808   8.521  0.9617 -1.8992  0.0278
   76CHL1  H22B 8088   3.328   2.885   8.461 -0.3293  0.2966  1.1637
   76CHL1   C23 8089   3.297   2.694   8.562  0.1001  0.5948  0.0241
   76CHL1  H23A 8090   3.189   2.716   8.551  0.5852  2.2815 -2.0910
   76CHL1  H23B 8091   3.316   2.593   8.519  2.8670  1.4005 -0.7980
   76CHL1   C24 8092   3.351   2.696   8.705  0.1536 -1.4222 -1.0919
   76CHL1  H24A 8093   3.459   2.674   8.694  0.4461 -0.6195 -0.0304
   76CHL1  H24B 8094   3.355   2.799   8.747  2.9285 -0.9180 -2.3474
   76CHL1   C25 8095   3.283   2.608   8.811  0.3053  0.4213 -1.0717
   76CHL1   H25 8096   3.291   2.501   8.785  0.6484  0.0562  0.4737
   76CHL1   C26 8097   3.354   2.642   8.942  0.5760  0.5630 -0.0883
   76CHL1  H26A 8098   3.324   2.741   8.983 -4.4997 -0.0144 -1.7301
   76CHL1  H26B 8099   3.321   2.562   9.012 -0.1251  0.8272 -0.1115
   76CHL1  H26C 8100   3.465   2.633   8.938  0.6615  1.4181  0.1797
   76CHL1   C27 8101   3.135   2.652   8.831  0.0355 -0.0234 -0.2976
   76CHL1  H27A 8102   3.081   2.635   8.735  0.8070 -3.4774 -0.2466
   76CHL1  H27B 8103   3.104   2.603   8.926  1.5482  1.3372  0.9458
   76CHL1  H27C 8104   3.122   2.760   8.850  1.2685  0.0009  0.5299
   77CHL1    C3 8105   4.053   1.739   7.053  0.3572 -0.5193  0.0228
   77CHL1    H3 8106   4.129   1.804   7.101 -0.5108  1.5293 -1.2646
   77CHL1    O3 8107   4.084   1.723   6.910  0.2663  0.7110 -0.0782
   77CHL1   H3' 8108   4.030   1.656   6.868  2.5582 -0.2781 -1.6406
   77CHL1    C4 8109   4.047   1.600   7.125 -0.1610 -0.0588 -0.1966
   77CHL1   H4A 8110   3.971   1.536   7.076 -0.7487 -0.3044  0.9910
   77CHL1   H4B 8111   4.148   1.554   7.114  1.3918  2.6881  1.3985
   77CHL1    C5 8112   4.001   1.623   7.266 -1.0654  0.2775  0.1739
   77CHL1    C6 8113   4.087   1.582   7.360 -0.1695 -0.8048 -0.2268
   77CHL1    H6 8114   4.188   1.547   7.334 -0.3497 -0.3209 -1.6558
   77CHL1    C7 8115   4.045   1.578   7.509 -0.6139  0.1053  0.1528
   77CHL1   H7A 8116   4.073   1.482   7.555  1.6167  0.1013 -1.0835
   77CHL1   H7B 8117   4.113   1.650   7.559 -0.8210  0.3824  0.0441
   77CHL1    C8 8118   3.902   1.619   7.543 -0.2165 -0.6226  0.4786
   77CHL1    H8 8119   3.846   1.526   7.521 -0.3678 -0.7651  1.4313
   77CHL1   C14 8120   3.899   1.662   7.687 -0.3578 -0.0313 -0.1431
   77CHL1   H14 8121   3.970   1.747   7.694 -0.5053  0.0612  0.2533
   77CHL1   C15 8122   3.939   1.562   7.798 -0.3570 -0.4150  0.2907
   77CHL1  H15A 8123   3.905   1.460   7.772 -0.5091 -0.0685 -0.9518
   77CHL1  H15B 8124   4.049   1.565   7.811 -0.4748 -1.0496  1.5070
   77CHL1   C16 8125   3.880   1.613   7.932  0.6835  0.0779 -0.2348
   77CHL1  H16A 8126   3.816   1.532   7.974  1.7680 -0.8516 -0.3445
   77CHL1  H16B 8127   3.955   1.649   8.006 -0.0001  0.2713  0.3868
   77CHL1   C17 8128   3.793   1.740   7.877  0.3216 -0.7951  0.0085
   77CHL1   H17 8129   3.847   1.836   7.866 -2.1793  0.4660 -2.5945
   77CHL1   C13 8130   3.766   1.710   7.726  0.1321 -0.5879 -0.2852
   77CHL1   C18 8131   3.658   1.598   7.717 -0.2259 -0.0443 -0.0674
   77CHL1  H18A 8132   3.695   1.503   7.760 -1.9083 -0.2072  1.1188
   77CHL1  H18B 8133   3.560   1.630   7.759 -1.4300 -0.8852 -2.0594
   77CHL1  H18C 8134   3.629   1.570   7.613 -0.9551 -0.0058  0.1200
   77CHL1   C12 8135   3.726   1.828   7.647 -0.5590 -0.5331  0.3122
   77CHL1  H12A 8136   3.628   1.875   7.667  0.4677  2.3909 -0.8878
   77CHL1  H12B 8137   3.805   1.906   7.650  0.1066 -1.1849  0.2558
   77CHL1   C11 8138   3.723   1.788   7.493 -0.9831 -0.3110  0.1683
   77CHL1  H11A 8139   3.649   1.706   7.483 -2.4514  0.9206  0.5863
   77CHL1  H11B 8140   3.685   1.876   7.436  1.3788  0.5832 -0.1873
   77CHL1    C9 8141   3.863   1.727   7.445  0.7457  0.0882  0.2021
   77CHL1    H9 8142   3.941   1.806   7.457 -0.3380  1.0747  0.9706
   77CHL1   C10 8143   3.866   1.690   7.297  0.5022 -0.2234  0.0502
   77CHL1   C19 8144   3.740   1.605   7.251 -0.6728 -1.0085 -0.9548
   77CHL1  H19A 8145   3.750   1.569   7.146  0.7191  1.8392 -1.9027
   77CHL1  H19B 8146   3.720   1.515   7.313 -2.9151 -1.1657 -1.8244
   77CHL1  H19C 8147   3.650   1.670   7.247  0.3191  0.3918 -1.7128
   77CHL1    C1 8148   3.872   1.822   7.215 -0.2200  0.1156 -0.1062
   77CHL1   H1A 8149   3.766   1.855   7.222 -0.8129 -1.4391 -1.1925
   77CHL1   H1B 8150   3.934   1.903   7.259 -1.6669  0.6366  1.0521
   77CHL1    C2 8151   3.920   1.813   7.065  0.6009  0.5767 -0.1758
   77CHL1   H2A 8152   3.923   1.915   7.022 -0.7208  1.4224  1.6268
   77CHL1   H2B 8153   3.841   1.770   7.001  0.8990 -0.7533  0.3029
   77CHL1   C20 8154   3.679   1.776   7.975 -0.0550 -0.2273  0.1550
   77CHL1   H20 8155   3.593   1.706   7.974 -0.7524  0.5140  2.3633
   77CHL1   C21 8156   3.623   1.921   7.936 -1.1484  0.5611  0.5941
   77CHL1  H21A 8157   3.709   1.980   7.896  0.5954 -3.1229 -1.6841
   77CHL1  H21B 8158   3.567   1.972   8.016 -0.8227  2.2242 -0.1911
   77CHL1  H21C 8159   3.553   1.904   7.851 -1.3193 -1.1695  1.0387
   77CHL1   C22 8160   3.716   1.781   8.128 -0.2535  0.3247  0.1038
   77CHL1  H22A 8161   3.770   1.695   8.174  0.9061  1.1248  0.2943
   77CHL1  H22B 8162   3.782   1.868   8.150 -0.5028  1.2153 -2.3501
   77CHL1   C23 8163   3.591   1.790   8.213  1.0027 -0.2035  0.0578
   77CHL1  H23A 8164   3.543   1.890   8.200  2.0688  0.6549  2.2560
   77CHL1  H23B 8165   3.522   1.709   8.179 -0.4118  0.4988  1.1361
   77CHL1   C24 8166   3.613   1.768   8.361 -0.8195  0.0773  0.2251
   77CHL1  H24A 8167   3.665   1.671   8.379  0.8205  0.9321  0.2966
   77CHL1  H24B 8168   3.683   1.848   8.392  0.1269 -0.4844 -0.4232
   77CHL1   C25 8169   3.481   1.778   8.440  0.2398  1.1612 -0.2680
   77CHL1   H25 8170   3.430   1.874   8.420  0.0355  0.8307 -1.4048
   77CHL1   C26 8171   3.372   1.667   8.421 -1.0972  0.3316 -0.1998
   77CHL1  H26A 8172   3.285   1.701   8.482 -0.8549 -0.1838  0.4413
   77CHL1  H26B 8173   3.341   1.656   8.315 -0.1405 -0.4080 -0.4176
   77CHL1  H26C 8174   3.397   1.566   8.460 -1.1461  0.5189  0.3272
   77CHL1   C27 8175   3.513   1.797   8.592  0.1495  0.5535  0.1295
   77CHL1  H27A 8176   3.585   1.876   8.621 -0.4703  0.8845  0.8086
   77CHL1  H27B 8177   3.419   1.805   8.650 -0.6541 -1.0503 -0.8699
   77CHL1  H27C 8178   3.555   1.700   8.629 -2.1277 -1.0524 -1.2729
   78CHL1    C3 8179   0.321   3.443   6.931 -0.3706  0.3165 -0.3095
   78CHL1    H3 8180   0.251   3.527   6.911  1.8556  2.3466  0.1298
   78CHL1    O3 8181   0.351   3.389   6.803 -0.4726  0.3973  0.0525
   78CHL1   H3' 8182   0.430   3.334   6.811  0.4884  1.6623 -0.4378
   78CHL1    C4 8183   0.450   3.489   7.002  0.2650  0.3833 -0.2400
   78CHL1   H4A 8184   0.532   3.414   7.001  0.0571  0.1328  0.7912
   78CHL1   H4B 8185   0.485   3.578   6.945  0.7189  1.8114  2.1449
   78CHL1    C5 8186   0.429   3.533   7.151  0.1053 -0.0489  0.0844
   78CHL1    C6 8187   0.467   3.653   7.195 -0.5681 -0.8742  0.4961
   78CHL1    H6 8188   0.528   3.711   7.123 -1.8587 -0.7130 -0.4928
   78CHL1    C7 8189   0.447   3.693   7.340 -0.0653 -0.4330  0.3480
   78CHL1   H7A 8190   0.538   3.740   7.382 -0.1443 -0.3001  0.3722
   78CHL1   H7B 8191   0.363   3.766   7.352  0.7263  0.3543  1.2446
   78CHL1    C8 8192   0.409   3.572   7.434 -0.1151  0.1903  1.0098
   78CHL1    H8 8193   0.497   3.504   7.438  0.5204  0.6335 -2.2731
   78CHL1   C14 8194   0.370   3.616   7.573  0.4696 -0.4058 -0.1873
   78CHL1   H14 8195   0.279   3.679   7.567  0.0527 -0.9017  0.7630
   78CHL1   C15 8196   0.476   3.700   7.646  0.4641  0.1430  0.7226
   78CHL1  H15A 8197   0.571   3.654   7.611 -0.3867  0.9596 -3.2104
   78CHL1  H15B 8198   0.481   3.807   7.616  0.3510 -0.1547 -0.4366
   78CHL1   C16 8199   0.451   3.686   7.798  0.1198 -0.2140  0.1092
   78CHL1  H16A 8200   0.545   3.659   7.852  0.0182 -0.4928  0.1480
   78CHL1  H16B 8201   0.413   3.784   7.833  0.9540  0.0147  0.4072
   78CHL1   C17 8202   0.338   3.581   7.811  0.1782 -0.0096  0.2713
   78CHL1   H17 8203   0.245   3.642   7.808 -0.1417 -0.4409  1.0707
   78CHL1   C13 8204   0.337   3.505   7.674 -0.1287 -0.4217  0.4910
   78CHL1   C18 8205   0.458   3.407   7.670 -0.0069 -0.3823  0.5963
   78CHL1  H18A 8206   0.553   3.459   7.691 -1.6732  2.1071  2.4976
   78CHL1  H18B 8207   0.455   3.336   7.755  3.0018  0.6043  1.6428
   78CHL1  H18C 8208   0.452   3.354   7.572  0.6507  1.1388 -0.2957
   78CHL1   C12 8209   0.216   3.434   7.620  0.5422 -0.4668  0.1308
   78CHL1  H12A 8210   0.202   3.344   7.684  0.4112 -0.0092  0.7565
   78CHL1  H12B 8211   0.133   3.507   7.619  0.4929 -0.5188 -1.0199
   78CHL1   C11 8212   0.240   3.382   7.475 -0.3030 -0.1613  0.0612
   78CHL1  H11A 8213   0.302   3.290   7.474  0.1239  0.1241  0.1331
   78CHL1  H11B 8214   0.141   3.349   7.437 -1.3954  2.3417  0.5583
   78CHL1    C9 8215   0.299   3.486   7.371  0.1546  1.3542  0.0893
   78CHL1    H9 8216   0.214   3.555   7.355 -0.7015  0.7639  1.8948
   78CHL1   C10 8217   0.343   3.426   7.231 -0.0588  0.0062 -0.4490
   78CHL1   C19 8218   0.439   3.306   7.256  0.8328 -0.7825  0.5946
   78CHL1  H19A 8219   0.534   3.340   7.301  2.2039 -5.2071  1.4610
   78CHL1  H19B 8220   0.397   3.224   7.319 -1.7710 -0.3732 -0.4503
   78CHL1  H19C 8221   0.455   3.258   7.157 -0.5622  0.7326 -0.4206
   78CHL1    C1 8222   0.220   3.369   7.153 -0.2339 -0.3803  0.0856
   78CHL1   H1A 8223   0.172   3.282   7.203 -2.7220  0.1956 -1.1329
   78CHL1   H1B 8224   0.157   3.459   7.141  0.9631  0.3375 -0.9702
   78CHL1    C2 8225   0.247   3.333   7.006  0.2548 -1.3083  0.4739
   78CHL1   H2A 8226   0.153   3.299   6.956 -0.6512  0.2884  1.0245
   78CHL1   H2B 8227   0.313   3.244   7.005  0.2025 -1.3466  0.4231
   78CHL1   C20 8228   0.338   3.505   7.940 -0.2509  0.2299  0.6964
   78CHL1   H20 8229   0.434   3.449   7.939  0.2910  0.8427 -3.6921
   78CHL1   C21 8230   0.218   3.398   7.935 -0.1917 -0.5259  0.0551
   78CHL1  H21A 8231   0.120   3.435   7.897 -0.3385  0.1784  1.0823
   78CHL1  H21B 8232   0.202   3.366   8.040  1.6659  1.2237  0.9455
   78CHL1  H21C 8233   0.243   3.307   7.876 -1.7272  0.0985 -1.6619
   78CHL1   C22 8234   0.337   3.598   8.069  0.5979 -0.1598  0.2364
   78CHL1  H22A 8235   0.394   3.693   8.057  0.0153  0.2167  0.4212
   78CHL1  H22B 8236   0.234   3.633   8.093  0.9091 -0.3605  1.9606
   78CHL1   C23 8237   0.380   3.533   8.197 -0.2579  0.0488  0.0831
   78CHL1  H23A 8238   0.336   3.434   8.221 -0.0543  0.3273  1.7400
   78CHL1  H23B 8239   0.486   3.502   8.192  0.0321  1.2182 -2.2540
   78CHL1   C24 8240   0.363   3.626   8.320 -0.4226  0.4165 -0.0829
   78CHL1  H24A 8241   0.432   3.712   8.306  0.2699 -0.2065 -0.6164
   78CHL1  H24B 8242   0.254   3.644   8.331 -0.4151 -0.8858  3.4708
   78CHL1   C25 8243   0.407   3.561   8.456  0.3841  0.4526 -0.2022
   78CHL1   H25 8244   0.360   3.460   8.463  0.4139  0.4620  0.1897
   78CHL1   C26 8245   0.555   3.545   8.466 -0.9018  0.0757  0.1995
   78CHL1  H26A 8246   0.605   3.481   8.390 -1.2906 -0.5455  0.4642
   78CHL1  H26B 8247   0.601   3.643   8.439 -1.2614  0.6160  1.4972
   78CHL1  H26C 8248   0.590   3.520   8.568  0.7718  0.7559 -0.1713
   78CHL1   C27 8249   0.353   3.642   8.581  0.1516  0.5754 -0.3443
   78CHL1  H27A 8250   0.403   3.622   8.678 -0.1992  1.6558  0.0658
   78CHL1  H27B 8251   0.356   3.751   8.558 -2.1251  0.5864 -0.8141
   78CHL1  H27C 8252   0.244   3.622   8.588  0.4155 -1.4029 -1.0820
   79CHL1    C3 8253   4.193   2.199   7.403  0.6646  0.3863 -0.1916
   79CHL1    H3 8254   4.302   2.185   7.389  0.4261 -1.3532 -0.5038
   79CHL1    O3 8255   4.127   2.246   7.289  0.0247 -0.1976  0.2453
   79CHL1   H3' 8256   4.174   2.324   7.258 -0.3503  0.1788  0.6078
   79CHL1    C4 8257   4.142   2.049   7.420 -0.6210 -0.0309 -0.0962
   79CHL1   H4A 8258   4.031   2.049   7.414 -0.6780 -1.6830  0.4676
   79CHL1   H4B 8259   4.173   2.000   7.325 -0.5441  0.8787 -0.5510
   79CHL1    C5 8260   4.201   1.976   7.537 -0.1432 -0.6615 -0.6883
   79CHL1    C6 8261   4.284   1.874   7.518 -0.6455 -0.3886 -0.5412
   79CHL1    H6 8262   4.303   1.827   7.420 -4.2767 -0.0511 -1.5713
   79CHL1    C7 8263   4.366   1.819   7.637 -0.2706 -0.8242  0.6265
   79CHL1   H7A 8264   4.373   1.709   7.639  0.0895 -0.7872  2.0559
   79CHL1   H7B 8265   4.466   1.867   7.642 -0.8766  0.3331  2.4648
   79CHL1    C8 8266   4.299   1.858   7.780 -0.3312  1.3928 -0.0833
   79CHL1    H8 8267   4.210   1.795   7.797  0.0389  1.3136  1.7224
   79CHL1   C14 8268   4.401   1.826   7.889 -0.1554  0.7023  0.4270
   79CHL1   H14 8269   4.490   1.887   7.860 -1.1364  1.8878 -0.1657
   79CHL1   C15 8270   4.460   1.685   7.893 -0.6801  0.4812 -0.9413
   79CHL1  H15A 8271   4.384   1.604   7.892  0.6973 -0.9676  1.8624
   79CHL1  H15B 8272   4.542   1.671   7.820  0.2286  0.1865  0.1215
   79CHL1   C16 8273   4.547   1.683   8.023  0.4776 -0.3133 -0.0589
   79CHL1  H16A 8274   4.553   1.587   8.078  2.6049  0.7430  1.7097
   79CHL1  H16B 8275   4.651   1.716   7.999  0.8460  0.5088  2.3695
   79CHL1   C17 8276   4.487   1.800   8.103  0.0801  0.4756  0.3273
   79CHL1   H17 8277   4.558   1.885   8.091 -1.2439  1.5575 -0.1525
   79CHL1   C13 8278   4.357   1.857   8.033 -0.0035  0.5373  0.6105
   79CHL1   C18 8279   4.230   1.772   8.064 -0.0225  0.1070  0.6308
   79CHL1  H18A 8280   4.145   1.799   7.997 -2.0959 -0.1738  2.9596
   79CHL1  H18B 8281   4.246   1.663   8.059  0.8304  0.2817 -2.8630
   79CHL1  H18C 8282   4.199   1.803   8.166 -1.4030 -3.0451  1.2881
   79CHL1   C12 8283   4.320   2.012   8.040 -0.5998 -0.3017 -0.4342
   79CHL1  H12A 8284   4.280   2.029   8.142  0.1844 -0.1040 -0.1497
   79CHL1  H12B 8285   4.417   2.066   8.034 -1.2296  0.8933 -0.1124
   79CHL1   C11 8286   4.230   2.055   7.922  0.4356 -0.0359 -0.0324
   79CHL1  H11A 8287   4.133   2.011   7.953  0.8621  0.6024  2.4211
   79CHL1  H11B 8288   4.235   2.166   7.924  0.1786  0.0928 -2.9120
   79CHL1    C9 8289   4.273   2.008   7.786  0.5578 -0.2291 -0.1351
   79CHL1    H9 8290   4.372   2.053   7.761 -0.0289  1.0607 -0.2569
   79CHL1   C10 8291   4.179   2.056   7.672  0.9176  0.2537  0.2632
   79CHL1   C19 8292   4.032   2.046   7.703 -0.6074 -0.1136  0.4485
   79CHL1  H19A 8293   4.002   2.125   7.775 -1.1039 -0.8376  1.0488
   79CHL1  H19B 8294   3.964   2.051   7.615 -0.2339 -1.8197  0.0196
   79CHL1  H19C 8295   4.002   1.950   7.751 -1.9833 -0.8960 -1.8029
   79CHL1    C1 8296   4.212   2.206   7.653 -0.9009 -0.1911 -0.5653
   79CHL1   H1A 8297   4.180   2.264   7.743 -2.2147 -1.3630 -0.2501
   79CHL1   H1B 8298   4.322   2.213   7.644 -0.9173  0.0532 -0.5949
   79CHL1    C2 8299   4.166   2.282   7.522 -0.3665  1.0752  0.5794
   79CHL1   H2A 8300   4.223   2.376   7.527 -1.4805  1.7403  1.4577
   79CHL1   H2B 8301   4.059   2.310   7.536 -0.1139  1.9511  0.8057
   79CHL1   C20 8302   4.481   1.780   8.254  0.0658 -0.3545 -0.3898
   79CHL1   H20 8303   4.391   1.839   8.282  0.3063 -0.4216  0.5448
   79CHL1   C21 8304   4.603   1.848   8.322  0.1769  0.2254 -0.1316
   79CHL1  H21A 8305   4.690   1.820   8.258 -0.6122 -0.5913 -0.8587
   79CHL1  H21B 8306   4.608   1.819   8.429 -0.9214 -1.2542 -0.4524
   79CHL1  H21C 8307   4.591   1.958   8.314 -3.1995  0.0783  1.3614
   79CHL1   C22 8308   4.452   1.632   8.309  0.2361  0.3408 -0.8465
   79CHL1  H22A 8309   4.374   1.582   8.248  0.6512  0.8503 -1.8178
   79CHL1  H22B 8310   4.535   1.562   8.288  0.6295  0.3068  0.6822
   79CHL1   C23 8311   4.415   1.632   8.456  1.1040 -0.0209  0.7717
   79CHL1  H23A 8312   4.495   1.677   8.519  2.3883  0.0302 -0.8534
   79CHL1  H23B 8313   4.319   1.688   8.462  1.7750  1.0341  2.8562
   79CHL1   C24 8314   4.394   1.498   8.515 -0.2405  0.5940 -1.3017
   79CHL1  H24A 8315   4.307   1.440   8.477  0.9418 -1.6383 -0.7969
   79CHL1  H24B 8316   4.476   1.431   8.478  0.2836 -0.8276  2.0770
   79CHL1   C25 8317   4.385   1.487   8.672 -0.0180 -0.0089  0.0172
   79CHL1   H25 8318   4.479   1.526   8.717  0.3785 -1.7069  0.7591
   79CHL1   C26 8319   4.268   1.559   8.734  0.2541 -0.1105  0.4773
   79CHL1  H26A 8320   4.270   1.667   8.710 -2.3885 -0.6441 -2.9543
   79CHL1  H26B 8321   4.166   1.537   8.697  0.8548 -1.3032 -0.5669
   79CHL1  H26C 8322   4.264   1.566   8.845  0.0050 -0.2156  0.4747
   79CHL1   C27 8323   4.384   1.334   8.712 -0.2769 -0.3218  0.7269
   79CHL1  H27A 8324   4.301   1.272   8.672 -1.2432  2.0925 -1.2827
   79CHL1  H27B 8325   4.475   1.288   8.668  1.2578  1.2476  2.1307
   79CHL1  H27C 8326   4.385   1.330   8.823 -1.3473  0.8746  0.8011
   80CHL1    C3 8327   1.957   0.434   7.226  0.1286 -0.0399  0.6916
   80CHL1    H3 8328   1.856   0.467   7.192 -0.1875 -1.0670  0.5831
   80CHL1    O3 8329   2.040   0.416   7.117  0.2469 -0.0607 -0.0107
   80CHL1   H3' 8330   2.031   0.495   7.064 -3.1975 -0.8341 -0.8224
   80CHL1    C4 8331   2.021   0.538   7.330  0.3007  0.6651 -0.6681
   80CHL1   H4A 8332   2.127   0.511   7.353  0.0127  0.4456  0.4806
   80CHL1   H4B 8333   2.024   0.636   7.278  2.3152  1.3285  0.5648
   80CHL1    C5 8334   1.929   0.537   7.450 -0.7133  0.3196 -0.3933
   80CHL1    C6 8335   1.874   0.649   7.503  0.7052 -0.0543  0.4368
   80CHL1    H6 8336   1.874   0.743   7.446 -1.0350  0.3428  1.0347
   80CHL1    C7 8337   1.811   0.661   7.629 -0.5696 -0.4346  0.2044
   80CHL1   H7A 8338   1.844   0.757   7.676 -0.8554 -0.1539 -0.1610
   80CHL1   H7B 8339   1.700   0.664   7.628 -0.5980  2.2852  1.5766
   80CHL1    C8 8340   1.852   0.545   7.727 -0.0427 -1.2435 -0.2240
   80CHL1    H8 8341   1.959   0.562   7.754 -0.2123  0.2001 -0.3567
   80CHL1   C14 8342   1.761   0.559   7.849 -0.2173  1.1033  0.4549
   80CHL1   H14 8343   1.658   0.538   7.812 -0.7382 -0.1678  2.4586
   80CHL1   C15 8344   1.766   0.690   7.932 -0.4654 -0.2536  0.0842
   80CHL1  H15A 8345   1.873   0.719   7.945  0.1833 -2.0776 -0.7993
   80CHL1  H15B 8346   1.712   0.771   7.878 -1.1550  1.0359  2.5633
   80CHL1   C16 8347   1.701   0.646   8.066  0.5104  0.1265  0.8417
   80CHL1  H16A 8348   1.769   0.665   8.152  0.8423 -0.9696  0.8301
   80CHL1  H16B 8349   1.602   0.696   8.080  0.7123  0.0420  2.9687
   80CHL1   C17 8350   1.689   0.496   8.063 -0.2316  0.2962 -0.2686
   80CHL1   H17 8351   1.588   0.470   8.024 -1.1771 -0.8413  2.6451
   80CHL1   C13 8352   1.788   0.446   7.950 -0.2394  0.0599 -0.5137
   80CHL1   C18 8353   1.929   0.442   8.026 -0.2352 -0.0239  0.5743
   80CHL1  H18A 8354   2.013   0.410   7.960  0.1808  1.4183  0.3673
   80CHL1  H18B 8355   1.950   0.538   8.078 -0.6819  0.1143  0.5038
   80CHL1  H18C 8356   1.931   0.369   8.110  1.9567  0.5249  1.0637
   80CHL1   C12 8357   1.753   0.309   7.880  0.1911 -0.6858 -0.3521
   80CHL1  H12A 8358   1.783   0.222   7.943  0.6639 -0.3718 -0.1309
   80CHL1  H12B 8359   1.646   0.313   7.851  0.1683  0.0238 -0.1857
   80CHL1   C11 8360   1.848   0.291   7.756  1.1230 -0.4821  0.2222
   80CHL1  H11A 8361   1.949   0.297   7.803  2.0794  1.6779 -1.9194
   80CHL1  H11B 8362   1.825   0.194   7.706 -1.7052 -0.0659  0.5443
   80CHL1    C9 8363   1.837   0.410   7.658 -0.3612  0.4123 -0.0662
   80CHL1    H9 8364   1.731   0.423   7.626 -0.1139  3.6043  0.0504
   80CHL1   C10 8365   1.923   0.401   7.527  0.5133 -0.3225  0.6871
   80CHL1   C19 8366   2.064   0.353   7.561 -0.5288 -0.2111  0.1387
   80CHL1  H19A 8367   2.143   0.337   7.484 -0.3408 -2.7210  0.7820
   80CHL1  H19B 8368   2.102   0.422   7.639 -2.5048  0.2468  0.7633
   80CHL1  H19C 8369   2.060   0.253   7.609 -1.3936  0.0565  0.6458
   80CHL1    C1 8370   1.861   0.303   7.423  0.2105 -0.0373 -0.3420
   80CHL1   H1A 8371   1.846   0.200   7.462  2.9223 -0.6223 -0.6671
   80CHL1   H1B 8372   1.755   0.332   7.403 -0.9577 -1.1685  3.4599
   80CHL1    C2 8373   1.933   0.292   7.289 -0.4748 -0.4312 -0.3902
   80CHL1   H2A 8374   1.891   0.222   7.213  0.9920 -0.5475 -1.1341
   80CHL1   H2B 8375   2.030   0.242   7.311 -0.6511 -1.3778 -1.6395
   80CHL1   C20 8376   1.695   0.429   8.206 -0.0401 -0.1263 -0.2519
   80CHL1   H20 8377   1.800   0.415   8.241 -0.0249  0.1071 -0.1991
   80CHL1   C21 8378   1.614   0.304   8.201 -0.0610  1.0615  0.8337
   80CHL1  H21A 8379   1.506   0.331   8.196 -0.1884  0.4619  0.2180
   80CHL1  H21B 8380   1.645   0.236   8.283  2.9435  1.2408 -0.0224
   80CHL1  H21C 8381   1.627   0.247   8.106 -2.0387  1.6237  0.1673
   80CHL1   C22 8382   1.636   0.515   8.319 -0.9607  0.4673 -0.1943
   80CHL1  H22A 8383   1.680   0.617   8.321 -0.6186  0.3054  1.1375
   80CHL1  H22B 8384   1.529   0.534   8.297 -1.1483  0.9272  1.0381
   80CHL1   C23 8385   1.639   0.456   8.458  0.2960  0.1456 -0.1158
   80CHL1  H23A 8386   1.605   0.351   8.450  3.2178 -0.8011 -1.2806
   80CHL1  H23B 8387   1.742   0.457   8.500 -0.6276 -0.1318  2.3683
   80CHL1   C24 8388   1.543   0.525   8.558  0.2715  0.1147 -0.5135
   80CHL1  H24A 8389   1.586   0.627   8.562  0.2429  0.2904 -3.0422
   80CHL1  H24B 8390   1.439   0.528   8.519  0.1365 -1.0343 -0.2882
   80CHL1   C25 8391   1.534   0.461   8.702  0.2325 -0.4424 -0.5491
   80CHL1   H25 8392   1.633   0.464   8.751 -0.4385  0.5372  0.7952
   80CHL1   C26 8393   1.453   0.556   8.794 -0.0558  0.0584  0.1547
   80CHL1  H26A 8394   1.479   0.661   8.768  1.4613 -0.7414 -1.7911
   80CHL1  H26B 8395   1.352   0.537   8.754 -0.6683  1.2203  1.0776
   80CHL1  H26C 8396   1.462   0.530   8.902 -1.4011  0.9260  0.4967
   80CHL1   C27 8397   1.473   0.322   8.715  0.4950 -0.1218  0.0041
   80CHL1  H27A 8398   1.513   0.247   8.642  0.1694  1.7177 -2.1753
   80CHL1  H27B 8399   1.471   0.273   8.814 -0.4353 -3.2244 -1.4125
   80CHL1  H27C 8400   1.366   0.333   8.689  0.5963 -0.9249 -0.8135
   81CHL1    C3 8401   5.375   1.185   7.128 -0.9471  0.0156  0.1989
   81CHL1    H3 8402   5.434   1.276   7.152  0.5196 -1.0411  0.7944
   81CHL1    O3 8403   5.393   1.145   6.995  0.1588 -0.6238  1.3041
   81CHL1   H3' 8404   5.386   1.049   6.987  0.7424 -0.5228 -2.7128
   81CHL1    C4 8405   5.421   1.073   7.230 -0.1513  1.0443  0.3813
   81CHL1   H4A 8406   5.358   0.986   7.201 -0.6330  1.8360 -1.0423
   81CHL1   H4B 8407   5.526   1.052   7.201 -1.0078 -2.0572 -0.9202
   81CHL1    C5 8408   5.399   1.114   7.370 -0.3981 -0.5503  0.2658
   81CHL1    C6 8409   5.499   1.129   7.455 -0.1427 -0.7246 -0.3421
   81CHL1    H6 8410   5.601   1.112   7.417  0.7735  2.0163  0.6371
   81CHL1    C7 8411   5.492   1.173   7.598 -0.3068  0.6562  0.2456
   81CHL1   H7A 8412   5.558   1.109   7.661  0.2689  0.1877 -0.8129
   81CHL1   H7B 8413   5.527   1.278   7.595 -0.0899  0.5807 -3.0346
   81CHL1    C8 8414   5.346   1.167   7.649 -0.1481  0.1089 -0.8418
   81CHL1    H8 8415   5.336   1.060   7.679  0.2277 -0.0264 -1.1882
   81CHL1   C14 8416   5.333   1.247   7.778  0.2001 -0.2430  0.1243
   81CHL1   H14 8417   5.355   1.351   7.744  1.7459 -0.1915  1.1517
   81CHL1   C15 8418   5.431   1.231   7.897  0.1472  0.1971 -0.0491
   81CHL1  H15A 8419   5.461   1.131   7.936  1.0063  1.5265  3.0174
   81CHL1  H15B 8420   5.523   1.289   7.877  0.8804 -0.8671  0.1344
   81CHL1   C16 8421   5.366   1.309   8.013 -0.2558  0.1456 -0.2071
   81CHL1  H16A 8422   5.386   1.264   8.113  0.7285  1.7381  0.3448
   81CHL1  H16B 8423   5.405   1.412   8.021 -2.8982  1.4199 -2.2928
   81CHL1   C17 8424   5.214   1.328   7.973 -0.6112 -0.1172 -0.1603
   81CHL1   H17 8425   5.189   1.430   7.938  1.7220  1.0054  1.2411
   81CHL1   C13 8426   5.194   1.242   7.845 -0.7879 -0.2320 -0.0584
   81CHL1   C18 8427   5.168   1.095   7.882  0.5798 -0.3102 -0.7122
   81CHL1  H18A 8428   5.228   1.054   7.967  0.1160 -0.1672 -0.3088
   81CHL1  H18B 8429   5.064   1.097   7.920  0.9491  1.4318  0.3455
   81CHL1  H18C 8430   5.162   1.023   7.798 -2.1320 -0.3104 -0.5935
   81CHL1   C12 8431   5.093   1.294   7.740 -0.1232  0.2638 -0.1472
   81CHL1  H12A 8432   4.994   1.280   7.788  0.3630  0.6757  0.9986
   81CHL1  H12B 8433   5.111   1.400   7.712 -0.6381  0.9446  1.9256
   81CHL1   C11 8434   5.094   1.213   7.611  0.2360 -0.3132 -0.4324
   81CHL1  H11A 8435   5.066   1.107   7.628 -1.7514 -0.0578 -1.7899
   81CHL1  H11B 8436   5.028   1.263   7.537 -0.3223  1.5762  1.2501
   81CHL1    C9 8437   5.240   1.207   7.548  0.6245 -1.0166 -0.3984
   81CHL1    H9 8438   5.264   1.315   7.534  0.5842 -1.0409 -0.6578
   81CHL1   C10 8439   5.255   1.143   7.405  0.5972 -0.2754  0.3986
   81CHL1   C19 8440   5.167   1.017   7.403  0.5482  0.0153  0.5222
   81CHL1  H19A 8441   5.059   1.033   7.421  0.0329 -3.9322  1.7480
   81CHL1  H19B 8442   5.174   0.968   7.304 -1.7575 -0.3729  0.5180
   81CHL1  H19C 8443   5.190   0.938   7.478  0.9699  0.1745  0.5699
   81CHL1    C1 8444   5.197   1.248   7.301 -0.7130 -0.1102 -0.0457
   81CHL1   H1A 8445   5.090   1.259   7.330 -0.1446  0.6821  1.8729
   81CHL1   H1B 8446   5.237   1.348   7.329 -0.1357  0.2902 -2.1548
   81CHL1    C2 8447   5.227   1.210   7.152  0.3938  0.4216 -0.0308
   81CHL1   H2A 8448   5.187   1.295   7.092 -0.1582  0.7560  0.7854
   81CHL1   H2B 8449   5.169   1.119   7.125 -0.0743  0.5625  0.4789
   81CHL1   C20 8450   5.126   1.309   8.095  0.0253  0.7105 -0.1571
   81CHL1   H20 8451   5.132   1.206   8.136  0.5006  0.7009 -0.2537
   81CHL1   C21 8452   4.983   1.336   8.067 -0.0822 -0.1330  0.7610
   81CHL1  H21A 8453   4.920   1.331   8.158  2.4005  0.9747  2.6584
   81CHL1  H21B 8454   4.939   1.264   7.995 -1.0438  0.5350  0.6531
   81CHL1  H21C 8455   4.974   1.439   8.025  0.2409 -0.2682  0.3570
   81CHL1   C22 8456   5.184   1.392   8.221 -0.2420  0.2696  0.1431
   81CHL1  H22A 8457   5.270   1.454   8.189  0.3368 -0.4512  0.2625
   81CHL1  H22B 8458   5.106   1.461   8.259 -1.0195 -1.6714  2.3291
   81CHL1   C23 8459   5.220   1.298   8.344  0.1701 -0.2195  0.5118
   81CHL1  H23A 8460   5.135   1.235   8.377 -0.7229 -0.5478 -2.1927
   81CHL1  H23B 8461   5.300   1.234   8.300  2.5232  1.6572  1.7758
   81CHL1   C24 8462   5.272   1.361   8.473 -0.0119  0.0279  0.6414
   81CHL1  H24A 8463   5.348   1.430   8.432  0.6892 -0.9612  0.2203
   81CHL1  H24B 8464   5.180   1.400   8.521  0.3841 -1.1105  2.4445
   81CHL1   C25 8465   5.343   1.262   8.572  1.2224 -0.1445 -0.2742
   81CHL1   H25 8466   5.425   1.212   8.516  1.0572  0.8450 -1.4358
   81CHL1   C26 8467   5.392   1.340   8.695  0.6823  0.3918 -0.2176
   81CHL1  H26A 8468   5.439   1.436   8.664 -0.2888  0.6176 -1.0254
   81CHL1  H26B 8469   5.311   1.367   8.766  1.2314 -0.9636  0.9638
   81CHL1  H26C 8470   5.462   1.272   8.748  0.9501  2.0121  1.6190
   81CHL1   C27 8471   5.239   1.160   8.617  0.7072  0.4873 -0.7490
   81CHL1  H27A 8472   5.263   1.119   8.718 -0.9686  1.7493  0.2136
   81CHL1  H27B 8473   5.147   1.219   8.636  0.2785 -0.3953  0.0248
   81CHL1  H27C 8474   5.222   1.089   8.533  0.3789  0.3331 -0.5545
   82CHL1    C3 8475   3.523   6.194   7.206 -0.2235 -1.0164  0.1478
   82CHL1    H3 8476   3.621   6.157   7.245  0.7271  0.2647 -0.9402
   82CHL1    O3 8477   3.499   6.147   7.080 -0.0476  0.1612 -0.2627
   82CHL1   H3' 8478   3.472   6.220   7.024 -0.7710 -1.3907 -2.0047
   82CHL1    C4 8479   3.415   6.149   7.309  0.0358  0.4358  0.3825
   82CHL1   H4A 8480   3.323   6.185   7.257 -0.6935  0.0340  1.3846
   82CHL1   H4B 8481   3.402   6.040   7.297 -0.6722  0.6136 -0.6636
   82CHL1    C5 8482   3.443   6.211   7.447  0.6785  0.3640  0.2603
   82CHL1    C6 8483   3.460   6.126   7.551  0.5619 -0.3450 -0.8545
   82CHL1    H6 8484   3.457   6.018   7.531  1.8854 -0.2768 -1.5499
   82CHL1    C7 8485   3.476   6.176   7.696  0.6239  0.2285  0.3194
   82CHL1   H7A 8486   3.412   6.112   7.760  2.3175 -1.3253  0.5452
   82CHL1   H7B 8487   3.580   6.149   7.727  0.3946 -0.1024  0.8006
   82CHL1    C8 8488   3.452   6.328   7.700 -0.8261 -0.3524 -0.4508
   82CHL1    H8 8489   3.343   6.347   7.693 -0.7639  0.2381  0.1107
   82CHL1   C14 8490   3.520   6.372   7.833  0.3050  0.0859  0.3129
   82CHL1   H14 8491   3.629   6.357   7.817  0.9496  2.0271  2.3855
   82CHL1   C15 8492   3.477   6.297   7.966  0.1055  0.1682 -0.0838
   82CHL1  H15A 8493   3.371   6.267   7.954 -0.0158  0.6552 -0.2245
   82CHL1  H15B 8494   3.534   6.205   7.993 -0.8092 -0.7479 -1.1764
   82CHL1   C16 8495   3.515   6.390   8.076  0.0295 -1.0472 -1.4013
   82CHL1  H16A 8496   3.425   6.393   8.141  1.4356 -1.1211  0.6490
   82CHL1  H16B 8497   3.592   6.348   8.144  0.7090 -0.1699 -1.6142
   82CHL1   C17 8498   3.562   6.521   8.014  0.4570 -0.3356  1.1281
   82CHL1   H17 8499   3.668   6.509   7.984  0.4795 -0.0321  1.0784
   82CHL1   C13 8500   3.499   6.514   7.865 -0.4060  0.2636 -0.4597
   82CHL1   C18 8501   3.349   6.539   7.882  0.7332  0.3019  0.5406
   82CHL1  H18A 8502   3.310   6.478   7.966  1.9933  2.0083  2.4710
   82CHL1  H18B 8503   3.342   6.647   7.907  1.0117  0.3860  0.2572
   82CHL1  H18C 8504   3.294   6.527   7.786  1.3939  1.8842 -0.0735
   82CHL1   C12 8505   3.566   6.595   7.753  0.4430 -0.1542 -0.3857
   82CHL1  H12A 8506   3.566   6.706   7.760  1.9256 -0.2384  2.3660
   82CHL1  H12B 8507   3.676   6.578   7.750  0.1864 -2.0624 -0.0014
   82CHL1   C11 8508   3.503   6.558   7.616 -0.1847 -0.1485 -0.0403
   82CHL1  H11A 8509   3.400   6.600   7.615 -0.0825  0.4775  3.4788
   82CHL1  H11B 8510   3.571   6.600   7.538  0.2860  0.2762  0.5965
   82CHL1    C9 8511   3.513   6.406   7.584 -0.3707  0.7626  0.4151
   82CHL1    H9 8512   3.621   6.381   7.581 -0.6376 -0.3878 -0.0824
   82CHL1   C10 8513   3.456   6.363   7.447  0.0075  0.2406  0.1730
   82CHL1   C19 8514   3.318   6.421   7.422  0.1639 -0.2385  0.3044
   82CHL1  H19A 8515   3.261   6.375   7.339  0.7933 -2.4801  1.0392
   82CHL1  H19B 8516   3.250   6.416   7.510 -2.2775  2.5435 -1.2695
   82CHL1  H19C 8517   3.333   6.526   7.390  1.1346 -0.9281 -1.6835
   82CHL1    C1 8518   3.556   6.409   7.336  0.2103  0.8836  0.3618
   82CHL1   H1A 8519   3.544   6.519   7.330  1.8035  1.0813  0.4614
   82CHL1   H1B 8520   3.662   6.382   7.355  0.1893 -0.3305 -1.0111
   82CHL1    C2 8521   3.535   6.348   7.192  0.4016 -0.1838 -0.3010
   82CHL1   H2A 8522   3.614   6.375   7.119 -0.6423  3.2151 -0.3274
   82CHL1   H2B 8523   3.438   6.374   7.144 -0.7756 -3.5433  0.0247
   82CHL1   C20 8524   3.544   6.649   8.097 -0.5019 -0.5173 -1.2026
   82CHL1   H20 8525   3.437   6.677   8.094 -0.2230  0.6721 -0.7549
   82CHL1   C21 8526   3.637   6.762   8.038  0.8787  0.1607  0.5109
   82CHL1  H21A 8527   3.647   6.855   8.099 -1.7285  0.1082  1.1740
   82CHL1  H21B 8528   3.587   6.786   7.941 -0.9566  0.3457  1.4671
   82CHL1  H21C 8529   3.739   6.725   8.017  1.6042  1.3187  1.8366
   82CHL1   C22 8530   3.575   6.633   8.251  0.2216  0.4196  0.2734
   82CHL1  H22A 8531   3.543   6.729   8.297 -0.8089  0.1516  0.1486
   82CHL1  H22B 8532   3.501   6.559   8.289 -1.7854  0.5543 -2.9122
   82CHL1   C23 8533   3.726   6.603   8.286 -0.1541  0.1046  0.5099
   82CHL1  H23A 8534   3.780   6.526   8.226 -1.0204 -0.2251  0.1283
   82CHL1  H23B 8535   3.791   6.690   8.262  1.6080 -1.4203 -0.5561
   82CHL1   C24 8536   3.735   6.555   8.435 -0.2673 -0.4024  0.3536
   82CHL1  H24A 8537   3.717   6.636   8.510 -1.1580 -0.5671  0.3199
   82CHL1  H24B 8538   3.660   6.475   8.451 -0.6287 -0.2662 -0.6007
   82CHL1   C25 8539   3.867   6.497   8.480 -0.6063 -0.6816 -0.6852
   82CHL1   H25 8540   3.902   6.422   8.406 -1.0830 -1.1172 -0.4794
   82CHL1   C26 8541   3.987   6.609   8.493 -0.1783 -0.5305 -0.3882
   82CHL1  H26A 8542   3.973   6.681   8.576 -0.7069 -3.5276  2.3555
   82CHL1  H26B 8543   4.084   6.555   8.508  0.1453  0.5609  1.9284
   82CHL1  H26C 8544   4.002   6.659   8.395  3.7432  1.7416  1.1234
   82CHL1   C27 8545   3.848   6.423   8.615 -0.1772 -0.2841 -0.1314
   82CHL1  H27A 8546   3.792   6.328   8.604 -1.7704  0.4553  1.0742
   82CHL1  H27B 8547   3.944   6.412   8.670  0.3770  0.9929 -0.8095
   82CHL1  H27C 8548   3.796   6.497   8.681  1.1833  0.4093  0.1953
   83CHL1    C3 8549   3.416   1.807   7.046 -0.2017 -0.8877  0.3704
   83CHL1    H3 8550   3.522   1.795   7.079 -0.3266 -0.0673  1.0929
   83CHL1    O3 8551   3.385   1.754   6.918 -0.2898 -0.6151 -0.1960
   83CHL1   H3' 8552   3.404   1.660   6.927 -2.7903 -1.4578 -2.3964
   83CHL1    C4 8553   3.326   1.739   7.161 -0.3305  0.7740 -0.1230
   83CHL1   H4A 8554   3.221   1.744   7.124 -0.8243  1.5393  1.3239
   83CHL1   H4B 8555   3.359   1.634   7.176  2.5929  1.8319  1.7305
   83CHL1    C5 8556   3.327   1.807   7.291  0.1669  0.2027 -0.9138
   83CHL1    C6 8557   3.348   1.743   7.409 -0.3033 -0.0028 -0.4970
   83CHL1    H6 8558   3.375   1.638   7.394  1.2614  0.6758 -3.1881
   83CHL1    C7 8559   3.338   1.801   7.549 -0.4160 -1.0532  0.1034
   83CHL1   H7A 8560   3.281   1.741   7.623 -2.0003  0.9077  0.5712
   83CHL1   H7B 8561   3.443   1.818   7.581 -1.1219  2.6044  0.9013
   83CHL1    C8 8562   3.270   1.940   7.536  0.3805  0.2469  0.7574
   83CHL1    H8 8563   3.161   1.921   7.524  0.4552  1.0570 -1.8304
   83CHL1   C14 8564   3.285   2.004   7.677 -0.0199  0.5253  0.9536
   83CHL1   H14 8565   3.393   2.011   7.702 -0.2680 -0.2405  2.3238
   83CHL1   C15 8566   3.232   1.924   7.798  0.7767 -0.6657 -0.2559
   83CHL1  H15A 8567   3.131   1.881   7.783 -0.3282  1.5231  0.5749
   83CHL1  H15B 8568   3.295   1.840   7.836 -1.0293 -1.2025  1.7263
   83CHL1   C16 8569   3.233   2.037   7.901  1.1639  0.6022 -1.1169
   83CHL1  H16A 8570   3.134   2.016   7.944  1.9756 -0.3589  0.3415
   83CHL1  H16B 8571   3.307   2.017   7.981 -0.5564 -0.2171  0.3353
   83CHL1   C17 8572   3.250   2.173   7.831 -0.3644 -0.1668 -0.2876
   83CHL1   H17 8573   3.359   2.194   7.836 -0.2698 -0.7640  0.1522
   83CHL1   C13 8574   3.232   2.144   7.681  0.0483 -0.7999 -0.1349
   83CHL1   C18 8575   3.078   2.151   7.649  0.3643  0.8747  0.4919
   83CHL1  H18A 8576   3.060   2.117   7.545  1.2406 -0.3983  0.7199
   83CHL1  H18B 8577   3.030   2.073   7.713  1.0498  0.2773  0.2958
   83CHL1  H18C 8578   3.037   2.253   7.664 -0.4313  0.6678 -0.2262
   83CHL1   C12 8579   3.315   2.232   7.589 -0.2303  0.5219 -0.0847
   83CHL1  H12A 8580   3.268   2.333   7.584 -1.3320  0.0205 -0.1901
   83CHL1  H12B 8581   3.424   2.242   7.608  0.2464 -0.6960 -1.9649
   83CHL1   C11 8582   3.305   2.183   7.443 -0.1873 -0.2725  0.2517
   83CHL1  H11A 8583   3.202   2.211   7.413  0.4180  1.5208 -0.2669
   83CHL1  H11B 8584   3.366   2.247   7.375  0.8228  0.7057  1.9937
   83CHL1    C9 8585   3.333   2.021   7.428 -0.2105  0.3384 -0.1201
   83CHL1    H9 8586   3.440   2.000   7.448 -0.4971 -2.9894 -1.4087
   83CHL1   C10 8587   3.306   1.959   7.292  0.3694 -0.2678  0.6001
   83CHL1   C19 8588   3.163   1.995   7.251  0.6918 -0.2160 -0.3324
   83CHL1  H19A 8589   3.099   1.950   7.331  1.0051  1.9583  1.2491
   83CHL1  H19B 8590   3.141   2.103   7.239  3.1896  0.4660  0.6703
   83CHL1  H19C 8591   3.134   1.949   7.154 -0.2365  1.9519 -1.1492
   83CHL1    C1 8592   3.394   2.025   7.178 -0.0062 -0.0377  0.0209
   83CHL1   H1A 8593   3.375   2.134   7.169  3.1254  0.6187  0.3702
   83CHL1   H1B 8594   3.496   2.022   7.222 -0.1302  3.2015  0.7754
   83CHL1    C2 8595   3.390   1.953   7.038  0.4005  0.3054 -1.0720
   83CHL1   H2A 8596   3.460   2.007   6.970  0.8533  1.2913  0.1323
   83CHL1   H2B 8597   3.286   1.975   7.005 -0.1693  1.3133  1.1730
   83CHL1   C20 8598   3.183   2.293   7.902  0.8087 -0.6196  0.5391
   83CHL1   H20 8599   3.088   2.312   7.848  0.3339 -0.6696  1.3503
   83CHL1   C21 8600   3.280   2.415   7.861 -0.7256 -0.1250  0.1086
   83CHL1  H21A 8601   3.241   2.508   7.906  3.1954  1.0658  1.4062
   83CHL1  H21B 8602   3.283   2.431   7.751  2.0477  1.2226  0.2832
   83CHL1  H21C 8603   3.383   2.404   7.903 -0.6158  0.9842  0.1598
   83CHL1   C22 8604   3.169   2.280   8.052 -0.0191  0.5352  0.2042
   83CHL1  H22A 8605   3.109   2.364   8.094 -0.4198  0.5969 -0.4776
   83CHL1  H22B 8606   3.111   2.189   8.078  0.3603  0.6299  1.4419
   83CHL1   C23 8607   3.302   2.272   8.129 -0.4789 -0.3070 -0.2548
   83CHL1  H23A 8608   3.370   2.201   8.076 -1.5397 -0.9374 -0.8146
   83CHL1  H23B 8609   3.360   2.366   8.116  0.1837 -0.9766 -3.0271
   83CHL1   C24 8610   3.278   2.238   8.275 -0.1292  0.7946  0.5965
   83CHL1  H24A 8611   3.197   2.301   8.316 -1.1932 -1.5901  2.4200
   83CHL1  H24B 8612   3.237   2.135   8.287  1.0337  0.3607  0.9647
   83CHL1   C25 8613   3.405   2.265   8.368 -0.2557 -0.0951  0.5696
   83CHL1   H25 8614   3.443   2.367   8.350 -2.5234  1.3461  3.2666
   83CHL1   C26 8615   3.369   2.270   8.523 -0.0850 -0.9514  0.5720
   83CHL1  H26A 8616   3.334   2.172   8.561 -0.3535 -0.4398  1.6888
   83CHL1  H26B 8617   3.462   2.306   8.572  0.7581  0.3570 -1.8371
   83CHL1  H26C 8618   3.301   2.354   8.547  0.5190 -0.3485  0.1968
   83CHL1   C27 8619   3.508   2.152   8.350 -0.4995  0.5035 -0.5408
   83CHL1  H27A 8620   3.518   2.102   8.251 -1.3428 -0.4295 -0.1674
   83CHL1  H27B 8621   3.608   2.181   8.390 -0.7876 -0.1123  0.6698
   83CHL1  H27C 8622   3.481   2.069   8.418 -1.7540  2.1219  1.0173
   84CHL1    C3 8623   1.818   4.349   7.027  0.5409  0.9942  0.4074
   84CHL1    H3 8624   1.716   4.341   7.069  0.1999  2.8946  0.0466
   84CHL1    O3 8625   1.800   4.363   6.889  0.1262 -0.4203  0.2415
   84CHL1   H3' 8626   1.884   4.338   6.851  0.2697 -0.2928  0.4711
   84CHL1    C4 8627   1.893   4.466   7.091  0.5635  0.7729  0.0294
   84CHL1   H4A 8628   1.993   4.483   7.047  0.4240 -0.3507 -0.7601
   84CHL1   H4B 8629   1.834   4.558   7.068  0.9346  1.6379  2.2859
   84CHL1    C5 8630   1.897   4.449   7.245  0.0595 -0.3552  0.1211
   84CHL1    C6 8631   1.849   4.544   7.324 -0.4207  0.1891  0.2240
   84CHL1    H6 8632   1.814   4.638   7.279 -1.3375  1.2944  3.0659
   84CHL1    C7 8633   1.839   4.537   7.472  0.3702 -0.3241 -0.2549
   84CHL1   H7A 8634   1.858   4.638   7.515  2.0323 -1.3803  1.6999
   84CHL1   H7B 8635   1.741   4.500   7.510 -0.3377  1.3215 -0.3726
   84CHL1    C8 8636   1.963   4.450   7.509  0.3271 -0.2313 -0.1650
   84CHL1    H8 8637   2.062   4.493   7.482 -0.2367  0.8720 -0.5466
   84CHL1   C14 8638   1.953   4.433   7.665 -0.3387  0.0306 -0.2076
   84CHL1   H14 8639   1.860   4.375   7.684 -0.6610  1.0770  1.6592
   84CHL1   C15 8640   1.954   4.564   7.749 -0.2664 -0.7767 -0.3428
   84CHL1  H15A 8641   2.019   4.644   7.706  1.3634 -1.8783 -0.0237
   84CHL1  H15B 8642   1.854   4.611   7.760  0.6902  1.3354 -0.1218
   84CHL1   C16 8643   2.009   4.524   7.892  0.5331 -0.2030  0.8981
   84CHL1  H16A 8644   2.110   4.566   7.913  0.3331  0.4725  0.5518
   84CHL1  H16B 8645   1.941   4.537   7.978 -0.6249 -1.6461  0.2497
   84CHL1   C17 8646   2.040   4.367   7.881  0.4482  0.0054 -0.8736
   84CHL1   H17 8647   1.941   4.323   7.905 -0.5090  1.9028 -1.1167
   84CHL1   C13 8648   2.064   4.346   7.724  0.2448  0.1299  0.0225
   84CHL1   C18 8649   2.201   4.419   7.695  0.6069  0.3369  0.9766
   84CHL1  H18A 8650   2.222   4.414   7.586  1.4683 -1.2335  1.1843
   84CHL1  H18B 8651   2.204   4.523   7.732 -1.6427 -0.3216  3.3083
   84CHL1  H18C 8652   2.277   4.356   7.747  0.1532 -1.0746  0.0192
   84CHL1   C12 8653   2.048   4.200   7.664 -0.1467  0.4441 -0.8288
   84CHL1  H12A 8654   2.142   4.146   7.691 -0.6384  1.7880  4.6470
   84CHL1  H12B 8655   1.962   4.141   7.702 -0.4744  1.9820  0.9264
   84CHL1   C11 8656   2.044   4.210   7.512 -0.1263  1.2402 -1.3788
   84CHL1  H11A 8657   2.150   4.219   7.479 -0.0156  1.5897 -0.9405
   84CHL1  H11B 8658   2.015   4.105   7.489  0.2627  0.4704  1.3692
   84CHL1    C9 8659   1.953   4.309   7.444  0.9365 -0.6516 -0.3616
   84CHL1    H9 8660   1.850   4.273   7.465  0.8242 -0.5629 -0.7591
   84CHL1   C10 8661   1.961   4.322   7.293 -0.1727  1.0079  0.0438
   84CHL1   C19 8662   2.108   4.331   7.257 -0.1924 -0.5286 -0.5637
   84CHL1  H19A 8663   2.152   4.420   7.305 -3.3686  1.3085 -0.7693
   84CHL1  H19B 8664   2.162   4.238   7.286 -0.5837 -0.4852  0.3282
   84CHL1  H19C 8665   2.122   4.337   7.147 -1.4043 -0.0362 -0.7035
   84CHL1    C1 8666   1.890   4.203   7.217  0.9173 -0.2268 -0.2217
   84CHL1   H1A 8667   1.930   4.111   7.264 -1.8070 -1.1779  0.4368
   84CHL1   H1B 8668   1.787   4.226   7.255  2.0562  2.2320  1.7025
   84CHL1    C2 8669   1.895   4.212   7.063  0.4209 -0.2576 -0.3419
   84CHL1   H2A 8670   1.854   4.120   7.016  1.4220  0.0376 -1.8736
   84CHL1   H2B 8671   1.997   4.219   7.020  0.1246 -3.6395 -1.8884
   84CHL1   C20 8672   2.142   4.304   7.982  1.0402 -0.6050  0.2000
   84CHL1   H20 8673   2.243   4.333   7.947  0.8323  0.0903  0.1612
   84CHL1   C21 8674   2.123   4.152   7.973  0.0202 -0.3717  0.3549
   84CHL1  H21A 8675   2.143   4.096   8.066  0.0690 -0.6526  0.1753
   84CHL1  H21B 8676   2.169   4.097   7.889  1.8416 -0.6149  1.4727
   84CHL1  H21C 8677   2.014   4.131   7.972 -0.1671  0.5442  0.4949
   84CHL1   C22 8678   2.117   4.352   8.131  0.2320 -0.7384  0.0460
   84CHL1  H22A 8679   2.092   4.460   8.138  0.8272 -0.6105  0.2796
   84CHL1  H22B 8680   2.039   4.297   8.187  2.7281 -0.2747  4.4415
   84CHL1   C23 8681   2.254   4.334   8.199 -1.1161  0.2757  0.3675
   84CHL1  H23A 8682   2.296   4.232   8.185  0.4436  0.9895 -0.3975
   84CHL1  H23B 8683   2.320   4.409   8.151  0.4163  0.3869  2.5108
   84CHL1   C24 8684   2.243   4.367   8.349  0.3767  0.1626 -0.1534
   84CHL1  H24A 8685   2.137   4.352   8.379  0.6695 -1.3133  0.2386
   84CHL1  H24B 8686   2.308   4.287   8.391 -0.8170  0.2542  2.0105
   84CHL1   C25 8687   2.292   4.507   8.388  0.5290 -0.1714  0.2158
   84CHL1   H25 8688   2.393   4.514   8.342 -0.3285 -1.5898 -2.0358
   84CHL1   C26 8689   2.206   4.621   8.336 -0.1212 -0.3797 -0.3846
   84CHL1  H26A 8690   2.099   4.600   8.359  0.4061 -3.1491 -0.1704
   84CHL1  H26B 8691   2.246   4.720   8.368  0.1916 -1.2336  2.0918
   84CHL1  H26C 8692   2.216   4.620   8.226 -0.2902  0.5435 -0.4158
   84CHL1   C27 8693   2.307   4.504   8.542  0.4714 -0.0371  0.0443
   84CHL1  H27A 8694   2.220   4.556   8.588  1.5486  2.9852 -1.0268
   84CHL1  H27B 8695   2.333   4.399   8.564  1.4961  0.0039 -0.8929
   84CHL1  H27C 8696   2.388   4.576   8.568  1.5206 -1.1746  0.0300
   85CHL1    C3 8697   1.097   4.010   6.787 -0.2661 -0.5666 -0.9148
   85CHL1    H3 8698   1.089   4.121   6.785  2.7309 -0.1757  1.7827
   85CHL1    O3 8699   1.069   3.955   6.659 -0.5811 -0.0548 -0.2058
   85CHL1   H3' 8700   1.113   3.871   6.676  0.4821  0.8296  1.6947
   85CHL1    C4 8701   1.244   3.990   6.812  0.0418  0.8134 -0.3864
   85CHL1   H4A 8702   1.284   3.887   6.802  2.0421  1.3117  1.5216
   85CHL1   H4B 8703   1.304   4.040   6.732  0.9264  0.7252  0.2068
   85CHL1    C5 8704   1.266   4.052   6.948  0.8163 -0.2010 -0.3420
   85CHL1    C6 8705   1.350   4.158   6.956  0.4117  0.2972  0.4462
   85CHL1    H6 8706   1.398   4.194   6.864 -0.9545 -1.1245 -0.8784
   85CHL1    C7 8707   1.404   4.208   7.086  0.8422  0.2247 -0.1807
   85CHL1   H7A 8708   1.515   4.206   7.075  1.0790 -0.8150  1.8742
   85CHL1   H7B 8709   1.369   4.312   7.103  0.4634 -0.0874  1.0511
   85CHL1    C8 8710   1.368   4.125   7.210 -0.0301  0.0262 -0.7013
   85CHL1    H8 8711   1.435   4.037   7.217 -1.6319 -1.1248  1.1955
   85CHL1   C14 8712   1.379   4.202   7.346 -0.5902  0.4082 -0.0487
   85CHL1   H14 8713   1.296   4.275   7.355  0.3885  1.8772 -2.1281
   85CHL1   C15 8714   1.508   4.275   7.383 -0.5098 -0.6484  0.2028
   85CHL1  H15A 8715   1.595   4.209   7.362  0.1147 -0.3145  1.6281
   85CHL1  H15B 8716   1.525   4.365   7.319  1.3548  0.5311  2.2243
   85CHL1   C16 8717   1.511   4.290   7.533  0.3357  0.9721  0.1023
   85CHL1  H16A 8718   1.605   4.244   7.569 -0.6049 -1.2385 -0.0880
   85CHL1  H16B 8719   1.498   4.396   7.566 -2.9297  1.5461 -2.5395
   85CHL1   C17 8720   1.389   4.201   7.581  0.7890 -0.0372  0.1389
   85CHL1   H17 8721   1.294   4.258   7.578  0.0439 -1.2417 -2.4586
   85CHL1   C13 8722   1.352   4.102   7.463 -0.3562 -0.3071  0.7482
   85CHL1   C18 8723   1.449   3.978   7.473 -0.2463 -0.4013 -0.0588
   85CHL1  H18A 8724   1.445   3.909   7.386 -0.7183  0.1518 -0.4905
   85CHL1  H18B 8725   1.553   4.014   7.492 -0.8203  1.0175  0.5687
   85CHL1  H18C 8726   1.421   3.910   7.556  0.4186 -0.6493 -0.0331
   85CHL1   C12 8727   1.200   4.061   7.455 -0.2826  0.4639 -0.9798
   85CHL1  H12A 8728   1.168   3.996   7.539  2.5998 -0.5598 -0.5532
   85CHL1  H12B 8729   1.135   4.152   7.453 -0.2306  0.5057 -0.7893
   85CHL1   C11 8730   1.172   3.986   7.323 -0.2432 -0.6418 -0.1078
   85CHL1  H11A 8731   1.226   3.892   7.341  0.6929  0.2119  1.8315
   85CHL1  H11B 8732   1.063   3.969   7.306 -1.1801  3.1164  1.1481
   85CHL1    C9 8733   1.223   4.071   7.197 -0.2781 -0.1285 -0.3281
   85CHL1    H9 8734   1.159   4.160   7.210 -0.5651 -0.6167  2.2116
   85CHL1   C10 8735   1.187   3.991   7.064 -0.3789  0.2523  0.5204
   85CHL1   C19 8736   1.225   3.840   7.080  0.4584  0.1257 -0.4980
   85CHL1  H19A 8737   1.141   3.791   7.133  0.6927  0.3418  0.0829
   85CHL1  H19B 8738   1.223   3.793   6.980 -0.0499  2.5146 -1.6856
   85CHL1  H19C 8739   1.330   3.818   7.108  1.0367  1.7595 -1.2893
   85CHL1    C1 8740   1.037   4.015   7.026 -0.2470 -0.2477 -0.5762
   85CHL1   H1A 8741   0.980   3.953   7.099 -0.8561  1.3380  0.3425
   85CHL1   H1B 8742   1.003   4.121   7.032  2.3028  0.6365 -0.3015
   85CHL1    C2 8743   1.001   3.949   6.893 -0.1350 -0.6194  0.2524
   85CHL1   H2A 8744   0.896   3.974   6.867  0.4929  1.1235 -0.7955
   85CHL1   H2B 8745   1.015   3.839   6.892 -2.1731 -0.9295  0.8223
   85CHL1   C20 8746   1.413   4.148   7.722 -0.3461  0.6528  0.8966
   85CHL1   H20 8747   1.495   4.073   7.724 -0.3550  0.6321  0.5614
   85CHL1   C21 8748   1.284   4.087   7.782  0.3367  0.0344  0.2491
   85CHL1  H21A 8749   1.244   3.999   7.729  0.6014  0.6412 -0.9968
   85CHL1  H21B 8750   1.205   4.165   7.783 -0.4893 -0.7852  1.1679
   85CHL1  H21C 8751   1.307   4.056   7.886  0.1685 -0.3216  0.1810
   85CHL1   C22 8752   1.446   4.265   7.817 -0.7766 -0.7150 -0.2875
   85CHL1  H22A 8753   1.522   4.341   7.787 -0.8877 -0.4706  0.0409
   85CHL1  H22B 8754   1.356   4.328   7.832 -0.2198 -0.4489  2.4312
   85CHL1   C23 8755   1.501   4.214   7.949 -0.1663  0.2431 -0.0759
   85CHL1  H23A 8756   1.426   4.151   8.001  1.3408 -1.5876 -0.0349
   85CHL1  H23B 8757   1.594   4.157   7.931 -0.0185  0.4293  0.0953
   85CHL1   C24 8758   1.529   4.326   8.047 -0.4343  0.1455  0.2782
   85CHL1  H24A 8759   1.620   4.382   8.015 -0.1691 -0.1792  0.4556
   85CHL1  H24B 8760   1.440   4.392   8.037 -0.7428 -0.1497  1.0366
   85CHL1   C25 8761   1.557   4.271   8.188 -0.0951  0.2825 -0.7359
   85CHL1   H25 8762   1.482   4.199   8.227  2.0567 -0.9911  1.3288
   85CHL1   C26 8763   1.690   4.196   8.210 -0.6148 -0.0125 -0.2910
   85CHL1  H26A 8764   1.704   4.149   8.310 -0.2692  0.3776 -0.1522
   85CHL1  H26B 8765   1.705   4.110   8.141  2.6680 -1.3616  1.8363
   85CHL1  H26C 8766   1.771   4.272   8.195 -1.1882  1.2413  2.3410
   85CHL1   C27 8767   1.554   4.393   8.295  0.6045  0.5250  0.5086
   85CHL1  H27A 8768   1.453   4.438   8.283  0.0525 -0.1560  2.2340
   85CHL1  H27B 8769   1.564   4.362   8.402  0.1078  1.4072  0.8182
   85CHL1  H27C 8770   1.638   4.459   8.268  0.6505  0.4694  0.5143
   86CHL1    C3 8771   3.695   4.656   7.151  0.1196 -0.3198 -0.8575
   86CHL1    H3 8772   3.585   4.667   7.165  0.3583  0.4596  0.6814
   86CHL1    O3 8773   3.710   4.627   7.014  0.3877  0.0605  0.0068
   86CHL1   H3' 8774   3.787   4.675   6.982  0.4050  0.2658  0.3586
   86CHL1    C4 8775   3.748   4.801   7.174  0.2904  0.1271 -0.4675
   86CHL1   H4A 8776   3.843   4.816   7.118 -0.0583 -1.2945 -1.5158
   86CHL1   H4B 8777   3.676   4.872   7.128  0.7505  0.9929  0.1267
   86CHL1    C5 8778   3.771   4.831   7.321  0.1798  0.0848 -0.3797
   86CHL1    C6 8779   3.738   4.949   7.371  0.1651  0.4503 -0.5466
   86CHL1    H6 8780   3.686   5.023   7.308 -1.2467 -1.1440 -1.3350
   86CHL1    C7 8781   3.765   4.995   7.509  0.3821 -0.2742  0.2850
   86CHL1   H7A 8782   3.788   5.104   7.514 -0.3084 -0.1054 -0.1067
   86CHL1   H7B 8783   3.677   4.974   7.573  1.8564 -1.7538  1.9217
   86CHL1    C8 8784   3.873   4.904   7.576  0.2149  0.1956 -0.4219
   86CHL1    H8 8785   3.973   4.929   7.534 -0.8157  1.3143 -2.3295
   86CHL1   C14 8786   3.881   4.926   7.725  0.0494 -0.8670  0.7113
   86CHL1   H14 8787   3.792   4.881   7.775  0.3477 -0.4443  1.6406
   86CHL1   C15 8788   3.892   5.074   7.785 -0.5364  0.0083 -0.2832
   86CHL1  H15A 8789   3.956   5.138   7.721 -2.2037  0.6281 -1.3821
   86CHL1  H15B 8790   3.797   5.132   7.789  0.1543  1.1239  1.1473
   86CHL1   C16 8791   3.953   5.054   7.920  0.1573  0.0583 -0.3221
   86CHL1  H16A 8792   4.056   5.095   7.931  1.0696 -2.2662  0.3012
   86CHL1  H16B 8793   3.884   5.096   7.996 -2.4536 -1.6430 -1.6175
   86CHL1   C17 8794   3.970   4.897   7.945 -0.8493 -0.7310 -0.3995
   86CHL1   H17 8795   3.877   4.852   7.986  0.3277 -1.6589  1.3660
   86CHL1   C13 8796   3.988   4.846   7.801 -0.1506  0.6512 -0.3841
   86CHL1   C18 8797   4.128   4.887   7.757 -0.1731  0.0401 -0.1372
   86CHL1  H18A 8798   4.158   4.990   7.785  0.4652 -0.7216  2.1841
   86CHL1  H18B 8799   4.206   4.838   7.818  0.9756 -0.2149 -1.7346
   86CHL1  H18C 8800   4.145   4.866   7.649 -1.0361 -3.0357  0.2475
   86CHL1   C12 8801   3.955   4.696   7.778  0.0104  0.5492  1.2455
   86CHL1  H12A 8802   4.010   4.619   7.837 -2.3242 -0.2681  2.4900
   86CHL1  H12B 8803   3.853   4.678   7.817 -0.3902  0.6407  0.2703
   86CHL1   C11 8804   3.948   4.655   7.635  0.6474  0.1740  1.1763
   86CHL1  H11A 8805   4.051   4.675   7.598 -0.0285 -1.1381 -1.6924
   86CHL1  H11B 8806   3.927   4.550   7.606  0.9222  0.7246 -1.2418
   86CHL1    C9 8807   3.852   4.751   7.552 -0.0087 -0.4240 -0.2818
   86CHL1    H9 8808   3.756   4.723   7.602 -0.7339  3.4695  0.8504
   86CHL1   C10 8809   3.840   4.726   7.398 -0.9571 -0.1672 -0.8515
   86CHL1   C19 8810   3.987   4.732   7.344  0.7604  0.2047  0.4341
   86CHL1  H19A 8811   4.024   4.641   7.397 -1.4289  1.6062  4.9393
   86CHL1  H19B 8812   3.998   4.725   7.234 -2.3283  0.3140  0.0436
   86CHL1  H19C 8813   4.056   4.807   7.388  2.9552 -1.2916 -0.2649
   86CHL1    C1 8814   3.766   4.590   7.382  0.8425  0.1782  0.4384
   86CHL1   H1A 8815   3.813   4.508   7.441  0.8094  0.8726  1.4631
   86CHL1   H1B 8816   3.661   4.597   7.419  0.3743 -0.5784 -0.6683
   86CHL1    C2 8817   3.763   4.546   7.232 -0.3714  0.1331  0.0924
   86CHL1   H2A 8818   3.705   4.452   7.237 -0.2789  0.1578  2.8337
   86CHL1   H2B 8819   3.861   4.528   7.181 -1.5168 -3.2707 -1.1947
   86CHL1   C20 8820   4.072   4.873   8.051 -0.5736 -0.3830  0.0770
   86CHL1   H20 8821   4.172   4.876   8.002 -0.9009 -3.9274 -1.0690
   86CHL1   C21 8822   4.074   4.721   8.107 -0.0203 -0.6965  0.8218
   86CHL1  H21A 8823   4.125   4.649   8.039  1.3827  0.5770  0.4449
   86CHL1  H21B 8824   3.971   4.684   8.120 -0.8490  1.4225  0.7730
   86CHL1  H21C 8825   4.136   4.713   8.199  1.6564 -1.3364 -0.3010
   86CHL1   C22 8826   4.064   4.963   8.177 -0.2337 -0.6781 -0.3695
   86CHL1  H22A 8827   4.151   4.941   8.242  0.6011  1.8326 -0.5033
   86CHL1  H22B 8828   4.086   5.064   8.136  1.4263 -0.3730  1.1651
   86CHL1   C23 8829   3.941   4.974   8.265  0.7327  0.6284  0.3092
   86CHL1  H23A 8830   3.862   5.003   8.193  1.2160 -0.0410 -0.5129
   86CHL1  H23B 8831   3.906   4.875   8.299 -2.7814  0.5983 -2.8074
   86CHL1   C24 8832   3.949   5.075   8.379 -0.0347 -0.2765 -0.1761
   86CHL1  H24A 8833   4.031   5.042   8.447  0.0664  0.6554  0.1666
   86CHL1  H24B 8834   3.956   5.182   8.351  2.3566  0.6099  3.1149
   86CHL1   C25 8835   3.824   5.057   8.466 -0.2513 -0.1901  0.3694
   86CHL1   H25 8836   3.819   4.954   8.507  0.6272 -1.3840 -2.2828
   86CHL1   C26 8837   3.823   5.159   8.579  0.4198 -0.6413  0.4860
   86CHL1  H26A 8838   3.805   5.257   8.531  1.9430 -1.1877 -1.2732
   86CHL1  H26B 8839   3.743   5.140   8.655  0.1268  2.8164  1.2161
   86CHL1  H26C 8840   3.921   5.153   8.630  0.9712  1.5931 -0.2221
   86CHL1   C27 8841   3.686   5.067   8.395 -0.3023 -0.5908  0.7715
   86CHL1  H27A 8842   3.686   5.159   8.331  2.7793 -1.1836 -0.2569
   86CHL1  H27B 8843   3.668   4.976   8.334 -1.0325  0.9175 -1.3734
   86CHL1  H27C 8844   3.610   5.074   8.475  0.8843 -0.7598  1.9595
   87CHL1    C3 8845   2.304   3.361   6.906 -0.4345  0.1236 -0.3199
   87CHL1    H3 8846   2.245   3.449   6.939 -1.6776 -0.9524  0.4057
   87CHL1    O3 8847   2.278   3.357   6.765  0.7099 -0.3744 -0.2780
   87CHL1   H3' 8848   2.218   3.430   6.747  1.8626  0.7122  0.1198
   87CHL1    C4 8849   2.453   3.361   6.935  0.2758 -0.1590 -0.7450
   87CHL1   H4A 8850   2.498   3.270   6.889  0.5006 -0.0805 -0.6812
   87CHL1   H4B 8851   2.504   3.451   6.896  0.4040 -1.1008 -2.9334
   87CHL1    C5 8852   2.490   3.349   7.084 -1.0091 -0.1954  0.4202
   87CHL1    C6 8853   2.574   3.436   7.144  0.0186  0.3879 -1.1061
   87CHL1    H6 8854   2.626   3.514   7.088  2.7882  0.3907  1.2216
   87CHL1    C7 8855   2.613   3.430   7.291 -0.1037  0.6536  0.2947
   87CHL1   H7A 8856   2.723   3.448   7.293 -0.3135  2.3274 -0.8300
   87CHL1   H7B 8857   2.566   3.511   7.351 -2.3193 -0.7351  0.5049
   87CHL1    C8 8858   2.579   3.294   7.363  0.0981  0.0456  0.4600
   87CHL1    H8 8859   2.654   3.216   7.339  1.1235  0.5632  1.8688
   87CHL1   C14 8860   2.583   3.322   7.516 -0.0448 -0.4320  0.0289
   87CHL1   H14 8861   2.508   3.402   7.536  0.8587  0.6819 -0.9089
   87CHL1   C15 8862   2.707   3.372   7.583  0.4565  0.0974 -0.3726
   87CHL1  H15A 8863   2.798   3.322   7.543 -0.6889 -2.7016  0.3330
   87CHL1  H15B 8864   2.723   3.479   7.559  0.0423  0.1573 -0.3881
   87CHL1   C16 8865   2.689   3.350   7.737  0.0634  1.3656 -0.3987
   87CHL1  H16A 8866   2.774   3.286   7.769  0.0863  0.4897 -2.0818
   87CHL1  H16B 8867   2.686   3.436   7.807  0.6773  0.0251  1.3602
   87CHL1   C17 8868   2.552   3.268   7.742 -0.4057 -0.5143 -0.9145
   87CHL1   H17 8869   2.474   3.345   7.761 -0.4671 -0.8094  0.0369
   87CHL1   C13 8870   2.522   3.207   7.602 -0.6148  0.5663 -0.4315
   87CHL1   C18 8871   2.617   3.081   7.589 -0.4538  0.4656 -0.2861
   87CHL1  H18A 8872   2.714   3.090   7.642 -0.7359 -1.1491  0.5494
   87CHL1  H18B 8873   2.573   2.997   7.646  1.7158 -0.3643  0.2506
   87CHL1  H18C 8874   2.644   3.047   7.486  1.0322  2.7938 -0.7405
   87CHL1   C12 8875   2.375   3.186   7.559 -0.1740  0.3037 -0.3763
   87CHL1  H12A 8876   2.319   3.110   7.618 -0.5700  0.3749 -0.6560
   87CHL1  H12B 8877   2.315   3.278   7.576  0.5493  0.5494  0.9974
   87CHL1   C11 8878   2.374   3.150   7.406  0.1835  0.0944 -0.4395
   87CHL1  H11A 8879   2.426   3.054   7.387 -0.5942 -0.5528  0.5842
   87CHL1  H11B 8880   2.270   3.133   7.372  0.5625 -1.5328 -0.8901
   87CHL1    C9 8881   2.440   3.260   7.314 -0.1458  0.4558 -0.0230
   87CHL1    H9 8882   2.379   3.349   7.338  0.1147  0.3795  0.9626
   87CHL1   C10 8883   2.425   3.239   7.163  0.3110 -0.7854  1.1796
   87CHL1   C19 8884   2.485   3.106   7.118 -0.4857 -0.1952 -0.5057
   87CHL1  H19A 8885   2.595   3.119   7.126 -0.7683  1.8535  0.9093
   87CHL1  H19B 8886   2.454   3.026   7.188 -1.5088  0.6862  0.0704
   87CHL1  H19C 8887   2.445   3.081   7.017  0.5477  0.9116 -1.2207
   87CHL1    C1 8888   2.268   3.235   7.132 -0.3371  0.1559  0.3872
   87CHL1   H1A 8889   2.223   3.139   7.163 -0.5078 -0.3044 -1.2093
   87CHL1   H1B 8890   2.209   3.319   7.174 -0.1190  0.4552  0.1054
   87CHL1    C2 8891   2.238   3.240   6.982 -0.7334 -0.0338  0.1227
   87CHL1   H2A 8892   2.128   3.246   6.964 -0.5920  1.8667 -0.3867
   87CHL1   H2B 8893   2.271   3.147   6.931  0.1125  0.5294 -0.3774
   87CHL1   C20 8894   2.551   3.175   7.861  0.0101  0.3381 -0.2065
   87CHL1   H20 8895   2.623   3.093   7.844 -1.6713 -0.7234 -2.7782
   87CHL1   C21 8896   2.408   3.116   7.869 -0.6860 -0.2525  0.5118
   87CHL1  H21A 8897   2.399   3.072   7.971  1.8794  0.9405  1.3349
   87CHL1  H21B 8898   2.396   3.040   7.788 -0.5605  0.7796 -0.5017
   87CHL1  H21C 8899   2.333   3.195   7.848 -1.0891 -1.3352 -2.8273
   87CHL1   C22 8900   2.583   3.248   7.997  0.2603 -0.5011 -0.0114
   87CHL1  H22A 8901   2.665   3.320   7.982 -1.5331  2.2166  2.1143
   87CHL1  H22B 8902   2.501   3.315   8.031 -0.1035  0.4298 -2.4990
   87CHL1   C23 8903   2.614   3.143   8.113 -0.0413 -0.1068 -0.6245
   87CHL1  H23A 8904   2.527   3.075   8.118  0.5367 -0.9051 -1.2250
   87CHL1  H23B 8905   2.700   3.084   8.074 -2.3870 -4.1350 -0.2275
   87CHL1   C24 8906   2.634   3.200   8.258 -0.5325  0.1368 -0.0159
   87CHL1  H24A 8907   2.657   3.121   8.333 -0.7756  1.2856  1.3299
   87CHL1  H24B 8908   2.720   3.271   8.256 -1.1608  0.9304  0.5464
   87CHL1   C25 8909   2.516   3.279   8.317 -0.7580  0.2630  0.7077
   87CHL1   H25 8910   2.494   3.356   8.240  0.2693  0.4751  0.6159
   87CHL1   C26 8911   2.387   3.189   8.325  0.5246  0.2821 -0.0601
   87CHL1  H26A 8912   2.397   3.138   8.423 -2.4416 -0.0251  0.1588
   87CHL1  H26B 8913   2.293   3.246   8.340  0.8865  0.5632  1.2441
   87CHL1  H26C 8914   2.376   3.106   8.252  0.1758 -0.5595  0.9212
   87CHL1   C27 8915   2.538   3.338   8.454 -0.4523  0.2692 -0.3622
   87CHL1  H27A 8916   2.626   3.406   8.447  0.2651 -0.4464  1.1099
   87CHL1  H27B 8917   2.444   3.394   8.470  0.0477  0.6555  1.4308
   87CHL1  H27C 8918   2.536   3.269   8.541  0.6684  0.4581 -0.1658
   88CHL1    C3 8919   6.448   3.450   7.112  0.9707  0.2210  0.1116
   88CHL1    H3 8920   6.455   3.553   7.152 -2.8914  0.3812  0.7281
   88CHL1    O3 8921   6.469   3.462   6.974 -0.7148  0.1149  0.5090
   88CHL1   H3' 8922   6.478   3.555   6.953  2.6610 -0.2878 -0.3886
   88CHL1    C4 8923   6.540   3.352   7.177 -0.1539  0.4208 -0.0390
   88CHL1   H4A 8924   6.517   3.251   7.136 -0.3087 -0.3853  1.9348
   88CHL1   H4B 8925   6.644   3.374   7.144  0.3463 -0.5824  0.7824
   88CHL1    C5 8926   6.529   3.366   7.324 -0.2199  0.3098 -0.8466
   88CHL1    C6 8927   6.627   3.417   7.399  0.1283  0.7397  0.0014
   88CHL1    H6 8928   6.710   3.464   7.344  0.0656  0.2363 -0.5433
   88CHL1    C7 8929   6.620   3.439   7.551  0.9761 -0.1687  0.0048
   88CHL1   H7A 8930   6.710   3.413   7.610  0.4831 -0.2669  0.7190
   88CHL1   H7B 8931   6.603   3.548   7.557 -0.0824 -0.0766 -2.9887
   88CHL1    C8 8932   6.495   3.369   7.618  0.1613  0.0921 -0.4173
   88CHL1    H8 8933   6.522   3.264   7.641  0.8646  0.6428  1.4118
   88CHL1   C14 8934   6.473   3.445   7.749 -0.3395  0.8265  0.5739
   88CHL1   H14 8935   6.444   3.550   7.727 -2.7153  0.0663 -0.2533
   88CHL1   C15 8936   6.594   3.459   7.842  0.2914  0.1800  0.5400
   88CHL1  H15A 8937   6.661   3.371   7.828  1.5314  1.0544  0.8232
   88CHL1  H15B 8938   6.648   3.554   7.823  0.5532 -0.3282 -1.5062
   88CHL1   C16 8939   6.533   3.468   7.981  0.1246  0.5056  0.3801
   88CHL1  H16A 8940   6.566   3.375   8.032  2.5084  0.2135 -1.5140
   88CHL1  H16B 8941   6.576   3.548   8.045  1.2275  0.4505 -0.2767
   88CHL1   C17 8942   6.378   3.458   7.962  0.0123 -0.2031 -0.5489
   88CHL1   H17 8943   6.347   3.565   7.952  2.8812  0.9342  1.3636
   88CHL1   C13 8944   6.358   3.382   7.832 -0.3348  0.2837 -0.1639
   88CHL1   C18 8945   6.386   3.230   7.853  0.1550  0.2330  0.5539
   88CHL1  H18A 8946   6.482   3.211   7.906 -0.4750  0.0783  1.6807
   88CHL1  H18B 8947   6.310   3.183   7.920  0.0814  0.0882  0.3712
   88CHL1  H18C 8948   6.372   3.177   7.757 -0.1478 -1.1483  1.3257
   88CHL1   C12 8949   6.228   3.393   7.748  0.3709  0.4684 -0.1178
   88CHL1  H12A 8950   6.142   3.352   7.806 -0.8867  0.5595 -1.8473
   88CHL1  H12B 8951   6.214   3.502   7.732  0.2912  0.3220 -1.1136
   88CHL1   C11 8952   6.240   3.342   7.601 -0.2051  0.7709 -0.6348
   88CHL1  H11A 8953   6.244   3.231   7.602  0.7402  0.7790 -1.6553
   88CHL1  H11B 8954   6.154   3.376   7.540  0.6999  1.1629 -1.7257
   88CHL1    C9 8955   6.371   3.384   7.535  0.2477  0.4318  0.9213
   88CHL1    H9 8956   6.352   3.492   7.521 -0.9728  0.3458  1.8349
   88CHL1   C10 8957   6.388   3.329   7.385  0.0257  0.6652 -0.5428
   88CHL1   C19 8958   6.374   3.171   7.388 -0.0568  0.2795 -0.6597
   88CHL1  H19A 8959   6.394   3.133   7.286  1.4165 -0.9969  0.0604
   88CHL1  H19B 8960   6.440   3.106   7.449 -0.9160  0.2509  0.2703
   88CHL1  H19C 8961   6.270   3.138   7.407 -0.4999  0.3329 -2.7328
   88CHL1    C1 8962   6.281   3.403   7.292 -0.8513  0.5368  0.0862
   88CHL1   H1A 8963   6.185   3.350   7.307  0.9705 -2.7962  0.8555
   88CHL1   H1B 8964   6.282   3.507   7.331  2.3447  0.0378  1.7139
   88CHL1    C2 8965   6.308   3.399   7.143 -0.4228  0.4198 -0.1602
   88CHL1   H2A 8966   6.234   3.455   7.083 -0.7620 -1.5083 -1.6565
   88CHL1   H2B 8967   6.302   3.297   7.099  0.0453  0.1888  0.2983
   88CHL1   C20 8968   6.310   3.411   8.085 -0.3544  0.2652 -0.4398
   88CHL1   H20 8969   6.281   3.304   8.075  1.2280 -0.3130  0.7902
   88CHL1   C21 8970   6.178   3.491   8.088  0.2782  0.4148 -0.0302
   88CHL1  H21A 8971   6.110   3.462   8.171 -1.2518 -1.1906 -1.7299
   88CHL1  H21B 8972   6.123   3.476   7.992 -1.9556  0.3340  1.1824
   88CHL1  H21C 8973   6.194   3.601   8.085 -2.4661  0.8696 -0.9176
   88CHL1   C22 8974   6.380   3.431   8.226 -0.7112  0.3835  0.2509
   88CHL1  H22A 8975   6.453   3.347   8.228  0.6728  1.5199 -0.3025
   88CHL1  H22B 8976   6.434   3.528   8.231  0.7532 -0.4630  2.2803
   88CHL1   C23 8977   6.291   3.418   8.351  0.3821  0.2377 -0.5834
   88CHL1  H23A 8978   6.209   3.494   8.348 -0.8752 -1.0427  0.1205
   88CHL1  H23B 8979   6.249   3.316   8.346  3.9950 -1.5608  1.8155
   88CHL1   C24 8980   6.363   3.429   8.489 -0.8224 -0.1727  0.2681
   88CHL1  H24A 8981   6.397   3.328   8.518 -0.2686 -0.2156 -0.4812
   88CHL1  H24B 8982   6.457   3.488   8.480 -0.4275 -0.8663 -0.2646
   88CHL1   C25 8983   6.274   3.493   8.597 -0.4495  0.3882  0.5010
   88CHL1   H25 8984   6.226   3.585   8.557 -2.0113 -0.1756  0.9910
   88CHL1   C26 8985   6.168   3.396   8.643 -0.5265  0.1691  0.1705
   88CHL1  H26A 8986   6.210   3.324   8.717 -1.5796 -2.7656 -1.9287
   88CHL1  H26B 8987   6.091   3.451   8.701  0.2145  2.2284 -0.7003
   88CHL1  H26C 8988   6.119   3.344   8.559 -1.4811  0.6659  0.4009
   88CHL1   C27 8989   6.351   3.535   8.722  0.1379  0.5904 -0.2343
   88CHL1  H27A 8990   6.423   3.618   8.705  1.7085 -0.0138  2.8826
   88CHL1  H27B 8991   6.282   3.558   8.806 -2.3669  0.6214 -2.1535
   88CHL1  H27C 8992   6.404   3.443   8.753 -2.1058  0.2105  2.9308
   89CHL1    C3 8993   2.790   4.001   7.040  0.0446 -0.7414 -0.0535
   89CHL1    H3 8994   2.713   4.063   7.090  0.5047 -1.2927  1.3992
   89CHL1    O3 8995   2.791   4.010   6.903  0.0790  0.8974  0.3958
   89CHL1   H3' 8996   2.838   3.928   6.889 -0.2619 -0.1871  4.3572
   89CHL1    C4 8997   2.921   4.037   7.099  0.2644  0.2514 -1.0815
   89CHL1   H4A 8998   2.995   3.980   7.038 -0.9435 -0.3908 -1.9820
   89CHL1   H4B 8999   2.945   4.142   7.069 -2.6691  1.6697  1.0396
   89CHL1    C5 9000   2.938   4.021   7.249 -0.8785  0.6028 -0.8691
   89CHL1    C6 9001   2.978   4.114   7.338 -0.0949 -0.0795 -0.6221
   89CHL1    H6 9002   2.999   4.216   7.302 -2.9320  1.4929  1.7400
   89CHL1    C7 9003   3.004   4.088   7.483  0.1553  0.4773  0.3745
   89CHL1   H7A 9004   3.100   4.134   7.514  0.0705  0.9133  0.0069
   89CHL1   H7B 9005   2.923   4.132   7.545 -1.0658 -0.6970 -0.3410
   89CHL1    C8 9006   3.013   3.940   7.513  0.1256 -0.1462 -0.0649
   89CHL1    H8 9007   3.115   3.910   7.478  0.4562  0.6274  0.2318
   89CHL1   C14 9008   3.009   3.922   7.665  0.3001  0.0461  0.2620
   89CHL1   H14 9009   2.906   3.957   7.687  0.1118  0.6627 -1.3939
   89CHL1   C15 9010   3.100   4.012   7.753 -0.6442 -0.8983  0.0756
   89CHL1  H15A 9011   3.201   4.011   7.707 -1.1412  1.7135 -1.2767
   89CHL1  H15B 9012   3.071   4.118   7.772  0.4130 -0.9050  1.9529
   89CHL1   C16 9013   3.089   3.945   7.886  0.0714  0.5868 -0.1933
   89CHL1  H16A 9014   3.181   3.957   7.947  0.1054  0.5442 -0.2356
   89CHL1  H16B 9015   3.005   3.999   7.935 -1.2468 -0.1800 -1.5312
   89CHL1   C17 9016   3.026   3.800   7.863 -0.1004 -0.1108 -0.4103
   89CHL1   H17 9017   2.916   3.808   7.879 -0.1727 -1.4736 -0.1879
   89CHL1   C13 9018   3.026   3.778   7.713  0.0015 -0.5587  0.5733
   89CHL1   C18 9019   3.173   3.731   7.676 -0.2936  0.5214 -0.3032
   89CHL1  H18A 9020   3.210   3.756   7.574  1.4145 -0.8172 -0.0603
   89CHL1  H18B 9021   3.245   3.774   7.749  1.0459 -2.4366  0.2862
   89CHL1  H18C 9022   3.178   3.622   7.698  2.5779  0.2806 -1.7133
   89CHL1   C12 9023   2.919   3.686   7.647  0.4236 -0.1985  0.7728
   89CHL1  H12A 9024   2.938   3.578   7.666 -1.8323 -0.6850  0.6050
   89CHL1  H12B 9025   2.816   3.696   7.689  0.2846 -2.7716  1.1900
   89CHL1   C11 9026   2.913   3.703   7.493 -0.0745 -0.8999 -0.1794
   89CHL1  H11A 9027   3.000   3.641   7.462 -0.2348 -1.6862  0.8990
   89CHL1  H11B 9028   2.815   3.662   7.461  0.1575 -1.4479 -0.2004
   89CHL1    C9 9029   2.915   3.854   7.440 -0.2607 -0.1016 -0.3674
   89CHL1    H9 9030   2.819   3.890   7.484 -0.3524 -1.8986  1.0862
   89CHL1   C10 9031   2.913   3.873   7.291  0.2387 -0.2923 -0.0455
   89CHL1   C19 9032   3.023   3.771   7.224  0.0872  0.1744  0.3073
   89CHL1  H19A 9033   3.025   3.788   7.114 -1.9995 -0.8202  0.0656
   89CHL1  H19B 9034   3.121   3.805   7.263  0.1325  1.0025 -0.4916
   89CHL1  H19C 9035   3.000   3.664   7.242  0.6573 -0.1539 -0.8358
   89CHL1    C1 9036   2.767   3.840   7.232 -0.4704 -0.0017 -0.5998
   89CHL1   H1A 9037   2.732   3.736   7.252  0.1361  0.0186  0.6320
   89CHL1   H1B 9038   2.691   3.907   7.277 -0.4711 -1.5226  1.8665
   89CHL1    C2 9039   2.759   3.858   7.077  0.2603  0.1288 -0.1807
   89CHL1   H2A 9040   2.658   3.831   7.040 -0.6668  1.2485  1.4341
   89CHL1   H2B 9041   2.828   3.791   7.022 -1.7142 -1.1195 -1.2283
   89CHL1   C20 9042   3.070   3.705   7.973 -0.3052  0.9067  0.2142
   89CHL1   H20 9043   3.179   3.714   7.954  0.1825 -1.7563  1.3145
   89CHL1   C21 9044   3.025   3.559   7.940  0.1037 -0.4282 -0.1572
   89CHL1  H21A 9045   3.083   3.486   8.001  0.6511  1.9038  2.3157
   89CHL1  H21B 9046   3.047   3.539   7.833  0.9108 -3.6480  0.4918
   89CHL1  H21C 9047   2.919   3.555   7.974  0.8160 -0.8693  2.2075
   89CHL1   C22 9048   3.027   3.752   8.113  0.1550  0.1281  0.5909
   89CHL1  H22A 9049   3.076   3.851   8.126  0.8740  0.3045 -2.6651
   89CHL1  H22B 9050   2.916   3.757   8.106  0.2760  0.3898 -2.7801
   89CHL1   C23 9051   3.085   3.667   8.231 -0.0221 -0.7760  0.8130
   89CHL1  H23A 9052   3.061   3.560   8.218 -2.6639 -0.4268  2.1071
   89CHL1  H23B 9053   3.195   3.685   8.236 -0.3619  2.6726 -1.1620
   89CHL1   C24 9054   3.027   3.714   8.367  0.1727 -0.0567  0.3176
   89CHL1  H24A 9055   3.071   3.816   8.363 -0.7747  0.3413 -0.8972
   89CHL1  H24B 9056   2.916   3.725   8.374 -0.1432 -3.3682  2.1488
   89CHL1   C25 9057   3.083   3.657   8.502  0.1460 -0.6229 -0.1701
   89CHL1   H25 9058   3.022   3.709   8.579  1.2824  0.1040  0.2723
   89CHL1   C26 9059   3.060   3.508   8.501 -0.0234 -0.0800 -0.1616
   89CHL1  H26A 9060   3.124   3.460   8.424 -0.9595 -0.5350 -0.6797
   89CHL1  H26B 9061   3.082   3.469   8.603  1.3262 -0.7959 -0.7086
   89CHL1  H26C 9062   2.953   3.499   8.473  0.1417 -1.9697 -0.3146
   89CHL1   C27 9063   3.235   3.711   8.516  0.0916 -0.1336 -0.4586
   89CHL1  H27A 9064   3.303   3.663   8.443  0.5549 -1.2113  0.6397
   89CHL1  H27B 9065   3.252   3.820   8.521 -1.5154  0.1416 -0.4147
   89CHL1  H27C 9066   3.275   3.669   8.611 -1.6157 -1.2348 -0.1722
   90CHL1    C3 9067   2.209   6.643   6.967  0.6530  0.1681 -1.2519
   90CHL1    H3 9068   2.109   6.653   7.014  0.4432 -1.2801 -1.3273
   90CHL1    O3 9069   2.191   6.629   6.827  0.2370  0.1058 -0.4304
   90CHL1   H3' 9070   2.268   6.583   6.793  0.1318 -0.6242  0.2942
   90CHL1    C4 9071   2.306   6.759   7.009  0.5728  0.2129 -0.3455
   90CHL1   H4A 9072   2.401   6.742   6.953 -1.3317 -0.9504 -3.5226
   90CHL1   H4B 9073   2.261   6.852   6.967  0.5134  1.4787  2.3574
   90CHL1    C5 9074   2.317   6.761   7.160 -0.3135  0.6598 -0.4514
   90CHL1    C6 9075   2.276   6.864   7.238  0.5711  0.7132 -1.1594
   90CHL1    H6 9076   2.219   6.946   7.192  0.1175  1.8780  1.2959
   90CHL1    C7 9077   2.285   6.875   7.389  0.3041  0.2181 -0.8956
   90CHL1   H7A 9078   2.335   6.966   7.427  3.1104 -2.1750  1.7046
   90CHL1   H7B 9079   2.184   6.861   7.432  0.0908  1.2296 -1.0581
   90CHL1    C8 9080   2.382   6.762   7.436 -0.0475  0.4362 -0.5459
   90CHL1    H8 9081   2.487   6.797   7.426  0.2644 -0.4321 -0.4157
   90CHL1   C14 9082   2.354   6.745   7.585 -0.4284 -0.4146  0.0783
   90CHL1   H14 9083   2.249   6.709   7.591 -0.2638 -0.7368  1.2581
   90CHL1   C15 9084   2.365   6.870   7.670 -0.7521  0.8000  0.4616
   90CHL1  H15A 9085   2.457   6.930   7.651  0.4785 -1.2877 -0.4802
   90CHL1  H15B 9086   2.279   6.937   7.650 -2.5791 -2.5372 -5.0966
   90CHL1   C16 9087   2.361   6.808   7.806 -0.1441 -0.2097 -0.5339
   90CHL1  H16A 9088   2.446   6.847   7.865 -1.1328  0.6025  0.3935
   90CHL1  H16B 9089   2.269   6.822   7.867  0.1419 -2.3743  0.5114
   90CHL1   C17 9090   2.382   6.657   7.795 -0.1604 -0.3589 -0.4173
   90CHL1   H17 9091   2.288   6.600   7.806 -0.5839  0.1485 -1.3118
   90CHL1   C13 9092   2.437   6.640   7.654 -0.0001  1.3036 -0.1683
   90CHL1   C18 9093   2.588   6.676   7.649  0.0795 -0.1871 -0.7342
   90CHL1  H18A 9094   2.605   6.778   7.691  2.5294 -0.8219  0.0226
   90CHL1  H18B 9095   2.638   6.613   7.727  1.0346  0.8603 -0.4605
   90CHL1  H18C 9096   2.632   6.659   7.549 -2.9926  1.1194 -2.4504
   90CHL1   C12 9097   2.412   6.497   7.586  0.0911 -0.1822 -0.6051
   90CHL1  H12A 9098   2.478   6.417   7.626 -0.3712 -0.4572 -0.3861
   90CHL1  H12B 9099   2.303   6.480   7.594 -0.3670  2.4632 -0.4450
   90CHL1   C11 9100   2.435   6.504   7.439  0.0093 -0.3375 -0.7442
   90CHL1  H11A 9101   2.545   6.519   7.430  0.4236 -1.1906  1.9998
   90CHL1  H11B 9102   2.398   6.411   7.390  0.5256 -1.1977  0.4513
   90CHL1    C9 9103   2.357   6.622   7.372 -0.1999 -0.7219 -0.3697
   90CHL1    H9 9104   2.250   6.602   7.395  0.4948 -0.5096  3.8500
   90CHL1   C10 9105   2.372   6.627   7.223 -0.3017  0.2260  0.7005
   90CHL1   C19 9106   2.519   6.606   7.181 -0.3917 -0.4680  0.1975
   90CHL1  H19A 9107   2.576   6.690   7.225 -0.2511 -0.8111  0.6770
   90CHL1  H19B 9108   2.562   6.516   7.229 -0.4321 -0.5773  0.0292
   90CHL1  H19C 9109   2.535   6.604   7.071  0.1060  2.5871  0.1187
   90CHL1    C1 9110   2.282   6.518   7.163  0.0520 -0.2177  1.0442
   90CHL1   H1A 9111   2.318   6.417   7.191  0.8250  0.0993  1.2417
   90CHL1   H1B 9112   2.184   6.541   7.210  0.2123  1.1181  0.7733
   90CHL1    C2 9113   2.260   6.508   7.013 -0.3385 -0.5995  0.0642
   90CHL1   H2A 9114   2.186   6.432   6.978  0.9858 -0.7384 -2.6662
   90CHL1   H2B 9115   2.355   6.492   6.959  0.4364  1.5898  0.6660
   90CHL1   C20 9116   2.459   6.609   7.913  0.5886  0.5206 -0.1001
   90CHL1   H20 9117   2.555   6.664   7.919  0.9201  0.0488 -0.8882
   90CHL1   C21 9118   2.490   6.461   7.903 -0.0125  0.3480  0.6974
   90CHL1  H21A 9119   2.473   6.408   7.999  0.2654 -0.9702  0.0381
   90CHL1  H21B 9120   2.594   6.436   7.874 -0.9392 -1.2486 -1.5373
   90CHL1  H21C 9121   2.432   6.402   7.829  2.0464  0.4560 -1.0888
   90CHL1   C22 9122   2.386   6.641   8.050  0.5728  0.3576  0.4605
   90CHL1  H22A 9123   2.332   6.738   8.062 -0.0521 -0.0841  1.3083
   90CHL1  H22B 9124   2.304   6.566   8.060  0.2423  0.8206  1.2900
   90CHL1   C23 9125   2.484   6.622   8.171 -0.6040  0.3626 -0.1052
   90CHL1  H23A 9126   2.516   6.516   8.170 -2.4955 -0.2346 -0.6499
   90CHL1  H23B 9127   2.571   6.687   8.145 -0.5871  0.4849  0.2512
   90CHL1   C24 9128   2.412   6.660   8.300  0.0491 -0.8138 -0.9174
   90CHL1  H24A 9129   2.362   6.760   8.305  0.6444 -0.5452 -0.1725
   90CHL1  H24B 9130   2.322   6.594   8.299 -0.2127 -0.5081  0.1556
   90CHL1   C25 9131   2.478   6.625   8.438 -0.2102 -0.2874  0.1917
   90CHL1   H25 9132   2.413   6.667   8.517 -0.5304  0.1550 -0.2990
   90CHL1   C26 9133   2.466   6.478   8.460 -0.1650  0.1507 -0.0940
   90CHL1  H26A 9134   2.459   6.449   8.567 -2.8868 -0.8143 -0.4587
   90CHL1  H26B 9135   2.369   6.437   8.423 -0.2312 -0.1025  0.3517
   90CHL1  H26C 9136   2.548   6.420   8.414 -1.5658 -1.1212 -1.0746
   90CHL1   C27 9137   2.622   6.684   8.453  0.1391  0.3793  0.5922
   90CHL1  H27A 9138   2.678   6.656   8.361  0.5483 -1.9503  1.4821
   90CHL1  H27B 9139   2.623   6.793   8.472 -1.1567  0.2182  1.6646
   90CHL1  H27C 9140   2.675   6.631   8.535  1.9595  0.2339 -0.6112
   91CHL1    C3 9141   4.802   2.072   7.283 -0.5463 -0.4358  0.6365
   91CHL1    H3 9142   4.798   1.964   7.309 -0.4854 -0.1791  1.7399
   91CHL1    O3 9143   4.776   2.074   7.141 -0.1182  0.2538  0.3339
   91CHL1   H3' 9144   4.776   2.165   7.111  0.7763  0.0395 -0.3747
   91CHL1    C4 9145   4.704   2.154   7.364 -0.2422  0.4523 -0.0486
   91CHL1   H4A 9146   4.702   2.255   7.316  2.9450 -0.8638 -3.4597
   91CHL1   H4B 9147   4.605   2.110   7.342 -0.4631 -0.3579  2.3669
   91CHL1    C5 9148   4.735   2.154   7.511  0.1651  0.7106  0.2361
   91CHL1    C6 9149   4.641   2.120   7.601 -0.3467 -0.9317  1.7057
   91CHL1    H6 9150   4.539   2.085   7.576 -0.5131 -0.0252  1.0957
   91CHL1    C7 9151   4.674   2.108   7.748  0.2085 -0.0261 -0.5695
   91CHL1   H7A 9152   4.589   2.133   7.814  0.1066  1.6470 -1.2875
   91CHL1   H7B 9153   4.704   2.003   7.771  1.7942  0.3166 -0.8972
   91CHL1    C8 9154   4.795   2.191   7.792 -0.8061 -0.0896  0.5708
   91CHL1    H8 9155   4.768   2.298   7.778  0.7194  0.0573 -1.7765
   91CHL1   C14 9156   4.839   2.153   7.932 -0.5728 -0.1327 -0.1908
   91CHL1   H14 9157   4.863   2.046   7.918 -1.1946 -0.0768 -1.8763
   91CHL1   C15 9158   4.741   2.152   8.055 -0.0480 -0.0559 -0.0585
   91CHL1  H15A 9159   4.694   2.249   8.082  0.5440 -0.0403  0.9455
   91CHL1  H15B 9160   4.668   2.069   8.065  1.8752 -1.6468  1.3739
   91CHL1   C16 9161   4.836   2.132   8.174  0.4026 -0.3308  0.4265
   91CHL1  H16A 9162   4.805   2.206   8.251  0.8265 -2.2538  2.5768
   91CHL1  H16B 9163   4.827   2.034   8.225  1.7425 -0.4424  0.4881
   91CHL1   C17 9164   4.983   2.151   8.127  0.1448 -0.1147 -0.3702
   91CHL1   H17 9165   5.028   2.052   8.107  3.6641  1.2256  0.1102
   91CHL1   C13 9166   4.967   2.217   7.988  0.6477 -0.1854 -0.5975
   91CHL1   C18 9167   4.940   2.371   8.007 -0.6112  0.1195  0.4085
   91CHL1  H18A 9168   5.031   2.418   8.048  0.4415  0.0146 -1.6372
   91CHL1  H18B 9169   4.930   2.428   7.912 -2.7898 -0.6390  0.1144
   91CHL1  H18C 9170   4.846   2.389   8.063  0.3952  1.5973  1.6859
   91CHL1   C12 9171   5.077   2.193   7.890 -0.7904  0.1897  0.2308
   91CHL1  H12A 9172   5.168   2.248   7.921 -2.7014  2.7509  1.6662
   91CHL1  H12B 9173   5.099   2.086   7.870 -0.5789 -0.1997  2.3373
   91CHL1   C11 9174   5.040   2.234   7.746  0.1679 -0.4294 -0.2813
   91CHL1  H11A 9175   5.025   2.344   7.748 -2.3242 -0.7150  1.0703
   91CHL1  H11B 9176   5.127   2.215   7.679 -0.0798  2.8502 -1.7161
   91CHL1    C9 9177   4.909   2.170   7.696  0.2901 -0.2943  0.0756
   91CHL1    H9 9178   4.930   2.061   7.693 -0.7981 -0.5024 -0.6908
   91CHL1   C10 9179   4.877   2.194   7.547 -0.8182  0.4280  0.5348
   91CHL1   C19 9180   4.888   2.352   7.512  0.0854  0.5909 -0.1681
   91CHL1  H19A 9181   4.876   2.363   7.402 -1.6644 -0.5940 -0.1268
   91CHL1  H19B 9182   4.808   2.405   7.569 -1.4132 -1.9765  0.2679
   91CHL1  H19C 9183   4.987   2.384   7.552 -0.9748  1.4696  1.9006
   91CHL1    C1 9184   4.986   2.128   7.458 -0.9195  0.0398  0.3262
   91CHL1   H1A 9185   5.083   2.181   7.463  0.2161 -1.8026 -0.6809
   91CHL1   H1B 9186   5.007   2.022   7.485  2.1732  0.6095  0.4866
   91CHL1    C2 9187   4.940   2.115   7.306 -0.1069 -0.3824 -0.4429
   91CHL1   H2A 9188   5.006   2.037   7.263 -0.6603 -2.8362  2.7993
   91CHL1   H2B 9189   4.949   2.218   7.265  0.9650  0.8445  2.5641
   91CHL1   C20 9190   5.073   2.216   8.232 -0.2602  0.5560  0.6414
   91CHL1   H20 9191   5.030   2.314   8.264 -0.8902 -0.1906  2.1381
   91CHL1   C21 9192   5.220   2.232   8.189  0.2822  0.3407  0.0397
   91CHL1  H21A 9193   5.265   2.139   8.150 -0.6553 -0.9275  1.8598
   91CHL1  H21B 9194   5.282   2.274   8.271  0.1951 -1.1983  0.9169
   91CHL1  H21C 9195   5.230   2.301   8.102 -0.8203  0.2829 -0.1493
   91CHL1   C22 9196   5.061   2.133   8.357 -0.2585  0.5275 -0.3748
   91CHL1  H22A 9197   5.122   2.186   8.433  1.2112 -1.3677 -0.1668
   91CHL1  H22B 9198   4.963   2.134   8.409  0.4751 -1.3820  1.1414
   91CHL1   C23 9199   5.094   1.988   8.354 -0.0274  0.5510 -0.4033
   91CHL1  H23A 9200   5.021   1.932   8.292 -1.0711  0.7794  0.5778
   91CHL1  H23B 9201   5.190   1.972   8.300  0.3137 -2.8958  0.9828
   91CHL1   C24 9202   5.108   1.921   8.497 -0.5669 -0.3233 -0.0852
   91CHL1  H24A 9203   5.158   1.823   8.487  0.7361  0.4672 -2.2056
   91CHL1  H24B 9204   5.183   1.980   8.555  2.6418 -1.1434 -3.0461
   91CHL1   C25 9205   4.975   1.915   8.573  0.0544  0.4090 -0.1976
   91CHL1   H25 9206   4.923   2.013   8.577  0.3917  0.5445  1.2957
   91CHL1   C26 9207   4.890   1.814   8.503  0.2546  0.1360 -0.3061
   91CHL1  H26A 9208   4.799   1.797   8.565  0.4389  0.4988  0.0656
   91CHL1  H26B 9209   4.850   1.846   8.404 -0.2403  2.1439  0.5011
   91CHL1  H26C 9210   4.946   1.719   8.512 -2.2837 -1.3790  0.5073
   91CHL1   C27 9211   4.995   1.876   8.717  0.0343  0.3185 -0.8756
   91CHL1  H27A 9212   4.909   1.812   8.745  0.7467  0.2495  1.3427
   91CHL1  H27B 9213   5.086   1.816   8.741  0.7193  1.1632 -1.2850
   91CHL1  H27C 9214   4.996   1.965   8.784  1.2656 -0.0044 -0.4394
   92CHL1    C3 9215   2.283   3.734   6.958 -0.7134 -0.0303 -0.4119
   92CHL1    H3 9216   2.359   3.657   6.983  2.2873  2.1596 -2.1666
   92CHL1    O3 9217   2.253   3.740   6.823  0.0670 -0.1860  0.1150
   92CHL1   H3' 9218   2.158   3.731   6.822  0.1993 -2.8142  1.4663
   92CHL1    C4 9219   2.147   3.728   7.032 -0.0931  0.1032 -0.8432
   92CHL1   H4A 9220   2.096   3.819   6.993  0.6067 -0.7664 -4.1078
   92CHL1   H4B 9221   2.093   3.637   6.998  1.5007 -0.3377 -2.2954
   92CHL1    C5 9222   2.180   3.722   7.184  0.1212 -0.2756  0.0021
   92CHL1    C6 9223   2.141   3.616   7.260  1.1717  0.9064  0.4628
   92CHL1    H6 9224   2.079   3.538   7.213 -1.8105  3.9341 -1.0537
   92CHL1    C7 9225   2.168   3.605   7.406 -0.6784  0.0550 -0.1544
   92CHL1   H7A 9226   2.074   3.574   7.455 -0.7988  1.7884  0.8106
   92CHL1   H7B 9227   2.237   3.519   7.417 -0.0544  0.4286 -0.9708
   92CHL1    C8 9228   2.226   3.734   7.471  0.2043 -0.2219  0.5458
   92CHL1    H8 9229   2.136   3.799   7.475  0.8655  0.6840  1.2975
   92CHL1   C14 9230   2.281   3.691   7.602 -0.5684 -0.5153 -0.5666
   92CHL1   H14 9231   2.365   3.622   7.579  0.4635  1.3139 -2.7582
   92CHL1   C15 9232   2.203   3.611   7.704 -0.2638  0.2630 -0.4205
   92CHL1  H15A 9233   2.101   3.649   7.727  0.1910  1.7175 -0.7033
   92CHL1  H15B 9234   2.192   3.512   7.655  1.0897  0.2024 -0.6217
   92CHL1   C16 9235   2.284   3.623   7.831  0.0247 -0.3198  0.2634
   92CHL1  H16A 9236   2.208   3.648   7.908 -1.0428  1.1331 -1.1920
   92CHL1  H16B 9237   2.320   3.524   7.865 -0.9123 -1.3269 -1.5579
   92CHL1   C17 9238   2.398   3.722   7.804 -0.2073 -0.6427  0.5530
   92CHL1   H17 9239   2.478   3.657   7.763 -0.5800  0.4675 -2.1049
   92CHL1   C13 9240   2.351   3.800   7.680 -0.2962  0.7196 -0.5378
   92CHL1   C18 9241   2.242   3.909   7.716 -0.0788 -0.1204  0.1711
   92CHL1  H18A 9242   2.302   3.999   7.740  1.9517 -1.2875 -0.3436
   92CHL1  H18B 9243   2.176   3.919   7.627 -0.2971 -0.5165  0.2865
   92CHL1  H18C 9244   2.178   3.878   7.802  0.1931 -0.3551  0.2899
   92CHL1   C12 9245   2.468   3.858   7.592 -0.3708 -0.4610  0.0795
   92CHL1  H12A 9246   2.501   3.955   7.636  1.1361 -0.4246 -1.0864
   92CHL1  H12B 9247   2.550   3.784   7.597 -2.6664 -3.2163 -0.5899
   92CHL1   C11 9248   2.419   3.901   7.451 -0.6236  0.2141  0.2544
   92CHL1  H11A 9249   2.350   3.984   7.474 -1.2829 -0.7732  2.0332
   92CHL1  H11B 9250   2.498   3.932   7.380  0.0058 -0.1950  0.7639
   92CHL1    C9 9251   2.338   3.792   7.379  0.1931 -0.7577  0.2154
   92CHL1    H9 9252   2.411   3.711   7.359 -0.7020 -0.7162 -4.3515
   92CHL1   C10 9253   2.277   3.827   7.243 -0.2790  0.3609  0.3532
   92CHL1   C19 9254   2.199   3.955   7.255  0.8674 -0.1314 -0.7507
   92CHL1  H19A 9255   2.267   4.036   7.287  2.6739 -2.0250  0.4476
   92CHL1  H19B 9256   2.148   3.979   7.159 -0.4916  0.1758  0.0236
   92CHL1  H19C 9257   2.109   3.932   7.316  0.3432  0.3279 -1.3354
   92CHL1    C1 9258   2.394   3.856   7.146  0.0644 -0.0148  0.5243
   92CHL1   H1A 9259   2.442   3.953   7.170 -1.0076  0.8331 -0.6283
   92CHL1   H1B 9260   2.466   3.772   7.151 -0.3376 -0.3922  0.0448
   92CHL1    C2 9261   2.354   3.864   6.999 -0.7528 -0.2981  0.1512
   92CHL1   H2A 9262   2.446   3.888   6.942 -1.4007  0.7864 -0.4495
   92CHL1   H2B 9263   2.299   3.959   6.987  1.9379  1.6344  1.8363
   92CHL1   C20 9264   2.440   3.801   7.930  0.2903 -0.0958 -0.1629
   92CHL1   H20 9265   2.419   3.909   7.915  0.5700  0.0114  0.1952
   92CHL1   C21 9266   2.593   3.787   7.934  0.1065  0.3220 -0.2654
   92CHL1  H21A 9267   2.629   3.807   7.830 -0.2048 -2.7749 -1.0709
   92CHL1  H21B 9268   2.626   3.686   7.964 -0.7704  0.3197  0.7117
   92CHL1  H21C 9269   2.642   3.863   7.999 -0.7298  0.7312 -0.1031
   92CHL1   C22 9270   2.371   3.762   8.066 -0.0060  0.4654 -0.6807
   92CHL1  H22A 9271   2.265   3.789   8.052 -0.7369 -1.4990  0.6689
   92CHL1  H22B 9272   2.382   3.656   8.095  2.8402  0.9163  0.2380
   92CHL1   C23 9273   2.437   3.824   8.188  0.5433  0.1242  0.9578
   92CHL1  H23A 9274   2.539   3.795   8.221 -0.3515  1.2290  5.2312
   92CHL1  H23B 9275   2.437   3.930   8.154  1.5596 -0.1929 -0.1238
   92CHL1   C24 9276   2.352   3.825   8.316  0.2324  0.8323  0.4613
   92CHL1  H24A 9277   2.267   3.896   8.303 -0.3065 -0.1249 -1.6255
   92CHL1  H24B 9278   2.315   3.721   8.327  2.1427 -0.1237 -1.5175
   92CHL1   C25 9279   2.438   3.871   8.442 -0.3376  0.6608  0.1702
   92CHL1   H25 9280   2.521   3.936   8.408  0.0880  0.4475  0.8021
   92CHL1   C26 9281   2.352   3.957   8.537 -0.3345 -0.2881  0.3282
   92CHL1  H26A 9282   2.311   4.047   8.487 -1.6951  0.8748  3.2732
   92CHL1  H26B 9283   2.255   3.917   8.574 -0.1242  0.2914  1.5659
   92CHL1  H26C 9284   2.420   3.989   8.619  0.3485 -2.2050  0.5752
   92CHL1   C27 9285   2.497   3.753   8.517  0.0393  0.0416  0.3142
   92CHL1  H27A 9286   2.426   3.691   8.576  1.7841 -1.8803  0.5090
   92CHL1  H27B 9287   2.552   3.684   8.450  0.7761  0.9157  0.0048
   92CHL1  H27C 9288   2.574   3.780   8.591  3.0962 -0.7697 -2.3388
   93CHL1    C3 9289   5.254   2.124   6.869 -0.7699  0.6935 -0.6196
   93CHL1    H3 9290   5.165   2.081   6.920 -0.2154  0.4097  0.1127
   93CHL1    O3 9291   5.225   2.128   6.728  0.0378  0.3953  0.0108
   93CHL1   H3' 9292   5.299   2.182   6.697  0.2222 -0.1444 -0.5041
   93CHL1    C4 9293   5.267   2.259   6.927  0.5333 -0.9669 -0.1422
   93CHL1   H4A 9294   5.346   2.316   6.874 -0.6377 -0.2123 -1.1385
   93CHL1   H4B 9295   5.178   2.319   6.898  3.3772  2.4303 -2.8627
   93CHL1    C5 9296   5.307   2.264   7.071 -0.7539 -0.5039  0.0915
   93CHL1    C6 9297   5.245   2.350   7.157  0.1794 -0.1894 -0.7999
   93CHL1    H6 9298   5.162   2.413   7.122 -0.4830  0.0264  1.0638
   93CHL1    C7 9299   5.281   2.361   7.305 -1.4085  0.1907 -0.3695
   93CHL1   H7A 9300   5.296   2.465   7.343  2.1876 -0.0238 -0.8662
   93CHL1   H7B 9301   5.203   2.315   7.369 -2.4109 -0.9439 -2.3272
   93CHL1    C8 9302   5.415   2.287   7.336 -0.0269 -0.9619 -1.1645
   93CHL1    H8 9303   5.495   2.362   7.317  0.1524 -0.0777  2.3008
   93CHL1   C14 9304   5.414   2.267   7.484 -0.0995 -0.1106  0.3265
   93CHL1   H14 9305   5.330   2.195   7.495 -2.4304  2.1056 -1.8468
   93CHL1   C15 9306   5.401   2.385   7.574  0.8270  0.0664 -0.1775
   93CHL1  H15A 9307   5.449   2.473   7.526  1.8807 -0.4022  0.0061
   93CHL1  H15B 9308   5.298   2.425   7.591  0.5350 -0.6666 -0.1946
   93CHL1   C16 9309   5.456   2.349   7.709  0.0535  0.1849  1.3548
   93CHL1  H16A 9310   5.541   2.404   7.754  0.1204 -0.5659  2.1834
   93CHL1  H16B 9311   5.373   2.332   7.781 -0.3761 -0.5357  0.7038
   93CHL1   C17 9312   5.515   2.201   7.687 -0.1023 -1.0903 -0.2559
   93CHL1   H17 9313   5.430   2.133   7.708  0.5145 -2.7698 -2.7986
   93CHL1   C13 9314   5.541   2.194   7.537 -0.3402  0.5441  0.6113
   93CHL1   C18 9315   5.665   2.279   7.517 -1.1881 -0.7200  0.0103
   93CHL1  H18A 9316   5.681   2.373   7.575  1.8056 -1.6817  0.9638
   93CHL1  H18B 9317   5.758   2.217   7.521 -0.3136  0.5872  0.9141
   93CHL1  H18C 9318   5.662   2.320   7.414 -3.4860 -1.1261 -0.1290
   93CHL1   C12 9319   5.560   2.060   7.468 -0.1860 -0.5074  0.5902
   93CHL1  H12A 9320   5.653   2.014   7.509  2.3590  2.0753 -1.7658
   93CHL1  H12B 9321   5.476   1.993   7.495 -0.2328 -0.0353  1.6790
   93CHL1   C11 9322   5.562   2.077   7.309  0.4326  0.3313 -0.2551
   93CHL1  H11A 9323   5.649   2.140   7.279  1.5917 -0.9911  0.1933
   93CHL1  H11B 9324   5.562   1.978   7.259  1.7693 -0.8031  1.8420
   93CHL1    C9 9325   5.435   2.153   7.263  0.7046  0.1242 -0.0895
   93CHL1    H9 9326   5.351   2.088   7.298 -0.5185  0.9787 -1.3212
   93CHL1   C10 9327   5.420   2.170   7.108 -0.4603  0.3442  0.7608
   93CHL1   C19 9328   5.558   2.228   7.065  0.2245 -0.2099  0.0348
   93CHL1  H19A 9329   5.565   2.272   6.963 -1.5134  1.2053  0.4819
   93CHL1  H19B 9330   5.591   2.301   7.142  1.3625 -0.0445 -0.5942
   93CHL1  H19C 9331   5.627   2.141   7.063  1.3834  0.7015 -1.3766
   93CHL1    C1 9332   5.410   2.033   7.042 -0.4554 -0.2109  0.2220
   93CHL1   H1A 9333   5.503   1.973   7.050 -0.7574 -0.8182 -0.6061
   93CHL1   H1B 9334   5.331   1.979   7.099 -1.9024  0.7722 -0.7670
   93CHL1    C2 9335   5.380   2.037   6.883  0.1953  0.1393  0.3286
   93CHL1   H2A 9336   5.360   1.938   6.837 -2.3010  0.7802 -0.1130
   93CHL1   H2B 9337   5.465   2.081   6.826 -0.3925 -1.9502 -2.3842
   93CHL1   C20 9338   5.623   2.157   7.797  0.0851  0.4601  1.3711
   93CHL1   H20 9339   5.721   2.198   7.763 -0.2465 -0.4224 -0.8532
   93CHL1   C21 9340   5.626   1.996   7.796 -0.5443  0.2753 -0.0692
   93CHL1  H21A 9341   5.522   1.959   7.810 -0.9356  1.7672  1.2604
   93CHL1  H21B 9342   5.674   1.961   7.890  0.0832 -2.4975 -1.3245
   93CHL1  H21C 9343   5.682   1.953   7.710 -0.1516 -2.4946  1.4688
   93CHL1   C22 9344   5.594   2.215   7.942  0.1089 -1.2568 -0.4027
   93CHL1  H22A 9345   5.625   2.321   7.935  1.5791 -1.6835 -0.5061
   93CHL1  H22B 9346   5.487   2.208   7.974  0.1617  2.6249  1.3021
   93CHL1   C23 9347   5.681   2.165   8.059 -0.6201  0.5307 -0.8127
   93CHL1  H23A 9348   5.628   2.080   8.108  1.7685 -0.9842 -0.6957
   93CHL1  H23B 9349   5.780   2.128   8.026  0.4942 -1.0479  3.5558
   93CHL1   C24 9350   5.701   2.270   8.174 -0.4622  0.9457  0.3148
   93CHL1  H24A 9351   5.773   2.348   8.142  0.9212 -0.5320 -0.3322
   93CHL1  H24B 9352   5.607   2.325   8.198  1.6289  4.7376  0.6251
   93CHL1   C25 9353   5.754   2.203   8.305  0.3668  0.2215  0.0172
   93CHL1   H25 9354   5.676   2.135   8.344  0.0360  0.4689 -0.2061
   93CHL1   C26 9355   5.888   2.130   8.277 -0.1130 -0.3325 -0.5181
   93CHL1  H26A 9356   5.926   2.074   8.366 -2.2010 -1.2150 -0.1174
   93CHL1  H26B 9357   5.882   2.049   8.201  0.5892 -0.6871 -0.2116
   93CHL1  H26C 9358   5.965   2.197   8.234  0.1660  1.1587  2.0605
   93CHL1   C27 9359   5.769   2.309   8.413 -0.4883 -0.7898 -0.3766
   93CHL1  H27A 9360   5.822   2.265   8.500  2.3376  2.5640 -0.2039
   93CHL1  H27B 9361   5.809   2.407   8.379 -3.1224  0.6875  0.5915
   93CHL1  H27C 9362   5.666   2.343   8.432 -0.2154 -0.3452  0.3073
   94CHL1    C3 9363   2.073   5.140   6.963 -0.0529  0.4506  0.0634
   94CHL1    H3 9364   2.163   5.114   7.023  0.8933  2.0457 -0.5668
   94CHL1    O3 9365   2.094   5.111   6.828 -0.7177 -0.3803 -0.5198
   94CHL1   H3' 9366   2.026   5.168   6.789 -1.0466 -0.3573  0.0772
   94CHL1    C4 9367   1.951   5.055   7.004  0.1380  0.7582  0.2776
   94CHL1   H4A 9368   1.869   5.090   6.938 -0.1366 -0.9062 -0.3120
   94CHL1   H4B 9369   1.977   4.951   6.976  0.1402 -0.6778  4.7615
   94CHL1    C5 9370   1.937   5.065   7.154  0.6901 -0.5422  0.0430
   94CHL1    C6 9371   1.932   4.950   7.236  1.0163 -0.0144  0.8230
   94CHL1    H6 9372   1.948   4.850   7.195 -0.0061 -1.1447  3.0082
   94CHL1    C7 9373   1.913   4.946   7.383  0.0082 -0.4236  0.3431
   94CHL1   H7A 9374   1.836   4.872   7.414 -0.0770 -1.2012 -1.5840
   94CHL1   H7B 9375   2.008   4.916   7.432  0.1161  1.2314  1.2303
   94CHL1    C8 9376   1.868   5.091   7.436 -0.0476  0.5895  1.2273
   94CHL1    H8 9377   1.758   5.096   7.423 -0.1885 -1.8739  1.0087
   94CHL1   C14 9378   1.877   5.101   7.585  0.5042  0.2440  0.2591
   94CHL1   H14 9379   1.983   5.104   7.619  0.7846 -0.4998 -0.5090
   94CHL1   C15 9380   1.817   4.979   7.658 -0.2026 -0.1015 -0.0424
   94CHL1  H15A 9381   1.716   4.952   7.620 -1.2009 -0.1601  2.4404
   94CHL1  H15B 9382   1.888   4.894   7.668  0.0782 -0.0366 -1.4024
   94CHL1   C16 9383   1.786   5.030   7.801 -0.1048 -1.0414  0.1333
   94CHL1  H16A 9384   1.677   5.040   7.825 -0.0101 -0.9375  0.5326
   94CHL1  H16B 9385   1.846   4.977   7.878 -2.1781 -0.9510  1.9453
   94CHL1   C17 9386   1.840   5.176   7.803  0.2446 -0.3282 -0.8909
   94CHL1   H17 9387   1.949   5.179   7.820  0.1904 -0.9025 -0.4078
   94CHL1   C13 9388   1.821   5.227   7.651 -0.2604 -0.1392  0.0252
   94CHL1   C18 9389   1.671   5.253   7.625  0.3716  0.2399 -0.6943
   94CHL1  H18A 9390   1.612   5.175   7.678  0.2837 -0.9475 -2.4460
   94CHL1  H18B 9391   1.639   5.350   7.668  1.7147 -0.5314  2.2974
   94CHL1  H18C 9392   1.629   5.240   7.522 -3.5936 -2.5509  1.0264
   94CHL1   C12 9393   1.906   5.344   7.592  1.0146 -0.2612  0.5750
   94CHL1  H12A 9394   1.879   5.444   7.632  1.2790  0.5853 -1.2675
   94CHL1  H12B 9395   2.016   5.325   7.600  1.3177  0.5667 -1.1763
   94CHL1   C11 9396   1.897   5.348   7.435 -0.3068 -0.2949  0.1543
   94CHL1  H11A 9397   1.790   5.373   7.418 -0.7898 -2.7099 -0.8508
   94CHL1  H11B 9398   1.969   5.427   7.404 -1.0040  1.2401  2.2213
   94CHL1    C9 9399   1.939   5.210   7.366 -0.6666 -0.4848  0.0294
   94CHL1    H9 9400   2.049   5.199   7.377 -0.3452  3.3280  2.1710
   94CHL1   C10 9401   1.921   5.208   7.207 -0.0484  0.1252 -1.1754
   94CHL1   C19 9402   1.782   5.254   7.179 -0.3031 -0.0530  0.2099
   94CHL1  H19A 9403   1.700   5.195   7.224  0.7792 -1.8206 -0.0280
   94CHL1  H19B 9404   1.760   5.362   7.192 -0.1532 -0.2052  1.9031
   94CHL1  H19C 9405   1.770   5.230   7.071 -1.5274 -1.4496  0.6261
   94CHL1    C1 9406   2.022   5.302   7.141  0.8158 -0.3161  0.0149
   94CHL1   H1A 9407   1.975   5.401   7.159 -4.2464 -2.5938  1.0433
   94CHL1   H1B 9408   2.124   5.300   7.187  1.6560 -0.9344 -1.7842
   94CHL1    C2 9409   2.052   5.287   6.992 -0.0749  0.2594  0.5131
   94CHL1   H2A 9410   2.145   5.344   6.977  0.2667 -0.4958 -0.2983
   94CHL1   H2B 9411   1.972   5.332   6.930 -0.9629  0.2612  1.6234
   94CHL1   C20 9412   1.770   5.264   7.918  0.1673 -0.1291  0.3303
   94CHL1   H20 9413   1.660   5.273   7.902 -0.1280 -2.1225  0.9530
   94CHL1   C21 9414   1.846   5.399   7.946 -0.1378 -0.1674 -0.2444
   94CHL1  H21A 9415   1.800   5.446   8.036 -2.1586 -2.5489  0.0688
   94CHL1  H21B 9416   1.838   5.467   7.858 -2.4387  0.5137  0.4424
   94CHL1  H21C 9417   1.956   5.389   7.963 -0.4852 -1.1004  1.7403
   94CHL1   C22 9418   1.770   5.204   8.062 -0.4052  0.1877 -0.4270
   94CHL1  H22A 9419   1.819   5.105   8.064 -0.6493  0.0840  0.7469
   94CHL1  H22B 9420   1.821   5.271   8.135 -0.6945 -0.3383  0.2617
   94CHL1   C23 9421   1.623   5.183   8.111 -0.7672 -0.2564  0.3184
   94CHL1  H23A 9422   1.559   5.273   8.107 -1.4046 -0.5177  2.9964
   94CHL1  H23B 9423   1.575   5.100   8.055 -0.8202 -0.0317  0.0287
   94CHL1   C24 9424   1.611   5.134   8.256  0.1115  0.5932 -0.4812
   94CHL1  H24A 9425   1.506   5.103   8.275  0.3370 -0.0177 -0.2083
   94CHL1  H24B 9426   1.663   5.038   8.277  1.3876  1.4860  0.6346
   94CHL1   C25 9427   1.662   5.234   8.366 -0.1086 -0.1992  0.0226
   94CHL1   H25 9428   1.773   5.231   8.356 -0.1446 -1.7789 -0.1794
   94CHL1   C26 9429   1.622   5.379   8.333  0.1923 -0.2327  0.2079
   94CHL1  H26A 9430   1.652   5.401   8.229  0.3896 -3.8985 -0.6436
   94CHL1  H26B 9431   1.514   5.396   8.353  0.1446 -0.0758 -0.1736
   94CHL1  H26C 9432   1.682   5.439   8.405  0.5542  1.6069 -1.5614
   94CHL1   C27 9433   1.620   5.198   8.508  0.3174  0.3455 -0.7319
   94CHL1  H27A 9434   1.660   5.277   8.575 -0.2695  1.7771 -2.0092
   94CHL1  H27B 9435   1.510   5.192   8.520  0.3172  2.4407  0.7033
   94CHL1  H27C 9436   1.668   5.102   8.539  0.0492  0.6731  0.7350
   95CHL1    C3 9437   2.274   2.657   6.975  0.4865 -0.1321 -0.2584
   95CHL1    H3 9438   2.318   2.564   7.017  2.8273  0.1919 -1.8041
   95CHL1    O3 9439   2.316   2.674   6.837  0.2145 -0.0516  0.1583
   95CHL1   H3' 9440   2.291   2.601   6.781  1.7555 -1.7460  1.5596
   95CHL1    C4 9441   2.123   2.650   6.987  0.6256 -0.0554 -0.4075
   95CHL1   H4A 9442   2.082   2.744   6.944 -1.2355  0.3646  2.0642
   95CHL1   H4B 9443   2.075   2.566   6.932 -0.2016 -0.7297  1.2904
   95CHL1    C5 9444   2.080   2.650   7.132  0.5286  0.3452  0.0853
   95CHL1    C6 9445   1.995   2.554   7.175 -0.2581 -0.1402 -0.5658
   95CHL1    H6 9446   1.958   2.476   7.107 -0.9414  1.7130 -2.4308
   95CHL1    C7 9447   1.936   2.544   7.311 -0.2531 -0.1949  0.0395
   95CHL1   H7A 9448   1.828   2.519   7.309  0.0133 -1.5883  1.4841
   95CHL1   H7B 9449   1.988   2.465   7.369 -1.1256 -1.4105 -0.7891
   95CHL1    C8 9450   1.955   2.684   7.384 -0.6953  1.0550 -0.9371
   95CHL1    H8 9451   1.874   2.750   7.348 -0.6420  0.1680 -2.8289
   95CHL1   C14 9452   1.937   2.654   7.540  0.4349  0.1302 -0.2574
   95CHL1   H14 9453   2.018   2.580   7.559 -0.5094 -0.2751  2.7261
   95CHL1   C15 9454   1.810   2.583   7.592 -0.4381 -0.6492 -0.7783
   95CHL1  H15A 9455   1.725   2.623   7.533  0.4714 -0.4191 -1.9780
   95CHL1  H15B 9456   1.815   2.474   7.571 -0.1872 -1.1048  1.3720
   95CHL1   C16 9457   1.803   2.608   7.744 -0.5659  0.9693 -0.2242
   95CHL1  H16A 9458   1.706   2.657   7.769  0.3344  2.1420  1.1073
   95CHL1  H16B 9459   1.812   2.519   7.809  0.4764  1.7505  0.7301
   95CHL1   C17 9460   1.917   2.722   7.768 -0.6161 -0.4695 -0.3915
   95CHL1   H17 9461   2.002   2.661   7.807  0.5325  0.1038 -1.9215
   95CHL1   C13 9462   1.946   2.773   7.627 -0.3216 -0.3273 -0.0982
   95CHL1   C18 9463   1.829   2.870   7.596 -0.6121  0.2578  0.0652
   95CHL1  H18A 9464   1.725   2.832   7.605  0.1392 -2.4051 -1.4269
   95CHL1  H18B 9465   1.845   2.964   7.654 -1.2499 -0.1835  0.9807
   95CHL1  H18C 9466   1.835   2.892   7.487 -0.1746 -1.9920 -0.4148
   95CHL1   C12 9467   2.089   2.830   7.612  0.3557  0.0465 -0.6515
   95CHL1  H12A 9468   2.112   2.917   7.676 -1.3561 -0.1315  0.2596
   95CHL1  H12B 9469   2.163   2.749   7.629 -0.4704 -0.5346  0.2698
   95CHL1   C11 9470   2.117   2.871   7.466  0.6059  0.2114  0.2167
   95CHL1  H11A 9471   2.041   2.950   7.445 -0.5192 -1.1722 -1.1425
   95CHL1  H11B 9472   2.214   2.924   7.454  0.4569 -0.0780 -3.2416
   95CHL1    C9 9473   2.095   2.748   7.362  0.1041  0.2131 -0.7873
   95CHL1    H9 9474   2.159   2.663   7.392 -0.8125 -0.2738 -0.1607
   95CHL1   C10 9475   2.130   2.767   7.213  0.3654  0.2070  0.4385
   95CHL1   C19 9476   2.055   2.899   7.172  0.7853 -0.0028 -0.0553
   95CHL1  H19A 9477   2.072   2.921   7.064  0.1246 -1.5828 -0.5056
   95CHL1  H19B 9478   1.949   2.889   7.204  1.3582 -1.2730  1.5880
   95CHL1  H19C 9479   2.098   2.980   7.233  3.1782 -1.8081  0.8138
   95CHL1    C1 9480   2.278   2.773   7.191  0.6357  0.4961 -0.8896
   95CHL1   H1A 9481   2.327   2.850   7.254 -0.4726 -1.0380  2.0503
   95CHL1   H1B 9482   2.321   2.679   7.234  2.1871  0.4190 -2.5092
   95CHL1    C2 9483   2.328   2.777   7.050 -0.0490  0.1981 -0.7335
   95CHL1   H2A 9484   2.438   2.790   7.052 -0.1275  1.0588  1.6413
   95CHL1   H2B 9485   2.282   2.867   7.004  0.2553  0.7305 -0.0200
   95CHL1   C20 9486   1.879   2.820   7.882 -0.8861  0.3980  0.1176
   95CHL1   H20 9487   1.786   2.869   7.845 -0.9123 -0.0882 -0.4866
   95CHL1   C21 9488   1.978   2.934   7.914  0.5819  0.1574  0.7602
   95CHL1  H21A 9489   2.079   2.905   7.948  1.5507  1.5318 -0.7829
   95CHL1  H21B 9490   1.938   3.004   7.990 -0.1846 -0.0467  0.5560
   95CHL1  H21C 9491   1.999   2.983   7.816  0.7609  1.3640  1.3883
   95CHL1   C22 9492   1.827   2.753   8.015 -0.1433 -0.0217  0.4354
   95CHL1  H22A 9493   1.812   2.643   8.009  0.0971 -0.1531  1.8179
   95CHL1  H22B 9494   1.907   2.769   8.091  0.4552  1.0617 -0.3939
   95CHL1   C23 9495   1.701   2.821   8.068  0.5699 -0.2131  0.0095
   95CHL1  H23A 9496   1.721   2.927   8.092  0.1836 -0.3678  1.0953
   95CHL1  H23B 9497   1.623   2.809   7.991  1.4978 -2.5604 -0.6491
   95CHL1   C24 9498   1.657   2.772   8.208  0.1528  0.1872 -0.5570
   95CHL1  H24A 9499   1.664   2.662   8.198 -0.1655  0.3024 -2.4247
   95CHL1  H24B 9500   1.724   2.816   8.284  1.0004 -0.0125 -1.1784
   95CHL1   C25 9501   1.507   2.804   8.256  0.1445 -0.7284  0.9362
   95CHL1   H25 9502   1.496   2.913   8.238 -1.2116 -0.9832  0.0663
   95CHL1   C26 9503   1.399   2.729   8.176 -0.6492  0.4480  0.4344
   95CHL1  H26A 9504   1.408   2.620   8.196  1.2254  0.1857 -1.4245
   95CHL1  H26B 9505   1.295   2.748   8.211 -0.6011 -0.9148  1.3675
   95CHL1  H26C 9506   1.421   2.743   8.068 -1.4957  2.3901  0.4745
   95CHL1   C27 9507   1.482   2.776   8.403  0.3023  0.1655 -0.3308
   95CHL1  H27A 9508   1.388   2.825   8.437 -0.1059  0.3556 -1.6776
   95CHL1  H27B 9509   1.463   2.666   8.410  2.9315 -0.4774 -1.9017
   95CHL1  H27C 9510   1.562   2.805   8.473 -0.3779 -1.8610  1.4032
   96CHL1    C3 9511   1.760   2.288   6.955  0.2885  0.4749  0.1501
   96CHL1    H3 9512   1.808   2.369   7.013  1.9825 -0.9668  0.8339
   96CHL1    O3 9513   1.745   2.322   6.822 -0.1791  0.1302 -0.3446
   96CHL1   H3' 9514   1.795   2.404   6.816  0.7277 -0.4411 -0.7992
   96CHL1    C4 9515   1.847   2.164   6.960  0.1671  0.4280 -0.3874
   96CHL1   H4A 9516   1.814   2.091   6.883 -0.0015  1.9480 -1.8322
   96CHL1   H4B 9517   1.949   2.193   6.927  0.0101  0.0675 -1.2251
   96CHL1    C5 9518   1.852   2.101   7.104  0.5138  0.5386  0.4939
   96CHL1    C6 9519   1.972   2.083   7.167 -0.0344 -0.1425  0.6195
   96CHL1    H6 9520   2.068   2.100   7.116 -0.1468  0.4035  0.5865
   96CHL1    C7 9521   1.986   2.011   7.305  0.7278 -0.6719  0.3344
   96CHL1   H7A 9522   2.068   1.939   7.281  0.0288 -1.7133  0.9977
   96CHL1   H7B 9523   2.023   2.074   7.389  1.8170 -2.3716  1.1999
   96CHL1    C8 9524   1.846   1.949   7.354 -0.6165  0.3990  0.0930
   96CHL1    H8 9525   1.834   1.853   7.299  1.2294  0.4811 -0.5318
   96CHL1   C14 9526   1.850   1.906   7.500  0.2020 -0.0853 -0.1773
   96CHL1   H14 9527   1.868   1.999   7.558  1.7671 -0.8117  0.5756
   96CHL1   C15 9528   1.972   1.818   7.553  0.3175 -0.4361  0.4947
   96CHL1  H15A 9529   2.018   1.748   7.481  0.9396 -0.8429  1.2731
   96CHL1  H15B 9530   2.057   1.876   7.595  0.0043 -0.8350  1.7278
   96CHL1   C16 9531   1.921   1.762   7.688  0.3294 -0.5766 -0.2828
   96CHL1  H16A 9532   1.951   1.655   7.680  2.8507  0.0195  0.2921
   96CHL1  H16B 9533   1.972   1.801   7.779 -2.6360  0.1394  1.2053
   96CHL1   C17 9534   1.769   1.798   7.705 -0.4021 -1.1731 -0.0464
   96CHL1   H17 9535   1.770   1.888   7.770 -0.4249 -1.9064  1.0011
   96CHL1   C13 9536   1.725   1.837   7.561  0.0274 -0.3183 -0.2703
   96CHL1   C18 9537   1.688   1.706   7.482 -0.3746 -0.1774  0.4756
   96CHL1  H18A 9538   1.761   1.625   7.501 -0.9005 -0.2858  2.1078
   96CHL1  H18B 9539   1.583   1.678   7.503 -0.4659 -0.6909 -0.5849
   96CHL1  H18C 9540   1.688   1.716   7.371 -0.1733  0.7551  0.5444
   96CHL1   C12 9541   1.621   1.952   7.549 -0.0380  0.5424  0.5653
   96CHL1  H12A 9542   1.520   1.932   7.590 -0.1786  2.9522  1.5929
   96CHL1  H12B 9543   1.663   2.035   7.611  2.5833 -1.6656  1.9693
   96CHL1   C11 9544   1.604   1.995   7.403  0.0202  0.7302 -0.2824
   96CHL1  H11A 9545   1.556   1.915   7.342  0.3072 -0.7636  1.3869
   96CHL1  H11B 9546   1.536   2.082   7.389 -1.7143 -0.3783  0.7504
   96CHL1    C9 9547   1.733   2.042   7.326 -0.6512  0.0928 -0.0525
   96CHL1    H9 9548   1.779   2.135   7.367  0.9113 -0.3922 -0.6421
   96CHL1   C10 9549   1.720   2.072   7.175  0.1391 -0.4117 -0.0649
   96CHL1   C19 9550   1.652   1.949   7.102  0.1523 -0.2665 -0.0733
   96CHL1  H19A 9551   1.548   1.927   7.137  0.0843  1.1937  0.7493
   96CHL1  H19B 9552   1.658   1.972   6.994  2.7000 -0.8428 -0.0982
   96CHL1  H19C 9553   1.717   1.860   7.116  1.3457  0.8388  1.8391
   96CHL1    C1 9554   1.633   2.202   7.161  0.0032 -0.4194 -0.7752
   96CHL1   H1A 9555   1.535   2.169   7.201  0.2761 -0.8060 -0.4054
   96CHL1   H1B 9556   1.686   2.274   7.228  1.7466 -2.5802  0.3151
   96CHL1    C2 9557   1.620   2.261   7.019 -0.2182 -0.1858  0.3673
   96CHL1   H2A 9558   1.567   2.358   7.031 -0.2662 -0.3414  1.5665
   96CHL1   H2B 9559   1.560   2.185   6.964 -1.3177 -0.2756  1.6331
   96CHL1   C20 9560   1.690   1.688   7.785  0.2329  1.1156  0.3060
   96CHL1   H20 9561   1.696   1.595   7.725 -1.4727  1.0772  0.1481
   96CHL1   C21 9562   1.543   1.741   7.797 -0.0631 -0.3415  0.1706
   96CHL1  H21A 9563   1.540   1.849   7.824  0.8557 -0.4969  0.9459
   96CHL1  H21B 9564   1.478   1.682   7.865 -0.6132 -0.3947 -0.3838
   96CHL1  H21C 9565   1.486   1.726   7.703 -2.0222  0.4074  1.1671
   96CHL1   C22 9566   1.746   1.644   7.920 -0.1498 -0.1093  0.0844
   96CHL1  H22A 9567   1.687   1.561   7.965  1.6642 -0.5419  1.7908
   96CHL1  H22B 9568   1.846   1.602   7.901 -0.3933 -1.9441  2.4047
   96CHL1   C23 9569   1.779   1.755   8.022  1.4577  0.4977  0.0942
   96CHL1  H23A 9570   1.878   1.801   8.001  2.2625 -0.8533  0.7665
   96CHL1  H23B 9571   1.699   1.831   8.023  0.3728 -0.6096  0.4240
   96CHL1   C24 9572   1.805   1.704   8.170  0.3346 -0.2759  0.3362
   96CHL1  H24A 9573   1.714   1.702   8.234  0.6414  0.4945  0.8102
   96CHL1  H24B 9574   1.834   1.597   8.161 -0.1549 -0.2914 -1.5440
   96CHL1   C25 9575   1.907   1.780   8.239  0.0725 -0.1982  0.0415
   96CHL1   H25 9576   1.988   1.802   8.166  1.5946  3.1791  2.4773
   96CHL1   C26 9577   1.842   1.916   8.295 -0.1152  0.3765  0.4619
   96CHL1  H26A 9578   1.921   1.963   8.359  2.2828 -0.7532 -1.5003
   96CHL1  H26B 9579   1.813   1.981   8.210 -0.4620 -1.9983 -1.3504
   96CHL1  H26C 9580   1.757   1.886   8.359 -1.5897 -2.3664 -2.5092
   96CHL1   C27 9581   1.968   1.699   8.353  0.2707  0.7602  0.7614
   96CHL1  H27A 9582   2.022   1.608   8.322  0.5584  0.3786  2.3070
   96CHL1  H27B 9583   2.046   1.760   8.403 -0.6601  2.6262  0.0772
   96CHL1  H27C 9584   1.891   1.666   8.426 -0.0804 -0.2154 -0.0191
   97OSM      N 9585   4.550   6.211  11.429 -0.3951 -0.2240  0.4123
   97OSM    C15 9586   4.590   6.340  11.489  0.1123  0.0090  0.2191
   97OSM   H15A 9587   4.689   6.371  11.459  0.6514 -2.1064 -0.3527
   97OSM   H15B 9588   4.574   6.340  11.596 -1.8212 -0.1405 -0.0309
   97OSM   H15C 9589   4.521   6.412  11.445 -0.0998 -1.4638 -2.0245
   97OSM    C14 9590   4.635   6.102  11.501  0.5402 -0.2933 -0.1717
   97OSM   H14A 9591   4.738   6.129  11.483  0.9974 -2.4575 -1.1708
   97OSM   H14B 9592   4.614   6.004  11.460 -1.3432  0.4472 -1.1033
   97OSM   H14C 9593   4.616   6.105  11.607  0.4177 -1.6216 -0.1396
   97OSM    C13 9594   4.405   6.185  11.464 -0.4795 -0.7453  0.6140
   97OSM   H13A 9595   4.378   6.181  11.568 -1.2203 -0.8636  0.4212
   97OSM   H13B 9596   4.370   6.090  11.427 -2.1558  0.3281 -0.6950
   97OSM   H13C 9597   4.335   6.259  11.428  1.5954  0.4960 -1.1296
   97OSM    C12 9598   4.574   6.211  11.279  0.1785  0.1607  0.7240
   97OSM   H12A 9599   4.516   6.289  11.232  1.7717  3.0726  3.2178
   97OSM   H12B 9600   4.543   6.115  11.241 -0.9682  0.8607 -0.2085
   97OSM    C11 9601   4.718   6.245  11.231  0.1764 -0.2486  0.1660
   97OSM   H11A 9602   4.738   6.353  11.244  0.5482 -0.3073  0.0822
   97OSM   H11B 9603   4.717   6.226  11.122  0.7627  2.7914 -0.4462
   97OSM      P 9604   4.951   6.227  11.346 -0.1240  0.0836 -0.0839
   97OSM    O13 9605   4.907   6.319  11.453 -0.6265  0.3097 -0.3365
   97OSM    O14 9606   5.045   6.122  11.383  0.1960  0.8989 -0.5883
   97OSM    O11 9607   5.007   6.312  11.227 -0.1149 -0.0262  0.0528
   97OSM    O12 9608   4.817   6.163  11.289 -0.2172  0.2801 -0.2399
   97OSM    C1S 9609   5.058   6.263  11.104  0.8981 -0.0940  0.8934
   97OSM    H1S 9610   5.054   6.152  11.103 -0.2783 -0.0615  1.1176
   97OSM    H1T 9611   5.163   6.300  11.101  0.5168  1.0769  1.5113
   97OSM     NF 9612   5.033   6.247  10.868 -0.0212 -0.3588 -0.1677
   97OSM    HNF 9613   5.093   6.286  10.798  1.7473 -1.5748  0.5874
   97OSM    C2S 9614   4.984   6.324  10.979  0.2206  0.2520 -0.4892
   97OSM    H2S 9615   4.874   6.312  10.989  0.2485 -0.5943 -1.1228
   97OSM    C3S 9616   5.018   6.473  10.971 -0.3713 -0.3462 -0.0430
   97OSM    H3S 9617   5.128   6.475  10.985 -0.2610 -0.8316 -0.7791
   97OSM     O3 9618   4.959   6.546  11.076  0.1002 -0.3995  0.3121
   97OSM    HO3 9619   4.918   6.474  11.126 -2.4856  0.3340 -0.6087
   97OSM    C4S 9620   4.976   6.534  10.840  0.3193 -0.3037  0.4754
   97OSM    H4S 9621   4.874   6.508  10.807 -1.3090  2.8502  2.5448
   97OSM    C5S 9622   5.047   6.620  10.759 -0.9261 -0.6824  0.4025
   97OSM    H5S 9623   5.146   6.665  10.778 -0.9608 -0.4633  0.0688
   97OSM    C6S 9624   4.995   6.668  10.628 -0.3615  0.2225 -0.1356
   97OSM    H6S 9625   5.024   6.775  10.626 -2.0039  0.7232  0.8260
   97OSM    H6T 9626   4.887   6.646  10.638  0.0267 -2.0714 -0.3153
   97OSM    C7S 9627   5.048   6.596  10.503 -0.6156  0.2768  0.9191
   97OSM    H7S 9628   5.044   6.485  10.507  2.9588 -0.0014 -0.0634
   97OSM    H7T 9629   5.154   6.621  10.484  0.1769 -3.0606  0.3076
   97OSM    C8S 9630   4.959   6.627  10.377 -0.5213 -0.3742 -0.2977
   97OSM    H8S 9631   4.982   6.732  10.350  0.2689 -0.9322 -1.9059
   97OSM    H8T 9632   4.850   6.614  10.396 -0.4084  2.2896  3.2454
   97OSM    C9S 9633   4.988   6.552  10.255  0.3508  0.3513  0.1874
   97OSM    H9S 9634   4.955   6.447  10.272  0.4061  0.3964  0.5886
   97OSM    H9T 9635   5.098   6.543  10.238  0.4310  0.3783  0.6822
   97OSM   C10S 9636   4.909   6.601  10.132 -0.6124  0.1355 -0.2249
   97OSM   H10S 9637   4.951   6.698  10.098  0.9559  0.9728  3.5878
   97OSM   H10T 9638   4.803   6.615  10.165  0.1956  0.3655  2.4686
   97OSM   C11S 9639   4.917   6.499  10.017  0.1814  0.4765 -0.7918
   97OSM   H11S 9640   4.879   6.398  10.043  1.9432  0.0436  0.2548
   97OSM   H11T 9641   5.026   6.499   9.992  0.9602  0.8680  2.2268
   97OSM   C12S 9642   4.845   6.544   9.892 -0.6347 -0.4011 -0.0682
   97OSM   H12S 9643   4.860   6.653   9.873 -0.1777 -0.2282  1.2064
   97OSM   H12T 9644   4.734   6.542   9.899 -0.9089 -0.6163 -3.1378
   97OSM   C13S 9645   4.863   6.462   9.769 -0.5167  0.0243  0.3418
   97OSM   H13S 9646   4.833   6.358   9.794  1.1995 -0.5272  0.1794
   97OSM   H13T 9647   4.970   6.461   9.740 -0.6418  2.1526 -0.3888
   97OSM   C14S 9648   4.776   6.514   9.655 -0.5787  0.3585  0.5111
   97OSM   H14S 9649   4.786   6.622   9.631 -1.1224  0.0312 -1.3266
   97OSM   H14T 9650   4.669   6.489   9.672 -0.6797  1.0067  0.8655
   97OSM   C15S 9651   4.812   6.446   9.519 -0.0049  0.4957  0.0036
   97OSM   H15S 9652   4.770   6.343   9.520 -1.6702  1.0163 -3.1360
   97OSM   H15T 9653   4.919   6.455   9.493  0.3367 -0.2649  1.0781
   97OSM   C16S 9654   4.740   6.513   9.400  0.5546 -0.5174  0.1140
   97OSM   H16S 9655   4.780   6.617   9.392 -0.2797 -0.2439 -0.6850
   97OSM   H16T 9656   4.633   6.502   9.430  0.5795  0.7257  0.7547
   97OSM   C17S 9657   4.743   6.453   9.260 -0.6714  0.2534 -0.9390
   97OSM   H17S 9658   4.706   6.349   9.266 -2.0612  0.8007  1.7149
   97OSM   H17T 9659   4.847   6.442   9.223 -0.2394  0.8564  0.0249
   97OSM   C18S 9660   4.648   6.539   9.171  0.1006 -0.0611  0.7797
   97OSM   H18S 9661   4.544   6.535   9.209  0.0168 -0.9390  0.4864
   97OSM   H18T 9662   4.633   6.486   9.075  0.3448 -2.3206  1.9151
   97OSM   H18U 9663   4.678   6.646   9.165 -1.1291  0.4054  2.3859
   97OSM    C1F 9664   4.988   6.126  10.843  0.5800 -0.0802 -0.6129
   97OSM     OF 9665   4.915   6.065  10.920  0.0268  0.1210  0.3985
   97OSM    C2F 9666   5.038   6.065  10.717 -0.0324  0.2572 -0.2782
   97OSM    H2F 9667   5.137   6.103  10.683  0.9246 -0.6852  1.2852
   97OSM    H2G 9668   4.958   6.096  10.647 -0.4080  0.0311  0.0430
   97OSM    C3F 9669   5.057   5.917  10.732 -0.0720 -0.1208  0.0220
   97OSM    H3F 9670   4.981   5.873  10.800 -1.1541  2.8596  0.8671
   97OSM    H3G 9671   5.158   5.900  10.777  0.9618 -0.2645 -2.2292
   97OSM    C4F 9672   5.048   5.840  10.601 -0.1682  0.4614 -0.0627
   97OSM    H4F 9673   4.954   5.869  10.549 -0.7339 -0.9854  0.1142
   97OSM    H4G 9674   5.051   5.733  10.630  0.2653  0.6545  0.6425
   97OSM    C5F 9675   5.166   5.864  10.510  1.0671 -0.2411 -0.0907
   97OSM    H5F 9676   5.260   5.856  10.568  0.8965 -0.8122  0.1073
   97OSM    H5G 9677   5.150   5.969  10.477  0.5169  0.3317  1.9070
   97OSM    C6F 9678   5.182   5.773  10.388  0.5601  0.8602  0.5274
   97OSM    H6F 9679   5.186   5.669  10.426 -1.5815 -0.4239 -2.4198
   97OSM    H6G 9680   5.282   5.792  10.342 -0.2302  1.7798 -0.8666
   97OSM    C7F 9681   5.064   5.781  10.293  0.6005  0.1908 -0.0389
   97OSM    H7F 9682   5.073   5.879  10.242  0.6923  0.0970 -0.2035
   97OSM    H7G 9683   4.967   5.793  10.345  0.9424  2.8192  0.1405
   97OSM    C8F 9684   5.057   5.667  10.196 -0.3254  0.7811  0.1807
   97OSM    H8F 9685   4.958   5.658  10.148  0.0350  1.2937 -0.7011
   97OSM    H8G 9686   5.054   5.574  10.255  0.8661  0.3615 -0.3749
   97OSM    C9F 9687   5.169   5.667  10.092  0.1424 -0.3349 -0.9010
   97OSM    H9F 9688   5.270   5.687  10.129  0.5200  0.0053 -2.0701
   97OSM   C10F 9689   5.162   5.653   9.957  0.4601  1.3797 -1.2727
   97OSM   H10F 9690   5.261   5.667   9.912  0.7872  2.9476 -0.1438
   97OSM   C11F 9691   5.038   5.621   9.875 -0.4908 -0.0493  0.3989
   97OSM   H11F 9692   4.949   5.679   9.908 -1.1579  1.0653 -2.9671
   97OSM   H11G 9693   5.027   5.511   9.867  4.3593 -0.7266 -0.0081
   97OSM   C12F 9694   5.072   5.677   9.729 -0.4840 -0.3450  0.1554
   97OSM   H12F 9695   5.163   5.626   9.691  0.0275  0.6797 -0.0234
   97OSM   H12G 9696   5.099   5.784   9.739 -1.7087 -0.0611  0.5021
   97OSM   C13F 9697   4.967   5.644   9.628 -0.9416 -0.1228 -0.4080
   97OSM   H13F 9698   4.870   5.691   9.655 -2.5028 -1.6457 -2.9087
   97OSM   H13G 9699   4.953   5.534   9.623  0.4457 -0.2689 -1.8369
   97OSM   C14F 9700   5.001   5.695   9.494 -0.2239  0.2863  0.2619
   97OSM   H14F 9701   5.102   5.660   9.464 -1.0858  0.1490 -2.8822
   97OSM   H14G 9702   5.005   5.804   9.473  2.4393  0.3098  0.5643
   97OSM   C15F 9703   4.909   5.631   9.388 -0.5667  0.4154  0.3536
   97OSM   H15F 9704   4.808   5.669   9.415 -0.3525  2.6502 -1.6422
   97OSM   H15G 9705   4.911   5.521   9.400 -2.3051  0.3407  0.1947
   97OSM   C16F 9706   4.938   5.673   9.244 -0.2322 -0.0144 -0.1767
   97OSM   H16F 9707   5.045   5.702   9.237 -0.1160 -0.1349  0.8849
   97OSM   H16G 9708   4.875   5.758   9.208  2.7899  2.1420 -0.7288
   97OSM   C17F 9709   4.936   5.554   9.145 -0.2291 -0.3455  0.2010
   97OSM   H17F 9710   4.941   5.598   9.043  2.6493 -0.7656  0.0913
   97OSM   H17G 9711   4.850   5.489   9.171  0.6526 -1.6071  0.0086
   97OSM   C18F 9712   5.059   5.468   9.158  0.7860  0.4796  0.3264
   97OSM   H18F 9713   5.049   5.386   9.084 -1.6717 -2.2585  3.3234
   97OSM   H18G 9714   5.064   5.420   9.259  1.3854  2.6369  1.3779
   97OSM   H18H 9715   5.147   5.534   9.153  0.8153  0.4285  0.1794
   98OSM      N 9716   5.376   4.481  11.109  0.1033 -0.1463 -0.4504
   98OSM    C15 9717   5.390   4.368  11.007 -0.0633 -0.0140 -0.3290
   98OSM   H15A 9718   5.449   4.284  11.041 -1.3978 -0.1468  1.8686
   98OSM   H15B 9719   5.431   4.409  10.916  0.7173  1.0439  0.4753
   98OSM   H15C 9720   5.297   4.319  10.984 -0.5345  0.5666  0.3209
   98OSM    C14 9721   5.326   4.422  11.237  0.1893 -0.2084  0.2619
   98OSM   H14A 9722   5.232   4.372  11.220 -0.5270  0.8628  0.8969
   98OSM   H14B 9723   5.305   4.500  11.309  2.3626  0.1116  0.6098
   98OSM   H14C 9724   5.401   4.355  11.275  2.5279  2.2281  0.2483
   98OSM    C13 9725   5.499   4.552  11.138  0.0514  0.3813 -0.4115
   98OSM   H13A 9726   5.574   4.493  11.190  0.8371  0.8853 -0.9575
   98OSM   H13B 9727   5.479   4.627  11.213  1.4181  0.4816 -0.1205
   98OSM   H13C 9728   5.545   4.604  11.056 -0.6663  1.8798  0.0888
   98OSM    C12 9729   5.269   4.571  11.057  0.2854 -0.5672  0.2333
   98OSM   H12A 9730   5.178   4.516  11.036  0.9616 -1.1029 -1.4138
   98OSM   H12B 9731   5.303   4.607  10.961 -1.5831 -0.2949 -0.3647
   98OSM    C11 9732   5.226   4.696  11.141  0.3105  0.4436 -0.1918
   98OSM   H11A 9733   5.190   4.645  11.233 -1.2721 -1.8244 -1.9458
   98OSM   H11B 9734   5.138   4.745  11.095  1.1175 -0.4495 -2.9050
   98OSM      P 9735   5.345   4.929  11.118  0.1410  0.0515  0.0685
   98OSM    O13 9736   5.244   5.025  11.177  0.0570  0.1043 -0.2668
   98OSM    O14 9737   5.489   4.959  11.136  0.6393  0.2797 -0.3194
   98OSM    O11 9738   5.305   4.904  10.969 -0.1508 -0.1428  0.3593
   98OSM    O12 9739   5.321   4.786  11.185  0.0147 -0.4466  0.0689
   98OSM    C1S 9740   5.193   4.972  10.913  0.3713 -0.5673 -0.3072
   98OSM    H1S 9741   5.192   5.079  10.945 -0.6612 -0.7433  0.2941
   98OSM    H1T 9742   5.101   4.932  10.960 -1.7771  3.7348 -0.3762
   98OSM     NF 9743   5.072   5.039  10.713  0.2341  0.3506 -0.1516
   98OSM    HNF 9744   4.994   4.983  10.685  0.2359  0.2928 -0.0418
   98OSM    C2S 9745   5.188   4.962  10.759 -0.1384  0.5927  0.1207
   98OSM    H2S 9746   5.285   5.001  10.721  0.7820 -0.4219  1.3487
   98OSM    C3S 9747   5.191   4.809  10.716  0.2591 -0.7862 -0.2706
   98OSM    H3S 9748   5.091   4.760  10.728 -0.3510  0.2897 -0.8075
   98OSM     O3 9749   5.283   4.730  10.787 -0.6321  0.0184  0.2558
   98OSM    HO3 9750   5.317   4.800  10.842 -1.1878  1.8629 -1.5804
   98OSM    C4S 9751   5.223   4.792  10.567 -0.2541  0.3896  0.4172
   98OSM    H4S 9752   5.143   4.746  10.506  0.4080  0.4073 -0.4938
   98OSM    C5S 9753   5.340   4.783  10.502 -0.3575 -0.4845 -0.7732
   98OSM    H5S 9754   5.434   4.793  10.557 -0.3822 -0.3894 -0.7482
   98OSM    C6S 9755   5.369   4.751  10.358  0.0346  0.1043 -0.3490
   98OSM    H6S 9756   5.422   4.653  10.361  0.1003  0.1280 -0.6793
   98OSM    H6T 9757   5.434   4.827  10.310 -2.3613  2.7424  0.3869
   98OSM    C7S 9758   5.238   4.740  10.278  0.0286 -0.0352  0.1383
   98OSM    H7S 9759   5.187   4.839  10.274 -0.8718 -0.4084  1.6908
   98OSM    H7T 9760   5.173   4.664  10.326 -0.7468  0.9213  0.6455
   98OSM    C8S 9761   5.253   4.704  10.131 -0.4332  0.1530  0.7531
   98OSM    H8S 9762   5.293   4.600  10.128 -2.2271 -0.5568 -0.3889
   98OSM    H8T 9763   5.334   4.767  10.088 -0.3033 -0.2542  0.3931
   98OSM    C9S 9764   5.115   4.714  10.056 -0.1919  0.1137 -0.1108
   98OSM    H9S 9765   5.064   4.808  10.086  1.7716  0.6691  1.7825
   98OSM    H9T 9766   5.055   4.629  10.096  0.3505 -0.5052 -0.5839
   98OSM   C10S 9767   5.130   4.690   9.906 -0.8420  0.0380  0.2584
   98OSM   H10S 9768   5.029   4.679   9.861 -1.5931  0.7560  1.6837
   98OSM   H10T 9769   5.194   4.600   9.893 -0.1943  0.3595  1.0936
   98OSM   C11S 9770   5.207   4.797   9.825  0.3884  0.2292  0.2224
   98OSM   H11S 9771   5.313   4.787   9.856  0.7694 -0.3290 -1.1720
   98OSM   H11T 9772   5.170   4.899   9.848  2.1910  1.1774 -0.8082
   98OSM   C12S 9773   5.181   4.777   9.677 -0.3650  0.2859 -0.2047
   98OSM   H12S 9774   5.230   4.866   9.633  0.9426 -0.3517 -0.0756
   98OSM   H12T 9775   5.071   4.781   9.659 -0.7061  0.6034  1.6754
   98OSM   C13S 9776   5.231   4.643   9.620  0.4260 -0.0552 -0.0107
   98OSM   H13S 9777   5.167   4.561   9.658 -1.4505  0.4820 -1.8163
   98OSM   H13T 9778   5.339   4.638   9.643  0.1986 -2.6313  0.7758
   98OSM   C14S 9779   5.220   4.637   9.464 -0.0879 -0.0176  0.3820
   98OSM   H14S 9780   5.256   4.539   9.427 -0.3697 -0.0683  0.2364
   98OSM   H14T 9781   5.291   4.711   9.423 -0.1422 -1.5105 -2.7201
   98OSM   C15S 9782   5.084   4.665   9.397 -0.0414 -0.7292  0.3418
   98OSM   H15S 9783   5.107   4.709   9.298 -3.5094  1.2497  0.2308
   98OSM   H15T 9784   5.039   4.745   9.460 -0.8845  1.3669 -2.6697
   98OSM   C16S 9785   4.981   4.549   9.387 -0.2746 -0.2340  0.1835
   98OSM   H16S 9786   4.894   4.600   9.340 -0.0678  0.1548  0.2130
   98OSM   H16T 9787   4.952   4.492   9.478  0.0011  0.6875  0.8637
   98OSM   C17S 9788   5.021   4.433   9.285 -0.2073  0.6194  0.0899
   98OSM   H17S 9789   5.106   4.375   9.327  0.2283 -1.8286 -3.6826
   98OSM   H17T 9790   5.065   4.491   9.201  0.1043  1.5718  0.9002
   98OSM   C18S 9791   4.907   4.340   9.253  0.1957 -0.2066  0.4853
   98OSM   H18S 9792   4.820   4.391   9.205  0.9462  0.3205 -0.3455
   98OSM   H18T 9793   4.877   4.281   9.342 -2.3455 -0.9658 -0.7622
   98OSM   H18U 9794   4.944   4.263   9.182 -0.9112 -2.1677  1.9263
   98OSM    C1F 9795   5.060   5.168  10.717  0.2228  0.6867  0.0499
   98OSM     OF 9796   5.152   5.229  10.761 -0.0703 -0.5828  0.0338
   98OSM    C2F 9797   4.932   5.233  10.681  0.1192  0.6140 -0.2962
   98OSM    H2F 9798   4.859   5.211  10.762 -1.5328  0.0065 -1.8696
   98OSM    H2G 9799   4.888   5.169  10.601  0.8656 -0.7114  0.3174
   98OSM    C3F 9800   4.961   5.381  10.641 -0.2887 -0.3448  0.3117
   98OSM    H3F 9801   5.027   5.386  10.552  1.6969  1.3019  1.7826
   98OSM    H3G 9802   5.017   5.434  10.721 -0.0020  0.1114 -0.1867
   98OSM    C4F 9803   4.832   5.466  10.620 -0.3714  0.1476 -0.2711
   98OSM    H4F 9804   4.858   5.574  10.619  0.2080  0.0063 -0.5766
   98OSM    H4G 9805   4.764   5.455  10.708  0.0203 -0.1872 -0.0090
   98OSM    C5F 9806   4.762   5.440  10.491  0.1561  0.2099  0.1223
   98OSM    H5F 9807   4.714   5.340  10.485 -0.4014  0.5229 -1.1308
   98OSM    H5G 9808   4.845   5.441  10.416 -0.0972  0.6483 -0.1583
   98OSM    C6F 9809   4.662   5.553  10.447 -0.5603  0.5429 -0.0512
   98OSM    H6F 9810   4.721   5.640  10.409 -0.8418  1.4792  1.5376
   98OSM    H6G 9811   4.615   5.585  10.543 -3.7388  0.7534 -1.5508
   98OSM    C7F 9812   4.542   5.492  10.374  0.0764  0.3811  0.2923
   98OSM    H7F 9813   4.458   5.564  10.380  0.1675  0.6584 -1.3793
   98OSM    H7G 9814   4.512   5.397  10.424  0.5745  0.5847  1.0035
   98OSM    C8F 9815   4.575   5.457  10.225 -0.1189  0.0913  0.7123
   98OSM    H8F 9816   4.472   5.435  10.191 -0.8360  1.1750  2.0947
   98OSM    H8G 9817   4.639   5.366  10.229  0.7005  0.6782  1.2255
   98OSM    C9F 9818   4.632   5.562  10.137 -0.3723 -0.1643 -0.2242
   98OSM    H9F 9819   4.634   5.664  10.179 -2.5442 -0.0085 -0.3917
   98OSM   C10F 9820   4.678   5.541  10.014 -0.0363  0.2069  0.0338
   98OSM   H10F 9821   4.711   5.630   9.957  0.0516 -0.9388 -1.7775
   98OSM   C11F 9822   4.667   5.411   9.941 -0.2203  0.0259  0.4207
   98OSM   H11F 9823   4.633   5.325  10.003  1.7961 -0.7971  0.4766
   98OSM   H11G 9824   4.765   5.397   9.891  0.6064 -1.6076  2.3638
   98OSM   C12F 9825   4.562   5.423   9.821  0.6677 -0.5008 -0.3079
   98OSM   H12F 9826   4.467   5.475   9.847  0.7170 -0.1319 -0.8421
   98OSM   H12G 9827   4.529   5.319   9.800  0.4748 -0.4019 -0.4998
   98OSM   C13F 9828   4.613   5.487   9.696 -0.8861  0.3596 -0.7841
   98OSM   H13F 9829   4.700   5.424   9.667 -0.6467  1.4469 -2.6558
   98OSM   H13G 9830   4.642   5.590   9.726 -1.2271  0.2639 -0.1143
   98OSM   C14F 9831   4.515   5.496   9.581  0.0304 -0.8042 -0.2571
   98OSM   H14F 9832   4.435   5.561   9.622  2.0126  2.3947 -1.1898
   98OSM   H14G 9833   4.468   5.398   9.556 -3.6052  1.1864 -2.0086
   98OSM   C15F 9834   4.576   5.552   9.453 -0.2863  0.2772  0.5588
   98OSM   H15F 9835   4.665   5.493   9.422 -1.2020 -1.8778  1.8018
   98OSM   H15G 9836   4.608   5.655   9.481  0.0130  0.5434 -0.7047
   98OSM   C16F 9837   4.477   5.562   9.327 -0.1992  0.3939 -0.0833
   98OSM   H16F 9838   4.516   5.653   9.277  1.3483  0.0428  0.4226
   98OSM   H16G 9839   4.375   5.597   9.352  0.7846  2.1710  1.7915
   98OSM   C17F 9840   4.489   5.446   9.215 -0.2147  0.3021 -0.0072
   98OSM   H17F 9841   4.458   5.350   9.262  3.1388 -1.4562 -1.0297
   98OSM   H17G 9842   4.597   5.434   9.189 -0.2882  0.9321 -0.6221
   98OSM   C18F 9843   4.397   5.478   9.097 -0.0102  0.1401 -0.1309
   98OSM   H18F 9844   4.292   5.463   9.130 -0.8594  1.1698 -2.1604
   98OSM   H18G 9845   4.418   5.407   9.014  0.4901 -1.1571  1.0761
   98OSM   H18H 9846   4.410   5.580   9.055  0.1337  0.2838  0.2570
   99OSM      N 9847   6.630   3.129  11.222 -0.0385  0.7332 -0.6322
   99OSM    C15 9848   6.716   3.107  11.103  0.1497  0.0577 -0.2828
   99OSM   H15A 9849   6.799   3.176  11.101  0.5784 -0.4205  0.6294
   99OSM   H15B 9850   6.659   3.126  11.013 -1.7752 -0.9889  0.6520
   99OSM   H15C 9851   6.758   3.008  11.109  2.4111  0.7653 -2.5616
   99OSM    C14 9852   6.537   3.012  11.237  0.0372  0.4399  0.2181
   99OSM   H14A 9853   6.498   3.019  11.338 -1.7882  5.6310 -0.5254
   99OSM   H14B 9854   6.593   2.920  11.237  0.1705  0.4821  1.7715
   99OSM   H14C 9855   6.456   3.009  11.166  2.3518  0.2240 -2.6121
   99OSM    C13 9856   6.713   3.135  11.347 -0.0822 -0.2443 -0.1170
   99OSM   H13A 9857   6.655   3.169  11.431  0.0638  0.6275 -0.3503
   99OSM   H13B 9858   6.796   3.202  11.324  1.1236 -1.2612  1.1024
   99OSM   H13C 9859   6.761   3.042  11.373 -0.6232 -1.0412 -1.8441
   99OSM    C12 9860   6.549   3.254  11.209  0.5279 -0.2393 -0.2122
   99OSM   H12A 9861   6.503   3.274  11.304 -0.8915  0.5765 -1.0338
   99OSM   H12B 9862   6.462   3.234  11.148 -0.0191 -0.9465  0.7653
   99OSM    C11 9863   6.620   3.384  11.170  0.7083 -0.2730 -0.3401
   99OSM   H11A 9864   6.538   3.456  11.191 -0.4746 -1.8169  0.5621
   99OSM   H11B 9865   6.629   3.374  11.060 -2.4739  0.4591 -0.7744
   99OSM      P 9866   6.885   3.439  11.161  0.1261 -0.5581 -0.6948
   99OSM    O13 9867   6.970   3.525  11.247 -0.0024 -0.5975 -0.2980
   99OSM    O14 9868   6.944   3.308  11.120  0.5363  0.5135  0.0800
   99OSM    O11 9869   6.824   3.518  11.039  0.7514 -0.3525  0.0628
   99OSM    O12 9870   6.747   3.414  11.237 -0.0757  0.4224 -0.3398
   99OSM    C1S 9871   6.904   3.581  10.935 -0.1163 -0.4497  0.6340
   99OSM    H1S 9872   6.965   3.499  10.894  2.3233  1.9001 -0.7370
   99OSM    H1T 9873   6.973   3.658  10.976  0.1708 -1.0586  1.2999
   99OSM     NF 9874   6.889   3.668  10.709  0.1185 -0.2003  0.0490
   99OSM    HNF 9875   6.921   3.762  10.710 -0.6086  0.0482  0.9275
   99OSM    C2S 9876   6.810   3.628  10.821  0.2515 -0.8200 -0.2675
   99OSM    H2S 9877   6.754   3.539  10.786 -3.7877  1.1950  0.4286
   99OSM    C3S 9878   6.713   3.740  10.870 -0.1648  0.2123 -0.0832
   99OSM    H3S 9879   6.779   3.820  10.910  0.5540 -0.1687 -0.4693
   99OSM     O3 9880   6.625   3.701  10.975  0.0171 -0.0697  0.4742
   99OSM    HO3 9881   6.675   3.630  11.015  1.5689  2.2576  3.0109
   99OSM    C4S 9882   6.623   3.790  10.757 -0.0107 -0.2923  0.1664
   99OSM    H4S 9883   6.610   3.900  10.754 -0.1871 -0.2941  0.8151
   99OSM    C5S 9884   6.546   3.717  10.678 -0.3580 -0.6886  0.3945
   99OSM    H5S 9885   6.524   3.610  10.689  1.0794 -0.9819  0.6905
   99OSM    C6S 9886   6.455   3.769  10.569 -0.5454 -0.6496  0.3148
   99OSM    H6S 9887   6.354   3.794  10.607 -0.1775 -0.3511  1.1017
   99OSM    H6T 9888   6.449   3.696  10.485 -0.9197 -3.3052  2.4760
   99OSM    C7S 9889   6.499   3.903  10.499  0.4619  0.7282 -0.1813
   99OSM    H7S 9890   6.606   3.901  10.469  0.2546  1.1291 -0.9874
   99OSM    H7T 9891   6.486   3.992  10.564  0.1578 -0.6471  1.7317
   99OSM    C8S 9892   6.420   3.922  10.364  0.1442  0.5461  0.5649
   99OSM    H8S 9893   6.312   3.938  10.387 -1.1689 -2.2105 -2.8563
   99OSM    H8T 9894   6.424   3.831  10.301 -1.3787  1.5797 -1.1425
   99OSM    C9S 9895   6.485   4.027  10.278  0.0799 -0.0507  0.1538
   99OSM    H9S 9896   6.593   4.005  10.285 -0.3760 -2.1263  1.6342
   99OSM    H9T 9897   6.467   4.133  10.306 -0.4313  0.8425 -3.0966
   99OSM   C10S 9898   6.433   4.004  10.132  0.4699  0.2195  0.0044
   99OSM   H10S 9899   6.328   4.039  10.137  0.1139 -0.6487 -0.9933
   99OSM   H10T 9900   6.437   3.897  10.100  1.4324  0.3762 -0.4219
   99OSM   C11S 9901   6.502   4.098  10.036  0.4298  0.2812  0.0599
   99OSM   H11S 9902   6.608   4.075  10.010  1.1994  1.2726  2.0056
   99OSM   H11T 9903   6.494   4.203  10.074  2.1341  0.5439 -0.2026
   99OSM   C12S 9904   6.445   4.096   9.893 -0.3090 -0.4826  0.5488
   99OSM   H12S 9905   6.453   3.990   9.859  1.4743 -0.0138 -0.6467
   99OSM   H12T 9906   6.340   4.129   9.907  0.4225  2.3618 -0.0448
   99OSM   C13S 9907   6.513   4.195   9.803 -0.2689 -0.1041  0.0568
   99OSM   H13S 9908   6.613   4.155   9.773  0.5619  1.7855  0.1935
   99OSM   H13T 9909   6.514   4.292   9.857 -1.6633 -0.6413  1.1103
   99OSM   C14S 9910   6.443   4.217   9.668  0.1162 -0.1912  0.1892
   99OSM   H14S 9911   6.500   4.300   9.620 -0.9140 -0.0918 -0.9250
   99OSM   H14T 9912   6.342   4.255   9.694 -0.6443  0.5476 -3.3304
   99OSM   C15S 9913   6.429   4.093   9.586  0.7558  0.1814 -0.0700
   99OSM   H15S 9914   6.334   4.045   9.615  0.9327  1.1650  2.3132
   99OSM   H15T 9915   6.509   4.023   9.618  0.0900 -1.6811 -2.1908
   99OSM   C16S 9916   6.451   4.109   9.429 -0.1270  0.8034 -0.7387
   99OSM   H16S 9917   6.425   4.011   9.383 -2.8388 -0.0829  2.3339
   99OSM   H16T 9918   6.560   4.129   9.418  0.2997  1.4498  3.0813
   99OSM   C17S 9919   6.362   4.209   9.365  0.3543  0.6010  0.1859
   99OSM   H17S 9920   6.380   4.312   9.402  1.4465  0.3972  0.2404
   99OSM   H17T 9921   6.261   4.186   9.406  1.7589 -4.8369  1.4112
   99OSM   C18S 9922   6.372   4.212   9.213 -0.4539  0.2416 -0.1145
   99OSM   H18S 9923   6.363   4.109   9.171  3.1139 -0.0496 -0.5109
   99OSM   H18T 9924   6.472   4.253   9.185 -0.1386 -0.1682  0.4008
   99OSM   H18U 9925   6.296   4.273   9.161 -0.1141 -1.8061 -3.2617
   99OSM    C1F 9926   6.968   3.584  10.641  0.3728 -0.2173  0.2393
   99OSM     OF 9927   6.946   3.466  10.646  0.3542 -0.2343 -0.4394
   99OSM    C2F 9928   7.077   3.641  10.556  0.5561  0.1331 -0.0989
   99OSM    H2F 9929   7.159   3.673  10.624 -1.0357  0.6840  1.6473
   99OSM    H2G 9930   7.035   3.737  10.518  0.7431  1.3273  2.5154
   99OSM    C3F 9931   7.113   3.544  10.445  0.7389  0.4945  0.1475
   99OSM    H3F 9932   7.140   3.443  10.483 -1.4934 -0.0158  0.5159
   99OSM    H3G 9933   7.027   3.524  10.378  2.2250 -2.8399 -0.9868
   99OSM    C4F 9934   7.215   3.604  10.360 -0.9417 -0.9267  0.7686
   99OSM    H4F 9935   7.320   3.580  10.390 -0.8624  1.0066  2.1822
   99OSM    H4G 9936   7.203   3.714  10.355  0.3435 -0.7751  0.5155
   99OSM    C5F 9937   7.216   3.554  10.208  0.1327  0.0431  0.3569
   99OSM    H5F 9938   7.126   3.589  10.153  0.0986  0.3086  0.5750
   99OSM    H5G 9939   7.207   3.444  10.221 -0.5857 -0.1008 -1.1158
   99OSM    C6F 9940   7.343   3.590  10.130  0.2429  1.3304 -1.4745
   99OSM    H6F 9941   7.425   3.558  10.197 -0.0580 -2.0771 -2.4992
   99OSM    H6G 9942   7.339   3.700  10.117 -0.0109  1.6293  0.7572
   99OSM    C7F 9943   7.355   3.523   9.997  0.2902  0.0080  0.5101
   99OSM    H7F 9944   7.352   3.412  10.006 -1.0952  0.0651  0.9816
   99OSM    H7G 9945   7.451   3.551   9.949 -0.8143  0.7636 -1.4000
   99OSM    C8F 9946   7.232   3.557   9.902 -0.5023  0.8529 -0.3829
   99OSM    H8F 9947   7.141   3.533   9.961 -2.5720  2.2102 -2.7983
   99OSM    H8G 9948   7.237   3.480   9.821 -0.4132  0.7033 -0.2358
   99OSM    C9F 9949   7.221   3.700   9.854 -0.0489  0.5803 -0.2396
   99OSM    H9F 9950   7.173   3.757   9.934 -1.8817 -1.1971  0.0286
   99OSM   C10F 9951   7.241   3.754   9.735  0.3785 -0.1944  0.6931
   99OSM   H10F 9952   7.215   3.860   9.727  0.1315 -0.4143 -3.2107
   99OSM   C11F 9953   7.274   3.698   9.596 -0.0861  0.3830  0.5274
   99OSM   H11F 9954   7.319   3.598   9.607  0.0348  0.0421 -2.3463
   99OSM   H11G 9955   7.355   3.762   9.554 -0.0069 -0.3318 -0.4324
   99OSM   C12F 9956   7.163   3.691   9.497 -0.3159 -0.3604  0.7234
   99OSM   H12F 9957   7.114   3.790   9.487  0.1942 -0.2532 -1.1461
   99OSM   H12G 9958   7.087   3.625   9.543 -1.8398  2.8286  3.1750
   99OSM   C13F 9959   7.176   3.620   9.357 -0.0315  0.0586  0.7751
   99OSM   H13F 9960   7.193   3.515   9.390  0.9023 -0.0470 -0.0182
   99OSM   H13G 9961   7.260   3.655   9.294  0.2410  1.4435  1.8561
   99OSM   C14F 9962   7.036   3.611   9.286 -1.3493  0.3541  0.1742
   99OSM   H14F 9963   7.019   3.708   9.235  1.7563  0.8295 -0.1138
   99OSM   H14G 9964   6.959   3.592   9.365 -1.3122  0.0698  0.1454
   99OSM   C15F 9965   7.050   3.491   9.191  0.4085  0.0197 -0.2568
   99OSM   H15F 9966   6.945   3.484   9.153  0.1035  1.6152  0.2231
   99OSM   H15G 9967   7.073   3.396   9.244 -1.7229 -1.0472 -1.0698
   99OSM   C16F 9968   7.143   3.505   9.070 -0.0047  0.2407  0.3519
   99OSM   H16F 9969   7.243   3.522   9.114 -0.2668 -2.7749  2.4046
   99OSM   H16G 9970   7.121   3.597   9.011 -0.2586  0.0993  0.2214
   99OSM   C17F 9971   7.135   3.390   8.968 -0.4030 -0.9558  0.3040
   99OSM   H17F 9972   7.155   3.294   9.021 -3.8909 -0.4991  2.8175
   99OSM   H17G 9973   7.215   3.397   8.892 -0.9664  0.3359 -0.2027
   99OSM   C18F 9974   7.008   3.387   8.887 -0.0280  0.0696 -0.4187
   99OSM   H18F 9975   7.010   3.313   8.804  2.7767  0.4823 -0.8190
   99OSM   H18G 9976   6.988   3.486   8.841 -1.6822 -1.5895 -3.5834
   99OSM   H18H 9977   6.918   3.374   8.950  0.4323 -0.1917  0.1977
  100OSM      N 9978   4.211   4.320  10.877 -0.5902  0.3786  0.3286
  100OSM    C15 9979   4.233   4.172  10.869  0.1638  0.1794 -0.1953
  100OSM   H15A 9980   4.303   4.150  10.790  0.8625 -2.6582  1.0498
  100OSM   H15B 9981   4.145   4.119  10.834  1.1577 -2.7389  1.3586
  100OSM   H15C 9982   4.266   4.135  10.965  1.3945  0.0993 -0.6318
  100OSM    C14 9983   4.114   4.354  10.987 -0.2489  0.6168 -0.1002
  100OSM   H14A 9984   4.053   4.267  11.008  1.0156 -0.2477  0.1122
  100OSM   H14B 9985   4.058   4.436  10.944 -0.6517  1.4281  1.8730
  100OSM   H14C 9986   4.161   4.391  11.076 -1.1110 -0.7803  0.9820
  100OSM    C13 9987   4.344   4.384  10.913  1.4026  0.5263 -0.5705
  100OSM   H13A 9988   4.381   4.343  11.006 -0.0865  1.0457  0.2779
  100OSM   H13B 9989   4.343   4.492  10.916  0.3360  0.5392  2.4149
  100OSM   H13C 9990   4.410   4.353  10.834 -1.8585 -2.1072 -2.5200
  100OSM    C12 9991   4.149   4.372  10.754  0.7843 -0.2160  0.2143
  100OSM   H12A 9992   4.063   4.311  10.729  0.7300  0.7998 -2.3780
  100OSM   H12B 9993   4.221   4.357  10.675  0.6404 -1.3781  0.2947
  100OSM    C11 9994   4.118   4.525  10.734  0.4137  0.5250  0.4836
  100OSM   H11A 9995   4.106   4.543  10.625  1.2694 -0.6716  0.1750
  100OSM   H11B 9996   4.201   4.593  10.762 -0.3878  0.7491  2.4775
  100OSM      P 9997   3.948   4.710  10.811  0.2631  0.3683 -0.0244
  100OSM    O13 9998   3.813   4.714  10.872  0.2517  0.1037 -0.7234
  100OSM    O14 9999   4.056   4.794  10.865 -0.0622  0.8156 -0.4295
  100OSM    O1110000   3.927   4.745  10.658 -0.8894  0.1637  0.2725
  100OSM    O1210001   3.996   4.563  10.811 -0.4732  0.3645 -0.6390
  100OSM    C1S10002   3.843   4.658  10.579  0.0142  0.3022  0.1229
  100OSM    H1S10003   3.746   4.646  10.631  0.3641 -2.8719  0.2314
  100OSM    H1T10004   3.893   4.559  10.573  0.2938  0.4998 -0.8872
  100OSM     NF10005   3.724   4.632  10.376 -0.4589  0.1458  0.3304
  100OSM    HNF10006   3.746   4.562  10.309 -0.7237  0.5448 -0.1865
  100OSM    C2S10007   3.823   4.711  10.437  0.2081 -0.4957 -0.0898
  100OSM    H2S10008   3.786   4.814  10.452  0.5485 -0.4467  0.4738
  100OSM    C3S10009   3.949   4.728  10.353 -0.0099 -0.1009 -0.8453
  100OSM    H3S10010   4.011   4.636  10.339  3.0093  1.6511  0.1114
  100OSM     O310011   4.037   4.827  10.421 -0.3148  0.4847  0.6274
  100OSM    HO310012   4.003   4.824  10.511 -1.5538  1.7023  0.2258
  100OSM    C4S10013   3.914   4.785  10.217 -0.5208  0.6098  0.3169
  100OSM    H4S10014   3.865   4.711  10.152 -1.7348 -0.1451  2.0090
  100OSM    C5S10015   3.910   4.914  10.177  0.0370 -0.3294 -0.5366
  100OSM    H5S10016   3.945   4.999  10.238 -2.6938  2.0203 -1.9723
  100OSM    C6S10017   3.863   4.970  10.046 -0.3655 -0.0257 -0.3382
  100OSM    H6S10018   3.951   5.022  10.001  0.5621 -0.7258  0.6280
  100OSM    H6T10019   3.789   5.047  10.075  1.0709  1.1543  0.3388
  100OSM    C7S10020   3.796   4.882   9.946 -0.2843 -0.5769  0.8991
  100OSM    H7S10021   3.715   4.825   9.997 -3.3133  1.2820 -1.4886
  100OSM    H7T10022   3.864   4.800   9.915 -0.2606  0.6853 -2.8206
  100OSM    C8S10023   3.761   4.958   9.817  0.9860  0.0561 -0.2874
  100OSM    H8S10024   3.858   4.996   9.778  0.5671  0.2170 -1.1913
  100OSM    H8T10025   3.689   5.042   9.829 -0.4917 -0.6313 -3.3136
  100OSM    C9S10026   3.689   4.861   9.716 -0.5087  0.2898  0.1196
  100OSM    H9S10027   3.592   4.839   9.765 -0.8476 -0.6623 -0.9401
  100OSM    H9T10028   3.752   4.770   9.712  1.1682  1.2839  1.9693
  100OSM   C10S10029   3.676   4.919   9.574 -0.2115  0.4766 -0.4879
  100OSM   H10S10030   3.603   5.002   9.579 -0.2292  0.3855  1.8065
  100OSM   H10T10031   3.633   4.838   9.511 -2.0616  1.1001 -0.0720
  100OSM   C11S10032   3.811   4.967   9.512  0.1340  0.6416 -0.7426
  100OSM   H11S10033   3.894   4.912   9.562 -1.8542 -1.9868 -0.0695
  100OSM   H11T10034   3.831   5.070   9.549  0.1879  0.6529 -0.8035
  100OSM   C12S10035   3.806   4.952   9.361 -0.3629  0.4751  1.0034
  100OSM   H12S10036   3.772   4.850   9.334 -1.3842  0.4564  2.2631
  100OSM   H12T10037   3.909   4.965   9.321 -1.3072  1.2604 -1.3877
  100OSM   C13S10038   3.713   5.053   9.301  0.0435 -0.1913  0.5754
  100OSM   H13S10039   3.747   5.151   9.340  1.6356 -0.1568 -0.8032
  100OSM   H13T10040   3.610   5.036   9.338 -0.4608 -0.8278 -1.0480
  100OSM   C14S10041   3.711   5.047   9.145 -0.2566  0.4041  0.1673
  100OSM   H14S10042   3.816   5.039   9.111 -0.1373  0.1864  0.5806
  100OSM   H14T10043   3.663   5.141   9.109  1.5090  0.6641 -1.6329
  100OSM   C15S10044   3.637   4.925   9.091 -0.0231  0.3689 -0.0063
  100OSM   H15S10045   3.539   4.922   9.143 -1.3213 -1.2877 -2.3284
  100OSM   H15T10046   3.690   4.833   9.122 -0.9768  0.8938  3.5804
  100OSM   C16S10047   3.614   4.948   8.939  0.1551  0.0993 -0.2848
  100OSM   H16S10048   3.560   5.043   8.922  3.1463  2.2371  1.3171
  100OSM   H16T10049   3.545   4.869   8.901  2.3631 -1.4513 -1.3517
  100OSM   C17S10050   3.735   4.941   8.846 -0.0415 -0.1657 -0.8784
  100OSM   H17S10051   3.807   5.024   8.863 -0.8029  0.1556  0.9618
  100OSM   H17T10052   3.695   4.933   8.743  0.1411  1.5071 -1.1075
  100OSM   C18S10053   3.821   4.816   8.870  0.3919 -0.2426  0.1425
  100OSM   H18S10054   3.899   4.813   8.791  0.1346 -1.9960 -0.0882
  100OSM   H18T10055   3.774   4.718   8.892  0.4551 -0.5918 -1.1699
  100OSM   H18U10056   3.882   4.826   8.962 -0.2606  0.8827  0.4639
  100OSM    C1F10057   3.597   4.640  10.410  0.4600  0.6791 -0.9572
  100OSM     OF10058   3.559   4.711  10.502 -0.1911  0.9316  0.1467
  100OSM    C2F10059   3.509   4.545  10.340  0.3320  0.2450  0.1012
  100OSM    H2F10060   3.445   4.492  10.413  2.4693 -0.2326  1.7286
  100OSM    H2G10061   3.569   4.466  10.289  0.1880 -1.0507  1.8581
  100OSM    C3F10062   3.402   4.612  10.243  0.0544  0.1059 -0.2506
  100OSM    H3F10063   3.463   4.645  10.156 -1.6783  1.0424 -1.1645
  100OSM    H3G10064   3.365   4.702  10.299  0.2432  0.1202 -0.1468
  100OSM    C4F10065   3.284   4.532  10.204  0.0394 -0.2309  0.2174
  100OSM    H4F10066   3.222   4.524  10.296  0.2258  1.3803  0.5153
  100OSM    H4G10067   3.322   4.438  10.159  2.6354  0.4661  0.7847
  100OSM    C5F10068   3.218   4.602  10.081 -0.6808  0.6816 -0.4797
  100OSM    H5F10069   3.304   4.627  10.016 -2.1411 -0.7484 -3.0941
  100OSM    H5G10070   3.166   4.698  10.104 -2.2590  0.3533 -2.4014
  100OSM    C6F10071   3.112   4.526  10.010  0.3793 -0.3536  0.2313
  100OSM    H6F10072   3.026   4.523  10.081  1.2447 -0.3366  1.3169
  100OSM    H6G10073   3.145   4.421   9.997 -1.9655 -0.9891 -1.0243
  100OSM    C7F10074   3.065   4.598   9.881 -0.0173  0.9591 -0.7242
  100OSM    H7F10075   3.159   4.588   9.823 -0.2167  1.4061 -1.1306
  100OSM    H7G10076   3.035   4.704   9.891 -4.9340 -0.0757 -2.0009
  100OSM    C8F10077   2.936   4.539   9.808 -0.1512  0.9383  0.0719
  100OSM    H8F10078   2.920   4.600   9.717  0.6715 -0.2913 -0.9263
  100OSM    H8G10079   2.851   4.531   9.879 -0.3832 -4.2734 -0.4432
  100OSM    C9F10080   2.976   4.400   9.765  0.0953 -0.6969 -0.6240
  100OSM    H9F10081   2.982   4.322   9.842  0.4469 -0.2907 -0.2278
  100OSM   C10F10082   3.010   4.372   9.637  0.5508 -0.2295  0.1701
  100OSM   H10F10083   3.020   4.264   9.618 -1.5034 -0.2851 -0.8864
  100OSM   C11F10084   3.013   4.458   9.516  0.5178 -0.5376 -0.0850
  100OSM   H11F10085   2.968   4.557   9.539 -0.9946 -1.5712  1.5865
  100OSM   H11G10086   2.967   4.422   9.421 -2.7109  3.0750 -0.1485
  100OSM   C12F10087   3.166   4.479   9.473  0.5891 -0.1076  0.2093
  100OSM   H12F10088   3.215   4.379   9.481  0.3727 -0.4409 -1.9929
  100OSM   H12G10089   3.202   4.558   9.542 -0.4786  1.2139 -0.7009
  100OSM   C13F10090   3.178   4.539   9.328  0.0669 -0.3637 -0.2511
  100OSM   H13F10091   3.132   4.640   9.334  1.6721  0.5099 -1.6041
  100OSM   H13G10092   3.123   4.475   9.255 -0.1658 -0.1484 -0.2653
  100OSM   C14F10093   3.321   4.540   9.279  0.0083  0.0676  0.3169
  100OSM   H14F10094   3.354   4.435   9.263 -0.5144  0.0297 -0.5798
  100OSM   H14G10095   3.391   4.574   9.359  1.4564 -0.4125 -0.6872
  100OSM   C15F10096   3.344   4.618   9.147 -0.3488 -0.4725 -0.0709
  100OSM   H15F10097   3.450   4.613   9.115  0.5185 -0.3771  2.5136
  100OSM   H15G10098   3.326   4.721   9.185 -0.5973 -1.2864  2.1731
  100OSM   C16F10099   3.240   4.580   9.036 -0.3631  0.6598 -0.1587
  100OSM   H16F10100   3.256   4.650   8.952  1.6557 -1.3125 -1.5442
  100OSM   H16G10101   3.136   4.594   9.073 -0.2061 -1.4589  1.2880
  100OSM   C17F10102   3.277   4.442   8.978  0.3583  0.5269  0.2075
  100OSM   H17F10103   3.193   4.392   8.926  2.6936 -2.6867 -0.7886
  100OSM   H17G10104   3.288   4.379   9.070 -2.6548  0.9001  0.9206
  100OSM   C18F10105   3.396   4.447   8.883  0.2825  0.9857  0.2472
  100OSM   H18F10106   3.353   4.482   8.786 -0.6068 -1.9899 -0.5132
  100OSM   H18G10107   3.422   4.343   8.855 -0.4163  0.7024  0.6395
  100OSM   H18H10108   3.483   4.509   8.914 -1.3588  3.4794  0.1607
  101OSM      N10109   5.131   0.102  11.160  0.3981  0.1630  0.1294
  101OSM    C1510110   5.040   0.121  11.047 -0.2137  0.2453 -0.5335
  101OSM   H15A10111   4.944   0.157  11.080  0.2019  0.0456  0.9708
  101OSM   H15B10112   5.017   0.025  11.003  0.4572  0.3054 -1.0450
  101OSM   H15C10113   5.082   0.191  10.976  0.9671 -1.0285 -1.1269
  101OSM    C1410114   5.142   0.231  11.232  0.4968  0.1107  0.2314
  101OSM   H14A10115   5.045   0.276  11.246  0.1167 -0.0545 -1.6249
  101OSM   H14B10116   5.200   0.312  11.188  2.9280 -0.9295  1.3294
  101OSM   H14C10117   5.194   0.214  11.325  1.6202 -0.3199 -0.4500
  101OSM    C1310118   5.070   0.002  11.255  0.0757  0.0413 -0.2216
  101OSM   H13A10119   5.118  -0.001  11.352  0.9186  1.3036 -0.5799
  101OSM   H13B10120   5.072  -0.090  11.198  0.9232  0.5238 -1.0142
  101OSM   H13C10121   4.965   0.021  11.270  0.2228  0.6965 -0.0050
  101OSM    C1210122   5.272   0.050  11.123  0.3087 -0.2145  0.1679
  101OSM   H12A10123   5.323   0.057  11.218 -0.6174 -0.9094  0.7367
  101OSM   H12B10124   5.322   0.120  11.058 -0.4508  0.7027  0.5512
  101OSM    C1110125   5.286  -0.090  11.067 -0.0626 -0.0022 -0.4010
  101OSM   H11A10126   5.235  -0.087  10.968  1.3444  0.6005 -1.1249
  101OSM   H11B10127   5.230  -0.150  11.143  1.4142 -0.4632  0.3559
  101OSM      P10128   5.455  -0.276  11.060 -0.2312  0.3000 -0.4437
  101OSM    O1310129   5.602  -0.274  11.068 -0.1259 -0.5097 -0.8702
  101OSM    O1410130   5.382  -0.352  11.166 -0.0400 -0.2831 -0.3445
  101OSM    O1110131   5.424  -0.324  10.912  0.4919  0.2665 -0.3153
  101OSM    O1210132   5.417  -0.123  11.062  0.5465  0.0427 -0.1413
  101OSM    C1S10133   5.492  -0.258  10.802 -1.2446  0.9347 -0.3538
  101OSM    H1S10134   5.600  -0.237  10.820 -1.0826  0.0801 -0.2479
  101OSM    H1T10135   5.448  -0.158  10.783  2.4991  2.1298 -4.0858
  101OSM     NF10136   5.541  -0.254  10.569  0.7588  0.9090  0.3262
  101OSM    HNF10137   5.492  -0.176  10.529 -1.0960 -1.3807 -2.2337
  101OSM    C2S10138   5.473  -0.335  10.671 -0.3667  0.0764  0.4443
  101OSM    H2S10139   5.523  -0.433  10.690  0.2558 -0.1304 -1.8566
  101OSM    C3S10140   5.326  -0.364  10.625  0.5171 -0.3579 -0.6165
  101OSM    H3S10141   5.277  -0.268  10.601  1.1675 -0.5783 -3.1179
  101OSM     O310142   5.250  -0.429  10.726  0.0275 -0.3060 -0.2791
  101OSM    HO310143   5.306  -0.428  10.804  0.3251 -0.4074 -0.4906
  101OSM    C4S10144   5.322  -0.424  10.490  0.8154 -0.1129 -0.2254
  101OSM    H4S10145   5.301  -0.343  10.419 -1.3711  1.3798  1.9323
  101OSM    C5S10146   5.318  -0.552  10.457 -0.2154  0.3546  0.1759
  101OSM    H5S10147   5.332  -0.630  10.533 -2.1559 -0.4157 -0.1950
  101OSM    C6S10148   5.290  -0.601  10.318 -0.6019  0.6076 -0.2350
  101OSM    H6S10149   5.211  -0.679  10.325  1.8219 -1.8826  0.7703
  101OSM    H6T10150   5.384  -0.645  10.280 -0.6765 -0.2690  0.5756
  101OSM    C7S10151   5.232  -0.499  10.220 -0.1067 -0.5035 -0.4503
  101OSM    H7S10152   5.299  -0.412  10.206 -2.4551  1.2873 -1.2894
  101OSM    H7T10153   5.138  -0.453  10.255  0.4844 -0.6224  1.3707
  101OSM    C8S10154   5.204  -0.567  10.082 -0.7054 -0.7492  0.1668
  101OSM    H8S10155   5.178  -0.490  10.006 -1.0152 -1.0657 -0.0508
  101OSM    H8T10156   5.120  -0.639  10.092 -0.3080 -1.3606 -0.7481
  101OSM    C9S10157   5.316  -0.650  10.015 -0.0064  1.0414 -0.6530
  101OSM    H9S10158   5.309  -0.758  10.043 -2.2509  1.4156  0.4298
  101OSM    H9T10159   5.415  -0.608  10.043  0.4975 -1.3044  1.5393
  101OSM   C10S10160   5.308  -0.658   9.861 -0.2507 -0.1025 -0.1172
  101OSM   H10S10161   5.375  -0.743   9.834  0.9232  0.6018  0.5307
  101OSM   H10T10162   5.351  -0.565   9.819 -0.1901  0.6613  1.5769
  101OSM   C11S10163   5.171  -0.699   9.809  0.2646 -0.7489  0.0618
  101OSM   H11S10164   5.097  -0.624   9.844  1.0366 -0.3652  0.9396
  101OSM   H11T10165   5.134  -0.799   9.840  0.5877 -0.8898 -0.0029
  101OSM   C12S10166   5.155  -0.717   9.658  0.3602  0.1115 -0.2273
  101OSM   H12S10167   5.056  -0.761   9.637  0.4235  0.5117 -1.4479
  101OSM   H12T10168   5.233  -0.788   9.622 -0.4113 -1.8849  1.8468
  101OSM   C13S10169   5.159  -0.580   9.580 -0.3121  0.2869 -0.2134
  101OSM   H13S10170   5.266  -0.551   9.582 -0.6485  1.6555 -0.7484
  101OSM   H13T10171   5.100  -0.504   9.636  2.2051  1.9448  0.3704
  101OSM   C14S10172   5.113  -0.574   9.434 -0.7450 -0.3355 -0.2518
  101OSM   H14S10173   5.146  -0.475   9.396 -2.2767  0.5052  0.5135
  101OSM   H14T10174   5.002  -0.581   9.428 -0.7043  0.0218 -2.0537
  101OSM   C15S10175   5.176  -0.679   9.339  0.2516  0.4906 -0.5544
  101OSM   H15S10176   5.153  -0.780   9.376 -1.7566  1.2731  0.4632
  101OSM   H15T10177   5.285  -0.667   9.356 -0.0663  0.1659  2.0666
  101OSM   C16S10178   5.132  -0.651   9.194 -0.7079  0.0217  0.1884
  101OSM   H16S10179   5.200  -0.702   9.122  1.6219  1.9142  0.9275
  101OSM   H16T10180   5.135  -0.542   9.173 -1.1827 -0.2623 -1.5161
  101OSM   C17S10181   4.988  -0.676   9.164  0.1447 -0.2553  0.1848
  101OSM   H17S10182   4.920  -0.606   9.218 -0.6538 -2.1734  1.7890
  101OSM   H17T10183   4.941  -0.767   9.208 -1.1554  0.7395  0.9498
  101OSM   C18S10184   4.962  -0.672   9.005  0.5345 -0.0682 -0.6201
  101OSM   H18S10185   4.986  -0.567   8.979  0.4854 -0.2617 -1.4891
  101OSM   H18T10186   4.855  -0.692   8.981  0.9114 -0.6301 -1.9669
  101OSM   H18U10187   5.033  -0.738   8.951  1.6480  0.0054  0.7037
  101OSM    C1F10188   5.673  -0.259  10.573  0.0535  0.3973 -0.2377
  101OSM     OF10189   5.728  -0.342  10.648  0.1076  0.9139  0.1567
  101OSM    C2F10190   5.744  -0.167  10.483 -0.4787 -0.0306  0.3183
  101OSM    H2F10191   5.848  -0.153  10.519  0.0163 -2.7060  0.1574
  101OSM    H2G10192   5.695  -0.068  10.494 -3.4565 -1.1455 -1.6851
  101OSM    C3F10193   5.760  -0.226  10.340 -0.0794  0.0797 -0.8437
  101OSM    H3F10194   5.813  -0.160  10.266 -1.7372  0.9748 -1.2791
  101OSM    H3G10195   5.659  -0.240  10.295 -0.0602 -0.6734 -0.6685
  101OSM    C4F10196   5.845  -0.350  10.338  0.5163 -0.1171 -0.0756
  101OSM    H4F10197   5.813  -0.428  10.410  0.5374 -0.6646 -0.6538
  101OSM    H4G10198   5.950  -0.332  10.373  0.7326 -0.1925 -0.6817
  101OSM    C5F10199   5.861  -0.407  10.199 -0.3276  0.3464 -0.5424
  101OSM    H5F10200   5.934  -0.489  10.214  1.4084  1.7467 -0.9630
  101OSM    H5G10201   5.907  -0.336  10.126  0.5946  1.5626  1.1493
  101OSM    C6F10202   5.730  -0.443  10.137  0.4010  0.2313  0.1515
  101OSM    H6F10203   5.664  -0.489  10.214  1.3524  1.7036  1.9115
  101OSM    H6G10204   5.679  -0.351  10.102 -3.1464 -0.5419  2.7116
  101OSM    C7F10205   5.738  -0.534  10.018 -0.0622 -0.1293 -0.3231
  101OSM    H7F10206   5.631  -0.558   9.997 -0.3184  0.1182  0.6360
  101OSM    H7G10207   5.792  -0.628  10.039 -0.0277  0.3735  2.1911
  101OSM    C8F10208   5.803  -0.480   9.889  0.2076  0.3743  0.2676
  101OSM    H8F10209   5.911  -0.455   9.896  0.2126  0.6794 -0.8055
  101OSM    H8G10210   5.735  -0.394   9.873  0.5853  0.5034 -0.6985
  101OSM    C9F10211   5.781  -0.587   9.786 -0.0099 -0.9364  0.2165
  101OSM    H9F10212   5.847  -0.674   9.790  0.0743 -0.8744  0.1791
  101OSM   C10F10213   5.692  -0.581   9.686  0.2678  0.0231 -0.4723
  101OSM   H10F10214   5.688  -0.667   9.617  2.3341 -0.9382  0.5458
  101OSM   C11F10215   5.588  -0.472   9.647  0.2726  0.8663 -0.1540
  101OSM   H11F10216   5.583  -0.390   9.722 -1.8440  1.8112 -1.2298
  101OSM   H11G10217   5.487  -0.518   9.659  0.2014  0.9452 -0.4248
  101OSM   C12F10218   5.606  -0.418   9.506 -0.0806 -0.0101 -0.6045
  101OSM   H12F10219   5.594  -0.506   9.440 -1.6468  0.5456 -1.1020
  101OSM   H12G10220   5.704  -0.368   9.486  0.0777  0.1501  0.5055
  101OSM   C13F10221   5.497  -0.327   9.451  0.1403 -0.2048 -0.5634
  101OSM   H13F10222   5.502  -0.227   9.500 -0.0798 -1.1074  1.3933
  101OSM   H13G10223   5.396  -0.363   9.480 -0.9623  3.8827  1.4088
  101OSM   C14F10224   5.518  -0.311   9.302 -0.5018  0.2655  0.0404
  101OSM   H14F10225   5.610  -0.368   9.277 -0.6326  0.9950 -2.3452
  101OSM   H14G10226   5.525  -0.205   9.268 -1.6657  0.5091  0.5093
  101OSM   C15F10227   5.401  -0.371   9.218  0.4514 -0.9208  0.1054
  101OSM   H15F10228   5.303  -0.340   9.261  0.7852 -2.6851  2.3729
  101OSM   H15G10229   5.409  -0.480   9.238 -0.9342 -1.1084 -0.2423
  101OSM   C16F10230   5.419  -0.332   9.071  0.2512  0.0849  0.1141
  101OSM   H16F10231   5.522  -0.300   9.045  0.2442  0.1468  0.1659
  101OSM   H16G10232   5.357  -0.242   9.057  1.6978  1.1257  0.1159
  101OSM   C17F10233   5.386  -0.442   8.968  0.5700 -0.4610 -0.1461
  101OSM   H17F10234   5.348  -0.395   8.875  0.5073 -2.0170 -0.9486
  101OSM   H17G10235   5.318  -0.515   9.016  1.0599 -0.0771  1.1956
  101OSM   C18F10236   5.517  -0.522   8.938 -0.1423 -0.0648 -0.2099
  101OSM   H18F10237   5.512  -0.606   8.866 -1.1849 -0.8090  0.6975
  101OSM   H18G10238   5.556  -0.582   9.023  0.3161 -0.9861 -1.0487
  101OSM   H18H10239   5.601  -0.458   8.903  0.2509  0.8493  2.1841
  102OSM      N10240   1.449   6.680  10.932  0.1042  0.6593 -0.7680
  102OSM    C1510241   1.547   6.576  10.963 -0.2298 -0.1987 -0.6245
  102OSM   H15A10242   1.596   6.599  11.056 -0.2120 -0.3986 -0.5827
  102OSM   H15B10243   1.627   6.583  10.891  2.2745 -3.3816  1.5564
  102OSM   H15C10244   1.511   6.474  10.961  1.2466 -0.7281 -0.9451
  102OSM    C1410245   1.392   6.659  10.791  0.5617  0.1350  0.1808
  102OSM   H14A10246   1.318   6.736  10.779 -0.0810 -0.3161  1.1340
  102OSM   H14B10247   1.356   6.557  10.795  0.2743  0.2522  0.6785
  102OSM   H14C10248   1.467   6.664  10.713 -0.4070  0.8887 -0.7303
  102OSM    C1310249   1.338   6.655  11.032  0.0953 -0.4147  0.2225
  102OSM   H13A10250   1.382   6.668  11.130  0.4051 -0.6649  0.1178
  102OSM   H13B10251   1.305   6.553  11.025  0.8589 -0.6689  0.3469
  102OSM   H13C10252   1.254   6.722  11.020 -0.4332 -1.1114 -0.0284
  102OSM    C1210253   1.513   6.814  10.935 -0.0306  0.0805  0.0387
  102OSM   H12A10254   1.433   6.886  10.921 -2.1341 -2.1837 -0.1131
  102OSM   H12B10255   1.573   6.832  10.848  1.5272 -1.1814  0.8170
  102OSM    C1110256   1.600   6.851  11.050  0.0268 -0.1743  0.2437
  102OSM   H11A10257   1.547   6.830  11.144  0.5312 -1.2566  0.2987
  102OSM   H11B10258   1.607   6.962  11.050  0.8453 -0.1827  2.4846
  102OSM      P10259   1.838   6.852  10.945  0.0718  0.3226 -0.3274
  102OSM    O1310260   1.824   6.997  10.940 -0.0811 -0.4313  0.4488
  102OSM    O1410261   1.970   6.805  10.991 -0.3939  0.8776  0.0572
  102OSM    O1110262   1.801   6.795  10.805 -0.0157  0.1149  0.0398
  102OSM    O1210263   1.727   6.794  11.046 -0.5642  0.6396  0.3238
  102OSM    C1S10264   1.880   6.691  10.753  0.3618  0.0156  0.1103
  102OSM    H1S10265   1.858   6.598  10.810  1.6606 -0.3994 -0.0420
  102OSM    H1T10266   1.988   6.717  10.746 -0.0676  2.0743  0.2946
  102OSM     NF10267   1.860   6.511  10.587  0.0335 -0.4742  0.7576
  102OSM    HNF10268   1.949   6.486  10.549  0.0022  0.5953 -0.0685
  102OSM    C2S10269   1.842   6.654  10.610  0.1273  0.5154  0.3130
  102OSM    H2S10270   1.736   6.675  10.585  0.7315  0.3705 -2.8623
  102OSM    C3S10271   1.927   6.741  10.507  0.5442  0.8842  0.2652
  102OSM    H3S10272   2.030   6.704  10.525 -0.0550 -0.6814  0.7081
  102OSM     O310273   1.910   6.881  10.530 -0.4175 -0.6635  0.3402
  102OSM    HO310274   1.894   6.886  10.625 -0.8592  3.2677  0.2440
  102OSM    C4S10275   1.882   6.710  10.368 -0.3530 -0.1775 -0.0306
  102OSM    H4S10276   1.792   6.767  10.341  0.0294  0.8981  0.9109
  102OSM    C5S10277   1.945   6.633  10.277  0.3381 -0.6449 -0.7668
  102OSM    H5S10278   2.024   6.573  10.324 -1.1541 -0.8776  1.6346
  102OSM    C6S10279   1.913   6.609  10.132  0.3586  0.0843  0.3534
  102OSM    H6S10280   1.867   6.697  10.082 -0.8698 -1.7904 -2.0097
  102OSM    H6T10281   1.830   6.535  10.136  0.4849 -0.1129 -0.4925
  102OSM    C7S10282   2.031   6.555  10.053  0.1799 -0.8110  0.8078
  102OSM    H7S10283   2.069   6.462  10.102  3.9281  0.9612  1.6200
  102OSM    H7T10284   2.111   6.632  10.059 -1.5413  1.0356  0.8282
  102OSM    C8S10285   2.011   6.529   9.901  0.4207  0.2872 -0.3780
  102OSM    H8S10286   2.113   6.518   9.859  0.8117  2.1844 -0.0530
  102OSM    H8T10287   1.968   6.616   9.848 -0.7728 -0.1767 -0.1949
  102OSM    C9S10288   1.913   6.409   9.865  0.2725 -0.3866 -0.2345
  102OSM    H9S10289   1.813   6.456   9.864  0.8132  0.8371  0.5463
  102OSM    H9T10290   1.921   6.332   9.944  2.1196 -1.3537 -1.2897
  102OSM   C10S10291   1.935   6.351   9.724  0.5516 -0.2006  0.4870
  102OSM   H10S10292   1.901   6.430   9.654 -1.2121 -1.5320 -0.2214
  102OSM   H10T10293   1.873   6.261   9.705  1.0426  0.1203 -3.3414
  102OSM   C11S10294   2.079   6.314   9.683 -0.0708  0.9115 -0.0519
  102OSM   H11S10295   2.119   6.261   9.772  1.1868  3.3481  0.9415
  102OSM   H11T10296   2.141   6.405   9.669  0.3292  0.8153  1.0719
  102OSM   C12S10297   2.088   6.214   9.565  0.3259 -0.5101  0.0022
  102OSM   H12S10298   2.021   6.130   9.592  0.7484 -0.8630 -0.0369
  102OSM   H12T10299   2.191   6.175   9.558  0.4041 -0.3172  0.0667
  102OSM   C13S10300   2.041   6.270   9.428  0.2579 -0.0479  0.6148
  102OSM   H13S10301   2.071   6.377   9.422 -2.6637  0.8769  0.6591
  102OSM   H13T10302   1.931   6.261   9.416  0.1752 -0.3360  1.5243
  102OSM   C14S10303   2.102   6.203   9.310 -0.6166 -0.0101 -0.0515
  102OSM   H14S10304   2.081   6.095   9.316 -0.8423  0.0799  1.0869
  102OSM   H14T10305   2.213   6.202   9.316 -0.6399 -1.3901  0.5089
  102OSM   C15S10306   2.064   6.261   9.170 -0.0687  0.8704 -0.3545
  102OSM   H15S10307   2.038   6.367   9.187 -1.8973  0.2049  1.3953
  102OSM   H15T10308   1.972   6.208   9.134 -0.3302  0.5284  0.7685
  102OSM   C16S10309   2.187   6.238   9.074  0.1130 -0.2045 -0.5376
  102OSM   H16S10310   2.275   6.287   9.121 -0.9002 -0.5568  1.8995
  102OSM   H16T10311   2.160   6.304   8.989 -0.9863  0.6512  0.4372
  102OSM   C17S10312   2.215   6.103   9.014  0.3504  0.2927  0.0368
  102OSM   H17S10313   2.117   6.054   8.995  0.3249 -0.0959  1.1282
  102OSM   H17T10314   2.263   6.042   9.094  0.1557 -1.0310 -0.8246
  102OSM   C18S10315   2.300   6.117   8.885  0.5905  0.7367  0.4416
  102OSM   H18S10316   2.313   6.019   8.835 -4.0581 -0.8324  1.7671
  102OSM   H18T10317   2.399   6.165   8.903  0.6198  0.1280  2.0744
  102OSM   H18U10318   2.246   6.174   8.806 -1.5773 -1.9471 -0.1381
  102OSM    C1F10319   1.788   6.421  10.651 -0.1031  0.7641  0.5320
  102OSM     OF10320   1.677   6.446  10.696  0.0090  0.7001 -0.6290
  102OSM    C2F10321   1.849   6.280  10.671  0.0893  0.6591  0.6216
  102OSM    H2F10322   1.830   6.259  10.778 -0.4791 -0.2817  0.3485
  102OSM    H2G10323   1.957   6.291  10.651 -0.1289  1.3862 -0.2379
  102OSM    C3F10324   1.774   6.170  10.586 -0.2126  0.1055 -0.3911
  102OSM    H3F10325   1.665   6.190  10.582  0.0008  2.3385  2.2566
  102OSM    H3G10326   1.787   6.069  10.632 -0.5141  0.6651  0.9789
  102OSM    C4F10327   1.815   6.181  10.438  0.8148  0.3901 -0.5010
  102OSM    H4F10328   1.835   6.081  10.393  0.5371  0.2311 -0.2749
  102OSM    H4G10329   1.910   6.238  10.436 -0.0316  1.8353 -0.8678
  102OSM    C5F10330   1.722   6.260  10.338  0.5267 -0.3051  0.1664
  102OSM    H5F10331   1.727   6.370  10.355 -3.0122 -0.1597  0.9818
  102OSM    H5G10332   1.619   6.226  10.362 -0.0025  1.3304  0.3786
  102OSM    C6F10333   1.752   6.245  10.189 -0.3536  0.0215 -0.0337
  102OSM    H6F10334   1.749   6.136  10.171 -0.3659 -0.7057  3.6048
  102OSM    H6G10335   1.855   6.285  10.178 -0.7983  0.7096 -2.1264
  102OSM    C7F10336   1.651   6.322  10.107  0.0977  0.0889  0.1806
  102OSM    H7F10337   1.685   6.337  10.002  1.2208  1.2087  0.6672
  102OSM    H7G10338   1.636   6.421  10.157  2.9398  0.5362  0.3443
  102OSM    C8F10339   1.513   6.246  10.092  0.5926  0.7319 -0.5450
  102OSM    H8F10340   1.471   6.207  10.188 -0.8201 -0.3692 -1.5582
  102OSM    H8G10341   1.538   6.152  10.038  1.1972 -0.4722  1.6949
  102OSM    C9F10342   1.410   6.321  10.012 -0.5652 -0.3468 -0.0731
  102OSM    H9F10343   1.370   6.414  10.055 -0.2863  0.9593 -2.4440
  102OSM   C10F10344   1.358   6.279   9.897 -0.3600  0.0887  0.1240
  102OSM   H10F10345   1.276   6.336   9.850  0.5166  0.5163 -0.9277
  102OSM   C11F10346   1.400   6.164   9.810 -0.0034  0.3059  0.2405
  102OSM   H11F10347   1.322   6.154   9.732  1.0352 -2.1955 -0.5693
  102OSM   H11G10348   1.388   6.069   9.866 -1.1316 -2.0646 -3.6707
  102OSM   C12F10349   1.545   6.175   9.747 -0.4799  0.0561 -0.0177
  102OSM   H12F10350   1.618   6.210   9.823 -0.4074  0.2494 -0.1740
  102OSM   H12G10351   1.539   6.267   9.684 -2.5689  0.6454  0.9372
  102OSM   C13F10352   1.581   6.053   9.658  0.8252 -0.0593 -0.2491
  102OSM   H13F10353   1.506   6.072   9.578  0.2150 -0.6946  0.1640
  102OSM   H13G10354   1.562   5.960   9.716  0.5975 -0.5149 -1.0333
  102OSM   C14F10355   1.711   6.055   9.597 -0.1101 -0.3450  0.7002
  102OSM   H14F10356   1.786   6.037   9.678  1.7007  0.7048 -0.6594
  102OSM   H14G10357   1.733   6.154   9.552  0.7730 -1.5068 -1.5968
  102OSM   C15F10358   1.723   5.946   9.495  0.5206 -0.1063 -0.4854
  102OSM   H15F10359   1.665   5.966   9.402  1.3753 -0.8937 -1.2065
  102OSM   H15G10360   1.691   5.852   9.545  0.9945  0.4469  0.8992
  102OSM   C16F10361   1.862   5.945   9.429  0.1194 -0.0966  0.7853
  102OSM   H16F10362   1.939   5.905   9.499 -0.3935  3.3985  3.6361
  102OSM   H16G10363   1.905   6.045   9.407  1.2545 -0.7732 -0.1737
  102OSM   C17F10364   1.864   5.856   9.299 -0.3985 -0.7973  0.2042
  102OSM   H17F10365   1.804   5.764   9.318 -2.5373 -0.0661 -2.2839
  102OSM   H17G10366   1.970   5.823   9.294  0.8101  2.0960  3.0317
  102OSM   C18F10367   1.832   5.910   9.168  0.0479 -0.3774  0.3561
  102OSM   H18F10368   1.904   5.986   9.131 -1.8920  0.3672 -2.1250
  102OSM   H18G10369   1.727   5.943   9.155  0.4456  0.3387 -1.2705
  102OSM   H18H10370   1.835   5.825   9.096 -0.6065 -0.8395  0.8644
  103OSM      N10371   0.198   3.879  11.335  0.5922  0.2219  0.1217
  103OSM    C1510372   0.048   3.876  11.325 -0.0923  0.1571  0.2192
  103OSM   H15A10373   0.002   3.933  11.405 -0.3130 -0.4591  0.5305
  103OSM   H15B10374   0.014   3.774  11.333  1.4519 -0.3343  0.7202
  103OSM   H15C10375   0.003   3.912  11.233 -1.9427 -1.8978  0.2572
  103OSM    C1410376   0.236   4.012  11.349  0.4264 -0.0905  0.5801
  103OSM   H14A10377   0.214   4.068  11.259 -2.2791 -0.2750  1.0511
  103OSM   H14B10378   0.342   4.021  11.371  0.8606 -0.7846 -1.0539
  103OSM   H14C10379   0.177   4.060  11.425  0.7481  2.0657 -0.4292
  103OSM    C1310380   0.222   3.806  11.466 -0.2745 -0.3894 -0.2881
  103OSM   H13A10381   0.181   3.864  11.547 -0.9784  0.8532 -1.4956
  103OSM   H13B10382   0.328   3.804  11.486 -0.5857  0.8496  1.6669
  103OSM   H13C10383   0.177   3.708  11.473 -1.3157  0.1195  0.4008
  103OSM    C1210384   0.265   3.822  11.209 -0.0160 -0.0706 -0.6840
  103OSM   H12A10385   0.226   3.721  11.200 -0.6865 -0.0369  1.2932
  103OSM   H12B10386   0.369   3.813  11.239  0.2356 -1.6287 -1.8607
  103OSM    C1110387   0.259   3.895  11.078  0.3829  0.0708  0.4236
  103OSM   H11A10388   0.157   3.939  11.069  0.6228  0.6621  0.5626
  103OSM   H11B10389   0.281   3.826  10.993 -0.2931 -0.6493  0.8131
  103OSM      P10390   0.310   4.134  10.988  0.2937  0.0826 -0.2839
  103OSM    O1310391   0.383   4.248  11.050 -0.2171 -0.0930  0.0609
  103OSM    O1410392   0.334   4.104  10.844 -0.2365 -0.6464 -0.0804
  103OSM    O1110393   0.146   4.157  11.000 -0.0658 -0.4359  0.3711
  103OSM    O1210394   0.348   4.002  11.075 -0.3939 -0.0464  0.1136
  103OSM    C1S10395   0.067   4.238  10.906  0.2723 -0.2885 -0.5302
  103OSM    H1S10396   0.120   4.261  10.811 -0.3083  1.2004 -0.5244
  103OSM    H1T10397   0.052   4.341  10.945  2.3853 -0.4784  0.9338
  103OSM     NF10398  -0.124   4.230  10.753  0.6656  0.4351 -0.0156
  103OSM    HNF10399  -0.167   4.320  10.758 -0.6391 -0.1363 -0.4886
  103OSM    C2S10400  -0.069   4.172  10.871 -0.2851  0.1513 -0.0545
  103OSM    H2S10401  -0.058   4.063  10.848  1.8911  0.8675 -3.1339
  103OSM    C3S10402  -0.161   4.186  10.992  0.0237 -0.5518  0.5789
  103OSM    H3S10403  -0.196   4.291  11.005  2.3475  0.4843 -0.8889
  103OSM     O310404  -0.096   4.154  11.117  0.2030  0.0103  0.5614
  103OSM    HO310405  -0.003   4.150  11.096  0.4628  1.1328  1.3639
  103OSM    C4S10406  -0.289   4.108  10.973  0.0236  0.1444  0.2647
  103OSM    H4S10407  -0.280   3.999  10.986  0.0264  0.1133  0.0119
  103OSM    C5S10408  -0.412   4.159  10.956  0.2577  0.6520  0.6458
  103OSM    H5S10409  -0.413   4.269  10.949  0.6998  0.7588  1.9736
  103OSM    C6S10410  -0.541   4.079  10.927 -0.2757  0.2415  0.2257
  103OSM    H6S10411  -0.593   4.136  10.847  0.7784  2.5240  1.0784
  103OSM    H6T10412  -0.609   4.081  11.014  2.2141  0.3106  2.2994
  103OSM    C7S10413  -0.503   3.937  10.881 -0.0699 -0.0818  0.4696
  103OSM    H7S10414  -0.444   3.878  10.954  0.9872  0.9529  0.4734
  103OSM    H7T10415  -0.437   3.924  10.793 -1.9904 -0.7209 -0.9294
  103OSM    C8S10416  -0.625   3.841  10.840  0.1424 -0.1497 -0.4195
  103OSM    H8S10417  -0.690   3.843  10.930  1.1927  1.6223  0.3466
  103OSM    H8T10418  -0.578   3.740  10.831  2.9841  0.7672  2.2038
  103OSM    C9S10419  -0.684   3.886  10.713 -0.6094 -0.5688  0.0173
  103OSM    H9S10420  -0.609   3.865  10.635 -0.4805 -0.9774  0.2494
  103OSM    H9T10421  -0.702   3.996  10.714 -0.5083 -0.5539  0.5870
  103OSM   C10S10422  -0.812   3.809  10.668 -0.5517  0.0093 -0.2261
  103OSM   H10S10423  -0.868   3.782  10.760 -1.5939 -1.0234 -1.1207
  103OSM   H10T10424  -0.789   3.710  10.623 -1.0649  0.0552 -0.6011
  103OSM   C11S10425  -0.898   3.896  10.577 -0.8152  0.2963  0.7770
  103OSM   H11S10426  -0.944   3.979  10.634 -1.6995  0.3949 -0.0518
  103OSM   H11T10427  -0.983   3.838  10.536 -1.5327  0.7724  1.5787
  103OSM   C12S10428  -0.831   3.959  10.449 -0.6646 -0.1720  0.6320
  103OSM   H12S10429  -0.746   4.020  10.485  0.5833 -1.7004  0.3862
  103OSM   H12T10430  -0.887   4.036  10.391  3.1346  1.2390 -1.5276
  103OSM   C13S10431  -0.781   3.859  10.347 -0.2932 -0.2482 -0.0593
  103OSM   H13S10432  -0.863   3.800  10.300 -0.0435  0.0325 -0.8616
  103OSM   H13T10433  -0.716   3.785  10.397  1.3413 -0.1939 -1.9705
  103OSM   C14S10434  -0.719   3.927  10.222 -0.0669  0.4270  0.4082
  103OSM   H14S10435  -0.641   3.990  10.270 -0.0851 -0.0457  1.0728
  103OSM   H14T10436  -0.789   3.991  10.164  1.7772  0.5733 -1.8101
  103OSM   C15S10437  -0.658   3.831  10.117  0.0324 -0.4195  0.0395
  103OSM   H15S10438  -0.709   3.733  10.124  2.0080 -1.4873  0.2902
  103OSM   H15T10439  -0.551   3.815  10.142  0.4702  0.4418 -1.1531
  103OSM   C16S10440  -0.656   3.886   9.972 -1.1606  0.5255 -0.5758
  103OSM   H16S10441  -0.609   3.986   9.963  1.5881 -0.6191 -0.0955
  103OSM   H16T10442  -0.758   3.897   9.932 -0.4204  1.8913 -2.2057
  103OSM   C17S10443  -0.582   3.792   9.867  0.1973 -0.3372 -0.0735
  103OSM   H17S10444  -0.474   3.785   9.889 -0.0130 -0.1106  1.0902
  103OSM   H17T10445  -0.595   3.844   9.770  0.0382 -0.4683 -0.1245
  103OSM   C18S10446  -0.628   3.650   9.849  0.6386 -0.4173 -0.1107
  103OSM   H18S10447  -0.574   3.610   9.761 -0.6446 -0.8665 -0.7145
  103OSM   H18T10448  -0.731   3.647   9.808  1.2565  0.3029 -1.7999
  103OSM   H18U10449  -0.611   3.584   9.937 -1.2480  1.0308  1.4103
  103OSM    C1F10450  -0.074   4.200  10.630  0.2897 -0.3625  0.4425
  103OSM     OF10451   0.008   4.112  10.615  0.0368 -0.4528  0.0417
  103OSM    C2F10452  -0.112   4.298  10.527  0.1034 -0.4158  0.8500
  103OSM    H2F10453  -0.120   4.403  10.562 -0.1162  0.5186 -1.7812
  103OSM    H2G10454  -0.212   4.266  10.490  0.2747 -1.1197  0.9790
  103OSM    C3F10455  -0.019   4.301  10.408 -0.1984  0.2599  0.5438
  103OSM    H3F10456   0.034   4.206  10.383  0.6168  1.0940 -1.1044
  103OSM    H3G10457   0.060   4.375  10.434 -0.3089  0.3968  0.4921
  103OSM    C4F10458  -0.095   4.344  10.278 -0.6398 -0.2406 -0.0373
  103OSM    H4F10459  -0.159   4.259  10.244 -1.0273 -0.3765  0.9910
  103OSM    H4G10460  -0.021   4.370  10.200  0.4080  0.1359  1.0581
  103OSM    C5F10461  -0.182   4.468  10.294  1.2653  0.2155 -0.6362
  103OSM    H5F10462  -0.120   4.556  10.325  0.9853  1.4979 -3.4366
  103OSM    H5G10463  -0.252   4.445  10.377  0.1406 -1.6265 -2.0511
  103OSM    C6F10464  -0.249   4.512  10.167  0.0878  0.5114 -0.1197
  103OSM    H6F10465  -0.308   4.602  10.191 -1.2893 -1.2118  3.7663
  103OSM    H6G10466  -0.324   4.432  10.146 -1.2687  1.2866  1.6015
  103OSM    C7F10467  -0.162   4.542  10.048  0.2508  0.6771 -0.4252
  103OSM    H7F10468  -0.131   4.452   9.992 -0.7383  0.4690 -0.6692
  103OSM    H7G10469  -0.063   4.582  10.076 -0.2419  0.9480  1.0342
  103OSM    C8F10470  -0.241   4.630   9.948 -0.1012  0.8919  0.1706
  103OSM    H8F10471  -0.282   4.714  10.009 -2.4618  0.5050 -0.7954
  103OSM    H8G10472  -0.323   4.566   9.909  0.9433  0.4595 -1.4416
  103OSM    C9F10473  -0.135   4.686   9.856  0.5191  0.5575 -0.0732
  103OSM    H9F10474  -0.073   4.766   9.899  0.7015  0.5214 -0.2668
  103OSM   C10F10475  -0.127   4.657   9.726  0.0460 -0.0331  0.2529
  103OSM   H10F10476  -0.039   4.695   9.673  1.9051 -0.5191  2.7912
  103OSM   C11F10477  -0.214   4.560   9.642 -0.3353 -0.0866 -0.0315
  103OSM   H11F10478  -0.267   4.493   9.713 -0.3856  0.3740  0.3630
  103OSM   H11G10479  -0.146   4.503   9.574  0.7163  0.8497  0.2161
  103OSM   C12F10480  -0.325   4.638   9.559 -0.5263  0.2695  0.1342
  103OSM   H12F10481  -0.378   4.700   9.634 -0.1647  1.7628 -0.7972
  103OSM   H12G10482  -0.391   4.556   9.523 -0.5772 -0.0232  0.8720
  103OSM   C13F10483  -0.265   4.729   9.446 -0.7828 -0.2354  0.0410
  103OSM   H13F10484  -0.210   4.817   9.485  1.0405 -2.2187  2.2808
  103OSM   H13G10485  -0.347   4.752   9.374  1.9974  2.2703 -2.6092
  103OSM   C14F10486  -0.152   4.656   9.357  0.1066  0.7573  0.3287
  103OSM   H14F10487  -0.059   4.645   9.416  0.7055  1.8340 -0.3855
  103OSM   H14G10488  -0.118   4.735   9.286  3.1409 -1.8205 -1.3829
  103OSM   C15F10489  -0.201   4.532   9.279 -0.4585 -0.5447  0.4967
  103OSM   H15F10490  -0.308   4.550   9.253  0.4604  0.6548 -2.9646
  103OSM   H15G10491  -0.190   4.436   9.335  1.8903 -2.1058 -2.3592
  103OSM   C16F10492  -0.138   4.521   9.133  0.5773 -0.8418 -0.5738
  103OSM   H16F10493  -0.159   4.620   9.086  1.0848 -1.5008 -2.2588
  103OSM   H16G10494  -0.190   4.439   9.079 -0.9979 -0.4134  0.2432
  103OSM   C17F10495   0.014   4.493   9.117  0.2649  0.0663  0.3961
  103OSM   H17F10496   0.030   4.391   9.158  0.3014 -0.4512 -0.8791
  103OSM   H17G10497   0.063   4.563   9.188 -0.9372 -1.3084  2.6786
  103OSM   C18F10498   0.083   4.530   8.987  0.2176 -0.7795 -0.1350
  103OSM   H18F10499   0.038   4.484   8.896 -1.8151 -0.1435  0.4904
  103OSM   H18G10500   0.187   4.494   8.996  0.0406 -1.2266  0.1649
  103OSM   H18H10501   0.090   4.641   8.990  1.7175 -0.8469  3.3565
  104OSM      N10502   1.980   2.794  10.996 -0.5244 -0.4224 -0.5362
  104OSM    C1510503   2.065   2.675  10.967  0.6330 -0.8118 -1.3181
  104OSM   H15A10504   2.153   2.704  10.911  0.6900 -0.2187 -0.9288
  104OSM   H15B10505   2.010   2.600  10.912 -0.5639 -1.0724  0.1709
  104OSM   H15C10506   2.113   2.629  11.053  1.5989 -0.7752 -1.8271
  104OSM    C1410507   2.055   2.885  11.093 -0.5315  0.6351  0.5524
  104OSM   H14A10508   2.157   2.903  11.065 -0.8224  0.1759 -0.8710
  104OSM   H14B10509   2.060   2.828  11.186 -2.3475 -0.9358 -0.2372
  104OSM   H14C10510   1.994   2.971  11.113 -2.1236 -0.0289 -1.1550
  104OSM    C1310511   1.966   2.867  10.866 -0.1949  0.0566 -0.0541
  104OSM   H13A10512   1.947   2.808  10.778 -1.7386  1.4700 -0.7137
  104OSM   H13B10513   2.060   2.917  10.845 -0.8750  0.3262 -2.9013
  104OSM   H13C10514   1.889   2.942  10.876  1.3400  2.0786 -2.0885
  104OSM    C1210515   1.836   2.756  11.041  0.1140  0.0681 -1.0324
  104OSM   H12A10516   1.774   2.841  11.065 -2.3275 -1.6338 -0.9182
  104OSM   H12B10517   1.843   2.700  11.133 -2.4526  2.7177  0.9545
  104OSM    C1110518   1.762   2.655  10.941  0.2839  0.4943 -0.8412
  104OSM   H11A10519   1.757   2.698  10.838 -0.3430 -1.2053 -1.5695
  104OSM   H11B10520   1.657   2.665  10.978  1.2364 -0.5383  2.4647
  104OSM      P10521   1.747   2.405  11.023  0.5272 -0.1348 -0.5612
  104OSM    O1310522   1.852   2.305  11.044 -0.0769  0.2798  0.5004
  104OSM    O1410523   1.687   2.463  11.142  0.2170  0.4795 -0.3745
  104OSM    O1110524   1.630   2.356  10.922 -0.1539  0.4344 -0.1631
  104OSM    O1210525   1.802   2.520  10.936  0.0329 -0.3474 -0.3458
  104OSM    C1S10526   1.614   2.397  10.787 -1.0096  0.8862  0.3784
  104OSM    H1S10527   1.685   2.330  10.734 -0.9133  0.3152  1.2117
  104OSM    H1T10528   1.649   2.499  10.760 -0.2432  0.6785  0.5675
  104OSM     NF10529   1.478   2.385  10.585 -0.2196 -0.1124 -0.5694
  104OSM    HNF10530   1.438   2.469  10.548  0.5958 -0.3731 -2.1319
  104OSM    C2S10531   1.473   2.369  10.726  0.3178 -0.4480 -0.5545
  104OSM    H2S10532   1.453   2.262  10.752  1.9395 -0.5064  0.6586
  104OSM    C3S10533   1.364   2.448  10.808 -0.4317  0.1413  1.4743
  104OSM    H3S10534   1.397   2.553  10.792  0.0453 -0.0796  0.9828
  104OSM     O310535   1.377   2.422  10.943 -0.1764 -0.2650 -0.0831
  104OSM    HO310536   1.471   2.410  10.962  0.0044 -1.3207 -1.4984
  104OSM    C4S10537   1.223   2.411  10.756  1.2143 -0.1512  0.1028
  104OSM    H4S10538   1.179   2.470  10.675  3.0760 -0.5778 -1.2838
  104OSM    C5S10539   1.160   2.291  10.774 -0.8615 -0.3956  0.5793
  104OSM    H5S10540   1.205   2.213  10.837  1.8438 -0.0926 -0.8133
  104OSM    C6S10541   1.023   2.268  10.713  0.6608 -0.3703  0.0997
  104OSM    H6S10542   0.967   2.362  10.690 -1.6456 -1.5994  0.3674
  104OSM    H6T10543   0.959   2.221  10.792 -0.4058 -0.9278 -1.0622
  104OSM    C7S10544   1.020   2.180  10.582 -0.4998  0.7245 -0.3990
  104OSM    H7S10545   0.913   2.171  10.554 -0.9786 -1.2663  1.6868
  104OSM    H7T10546   1.064   2.079  10.601  1.1485  1.7974  1.9789
  104OSM    C8S10547   1.088   2.248  10.465  0.7565 -0.7810  0.1936
  104OSM    H8S10548   1.199   2.254  10.472  0.7363  1.2952 -0.6170
  104OSM    H8T10549   1.053   2.354  10.468 -1.3165 -1.4166  0.0233
  104OSM    C9S10550   1.051   2.194  10.324 -0.0654  0.2110  0.4104
  104OSM    H9S10551   0.940   2.198  10.322 -0.0947 -0.6055 -1.0462
  104OSM    H9T10552   1.091   2.090  10.315 -1.8598 -0.3187 -2.5711
  104OSM   C10S10553   1.107   2.271  10.206 -0.0589  0.4104  0.5562
  104OSM   H10S10554   1.218   2.281  10.207 -0.0333  1.8917 -2.7239
  104OSM   H10T10555   1.074   2.375  10.223 -0.8705  0.5687 -1.5895
  104OSM   C11S10556   1.069   2.226  10.068  0.4447  0.8037  0.1285
  104OSM   H11S10557   0.961   2.249  10.051 -0.6046 -3.0027  0.5556
  104OSM   H11T10558   1.078   2.115  10.068 -0.0268  0.7624  0.9532
  104OSM   C12S10559   1.166   2.283   9.959 -1.0321 -0.0535 -0.9082
  104OSM   H12S10560   1.259   2.222   9.960 -0.9221  0.1088  0.1790
  104OSM   H12T10561   1.194   2.389   9.976  1.9667 -0.4576 -2.6054
  104OSM   C13S10562   1.105   2.278   9.821  0.3944 -0.6057 -0.6235
  104OSM   H13S10563   1.018   2.347   9.809 -0.3503 -1.8114 -2.5852
  104OSM   H13T10564   1.065   2.175   9.809  1.2330 -1.1766  1.0949
  104OSM   C14S10565   1.209   2.298   9.701  0.3235  0.2725 -0.2437
  104OSM   H14S10566   1.287   2.219   9.710 -0.3982 -0.2232  3.5879
  104OSM   H14T10567   1.249   2.397   9.729 -0.6515  0.9058 -1.0537
  104OSM   C15S10568   1.132   2.302   9.567 -0.1430 -0.0818 -0.5908
  104OSM   H15S10569   1.060   2.387   9.570 -0.0851  0.0065 -1.4430
  104OSM   H15T10570   1.072   2.209   9.554  0.3819 -0.6674  0.9741
  104OSM   C16S10571   1.230   2.307   9.450 -0.7419 -1.1334 -0.4586
  104OSM   H16S10572   1.301   2.222   9.450 -0.2007 -0.7782  2.5481
  104OSM   H16T10573   1.297   2.396   9.449 -2.3061  0.1042 -2.0179
  104OSM   C17S10574   1.155   2.318   9.317 -0.6361  0.0028  0.9229
  104OSM   H17S10575   1.111   2.420   9.307 -0.7167  0.2299  3.1799
  104OSM   H17T10576   1.066   2.253   9.304  0.1803 -0.8337 -0.9654
  104OSM   C18S10577   1.244   2.272   9.194 -0.5145  0.2173  0.0781
  104OSM   H18S10578   1.299   2.177   9.204  1.2734  1.2442  0.3273
  104OSM   H18T10579   1.316   2.354   9.173  0.7025  0.3233  4.0263
  104OSM   H18U10580   1.177   2.260   9.106  1.1180  0.8107 -1.3016
  104OSM    C1F10581   1.531   2.306  10.490 -0.1894  0.3962 -0.0038
  104OSM     OF10582   1.561   2.195  10.524  0.1398 -0.1721  0.1800
  104OSM    C2F10583   1.546   2.356  10.355 -1.0063  0.6579  0.3779
  104OSM    H2F10584   1.626   2.433  10.350  0.4431 -0.8553 -1.9058
  104OSM    H2G10585   1.450   2.393  10.314 -0.6362  0.8461 -0.3216
  104OSM    C3F10586   1.569   2.235  10.265  0.7143  0.1393  0.4731
  104OSM    H3F10587   1.486   2.161  10.257  1.7612 -1.1067  0.8269
  104OSM    H3G10588   1.651   2.167  10.296  0.2117 -1.1038 -0.8064
  104OSM    C4F10589   1.599   2.281  10.121 -0.0161 -0.1659  0.1025
  104OSM    H4F10590   1.688   2.347  10.121 -1.9496  2.6925 -2.4826
  104OSM    H4G10591   1.530   2.358  10.082 -0.5657  0.2951  1.8746
  104OSM    C5F10592   1.612   2.175  10.012  0.0382  0.0312 -0.1756
  104OSM    H5F10593   1.518   2.116  10.008 -0.1771  0.3477  0.1620
  104OSM    H5G10594   1.696   2.103  10.020 -0.1176 -0.0081  1.3232
  104OSM    C6F10595   1.622   2.228   9.863 -0.7389 -0.2938 -0.0614
  104OSM    H6F10596   1.705   2.300   9.851 -0.3236 -0.6104  0.8203
  104OSM    H6G10597   1.525   2.276   9.835  0.1195  0.2848 -2.2212
  104OSM    C7F10598   1.658   2.111   9.766  0.4510  0.4936  0.4029
  104OSM    H7F10599   1.576   2.036   9.773  0.6270  0.4323  2.2811
  104OSM    H7G10600   1.752   2.053   9.781 -0.2274 -1.3963 -1.9562
  104OSM    C8F10601   1.651   2.166   9.617  0.2821 -0.2595  0.3251
  104OSM    H8F10602   1.565   2.236   9.608 -0.5328 -1.3576 -0.6891
  104OSM    H8G10603   1.618   2.077   9.560 -0.1240 -0.1903  0.4516
  104OSM    C9F10604   1.787   2.214   9.579  0.9991  0.3773  0.2308
  104OSM    H9F10605   1.837   2.273   9.657 -0.1844  1.7019  0.0256
  104OSM   C10F10606   1.848   2.200   9.463  0.6746 -0.6455  0.4030
  104OSM   H10F10607   1.951   2.237   9.456 -0.1348  2.1849  2.0608
  104OSM   C11F10608   1.796   2.134   9.340 -0.2237  1.0244  0.0726
  104OSM   H11F10609   1.693   2.093   9.346  0.2748 -0.9318 -2.6334
  104OSM   H11G10610   1.874   2.055   9.334 -1.1200 -0.0572  1.7972
  104OSM   C12F10611   1.794   2.225   9.213 -0.1543  0.1117 -0.0773
  104OSM   H12F10612   1.899   2.262   9.214  0.7365 -2.2054 -0.7984
  104OSM   H12G10613   1.729   2.309   9.243  0.4056  0.2015  0.9239
  104OSM   C13F10614   1.755   2.138   9.092  0.1952  0.3141 -0.4067
  104OSM   H13F10615   1.672   2.064   9.104  1.3756 -1.1838 -1.1279
  104OSM   H13G10616   1.846   2.078   9.072 -0.2047 -1.2240  1.9312
  104OSM   C14F10617   1.715   2.209   8.960  0.2676  0.3729  0.0643
  104OSM   H14F10618   1.799   2.266   8.916  1.6729 -0.1316  1.9526
  104OSM   H14G10619   1.630   2.278   8.985 -0.9412 -0.5194 -1.3845
  104OSM   C15F10620   1.660   2.100   8.855 -0.1625  0.1186 -1.2667
  104OSM   H15F10621   1.566   2.064   8.900 -0.2358  1.0406 -0.6342
  104OSM   H15G10622   1.731   2.014   8.850 -1.7642 -1.3049 -0.2989
  104OSM   C16F10623   1.654   2.151   8.718  0.2684 -0.5395  0.3606
  104OSM   H16F10624   1.758   2.160   8.682  0.5356 -3.9657 -0.0963
  104OSM   H16G10625   1.600   2.247   8.707  1.2635 -0.1037 -1.0481
  104OSM   C17F10626   1.587   2.046   8.631  0.1344 -0.5070  0.2583
  104OSM   H17F10627   1.499   2.008   8.687 -1.6226  0.5058 -1.6808
  104OSM   H17G10628   1.667   1.969   8.630  2.5025  1.7868 -1.3798
  104OSM   C18F10629   1.555   2.082   8.483 -0.5560  0.9062 -0.5824
  104OSM   H18F10630   1.502   1.996   8.435  3.1550 -2.8270  1.3364
  104OSM   H18G10631   1.646   2.097   8.421 -0.4383 -1.0448 -0.9551
  104OSM   H18H10632   1.493   2.174   8.485  0.0093  1.3752  3.3772
  105OSM      N10633   3.706   0.021  11.138  0.5185  0.0765 -0.0180
  105OSM    C1510634   3.685   0.171  11.122  0.1200 -0.6310 -0.9295
  105OSM   H15A10635   3.772   0.219  11.080 -0.0749  1.1963  0.5781
  105OSM   H15B10636   3.661   0.227  11.212  0.8471 -2.9620  0.7994
  105OSM   H15C10637   3.610   0.175  11.044 -3.4336 -0.4431  2.1769
  105OSM    C1410638   3.810   0.006  11.233 -0.1952  0.5123  0.3984
  105OSM   H14A10639   3.789   0.038  11.334  2.1562 -0.5298  1.3115
  105OSM   H14B10640   3.902   0.044  11.190 -0.4854 -1.1211 -1.7814
  105OSM   H14C10641   3.833  -0.099  11.244 -1.1027  0.3987  1.3863
  105OSM    C1310642   3.574  -0.034  11.193 -0.3634 -0.5432 -0.3636
  105OSM   H13A10643   3.558  -0.141  11.200 -2.8407 -0.1841  0.3413
  105OSM   H13B10644   3.491   0.013  11.142 -1.8126 -2.2679  0.2802
  105OSM   H13C10645   3.575  -0.001  11.296 -0.6018 -4.0198  0.8839
  105OSM    C1210646   3.742  -0.043  11.004  0.1331 -0.3912  0.7712
  105OSM   H12A10647   3.652  -0.030  10.946  0.0773  1.7211  1.2293
  105OSM   H12B10648   3.760  -0.149  11.008  1.8318 -0.0997  2.1997
  105OSM    C1110649   3.859   0.020  10.924 -0.2085  0.5884 -0.1585
  105OSM   H11A10650   3.841   0.129  10.906  0.0984  1.3284  3.3754
  105OSM   H11B10651   3.874  -0.033  10.827  0.5940  1.6789 -0.6562
  105OSM      P10652   4.055  -0.124  11.000 -0.0087 -0.0403  0.4338
  105OSM    O1310653   4.177  -0.110  11.077 -0.0885 -0.3548  0.6690
  105OSM    O1410654   3.961  -0.224  11.041  0.3912  0.2660 -0.5741
  105OSM    O1110655   4.092  -0.154  10.853 -0.3718 -0.0998  0.3078
  105OSM    O1210656   3.986   0.017  10.995 -0.0060 -0.0202  0.1256
  105OSM    C1S10657   4.177  -0.272  10.831 -0.0770 -0.3249  0.1308
  105OSM    H1S10658   4.113  -0.361  10.854 -2.2038  1.4473  1.4253
  105OSM    H1T10659   4.271  -0.283  10.889  0.1486 -2.0139 -0.4722
  105OSM     NF10660   4.297  -0.406  10.652  0.2647 -0.3599 -0.5403
  105OSM    HNF10661   4.391  -0.394  10.619  0.9028 -3.1619  0.0115
  105OSM    C2S10662   4.222  -0.284  10.679  0.0138  0.1892  1.0530
  105OSM    H2S10663   4.133  -0.290  10.612  2.3409 -0.8258 -2.1572
  105OSM    C3S10664   4.302  -0.149  10.642  0.2809 -0.1322  0.1025
  105OSM    H3S10665   4.384  -0.136  10.716 -0.1091  2.2418  0.2169
  105OSM     O310666   4.226  -0.026  10.654 -0.5660 -0.1458  0.2525
  105OSM    HO310667   4.136  -0.049  10.680 -0.7324  0.2493  0.0397
  105OSM    C4S10668   4.360  -0.153  10.502 -0.4737 -0.5379 -0.6403
  105OSM    H4S10669   4.293  -0.177  10.419 -0.7727  1.8432 -1.1614
  105OSM    C5S10670   4.483  -0.127  10.471 -0.0244  0.2085 -0.0983
  105OSM    H5S10671   4.557  -0.089  10.543 -0.1301 -0.3261  0.3022
  105OSM    C6S10672   4.549  -0.126  10.336 -0.7839  0.8029 -0.2017
  105OSM    H6S10673   4.629  -0.203  10.340 -0.1440  1.4759  0.1848
  105OSM    H6T10674   4.604  -0.030  10.326  1.5619 -0.5191 -0.6289
  105OSM    C7S10675   4.464  -0.148  10.214 -0.4799  0.4711 -0.0390
  105OSM    H7S10676   4.380  -0.077  10.230 -1.1108 -0.3200  0.2580
  105OSM    H7T10677   4.423  -0.252  10.214  1.4772 -0.4006  2.0771
  105OSM    C8S10678   4.531  -0.124  10.080  0.1486  0.5799 -0.6400
  105OSM    H8S10679   4.616  -0.196  10.078 -1.2833 -1.2436  0.7200
  105OSM    H8T10680   4.566  -0.020  10.068  2.1436  0.1217  0.6970
  105OSM    C9S10681   4.435  -0.161   9.961  0.6574  0.6439 -0.0028
  105OSM    H9S10682   4.334  -0.120   9.981  0.0294 -0.3921 -0.9458
  105OSM    H9T10683   4.435  -0.270   9.943  0.8438  0.7759 -0.8300
  105OSM   C10S10684   4.477  -0.083   9.831  0.5051  0.5535 -0.3580
  105OSM   H10S10685   4.579  -0.121   9.810  0.4252  0.6139 -0.8886
  105OSM   H10T10686   4.479   0.026   9.851  2.0426  0.1704  1.8246
  105OSM   C11S10687   4.392  -0.117   9.703 -0.4985  0.1925 -0.2601
  105OSM   H11S10688   4.286  -0.088   9.720 -1.2126 -1.2194 -2.0065
  105OSM   H11T10689   4.400  -0.225   9.681 -0.6733  0.1499 -0.1129
  105OSM   C12S10690   4.444  -0.040   9.583  0.5001 -0.2383 -0.1938
  105OSM   H12S10691   4.551  -0.067   9.567  0.2509 -1.5047  0.1445
  105OSM   H12T10692   4.442   0.068   9.608 -0.5675 -0.4280  0.6129
  105OSM   C13S10693   4.364  -0.045   9.453 -0.0651  0.9110 -0.3674
  105OSM   H13S10694   4.256  -0.035   9.476 -0.1930  0.5961 -0.8257
  105OSM   H13T10695   4.383  -0.147   9.414 -2.1781  0.2032  0.3016
  105OSM   C14S10696   4.408   0.065   9.358  0.8010  0.3064 -0.6213
  105OSM   H14S10697   4.519   0.059   9.350  0.9401 -1.5282  1.5577
  105OSM   H14T10698   4.395   0.172   9.382  1.4140  0.2381  0.0312
  105OSM   C15S10699   4.355   0.040   9.215 -0.3198 -0.3533  0.5043
  105OSM   H15S10700   4.361  -0.062   9.172 -2.5523  0.4224 -1.9286
  105OSM   H15T10701   4.420   0.101   9.148  1.1407 -4.3160 -2.0262
  105OSM   C16S10702   4.207   0.085   9.207  0.2526 -0.3460 -0.9222
  105OSM   H16S10703   4.185   0.179   9.263 -1.7836 -0.8731 -0.7525
  105OSM   H16T10704   4.139   0.009   9.251  0.1142  0.9131  1.1753
  105OSM   C17S10705   4.157   0.096   9.065  0.3526  0.6561 -0.0151
  105OSM   H17S10706   4.226   0.158   9.004 -0.9538  1.9322 -0.2753
  105OSM   H17T10707   4.064   0.158   9.064  1.1268  1.8866  1.3305
  105OSM   C18S10708   4.136  -0.036   8.993  0.0922  0.0659 -0.1931
  105OSM   H18S10709   4.232  -0.091   8.987 -0.3825 -0.6125 -2.1766
  105OSM   H18T10710   4.091  -0.027   8.892  0.8869  0.1442 -0.5530
  105OSM   H18U10711   4.065  -0.089   9.059  1.9190  0.8894  2.6231
  105OSM    C1F10712   4.244  -0.522  10.677 -0.9689 -0.5355 -0.0045
  105OSM     OF10713   4.125  -0.540  10.690 -0.0614  0.7040  0.3078
  105OSM    C2F10714   4.342  -0.639  10.670  0.2652  0.0711  0.0458
  105OSM    H2F10715   4.397  -0.639  10.766  0.8545 -2.1095 -0.2315
  105OSM    H2G10716   4.407  -0.631  10.580  1.1040 -1.2585  0.5005
  105OSM    C3F10717   4.277  -0.772  10.648  0.4632  0.4147  0.3788
  105OSM    H3F10718   4.179  -0.778  10.699  0.7196  0.7988  0.9260
  105OSM    H3G10719   4.337  -0.857  10.689  1.2197  1.0812  0.6681
  105OSM    C4F10720   4.255  -0.812  10.498  0.0474 -0.2722 -0.0370
  105OSM    H4F10721   4.331  -0.771  10.428 -0.9169  1.7684  0.0281
  105OSM    H4G10722   4.166  -0.755  10.465 -0.6719  0.4425  2.8606
  105OSM    C5F10723   4.236  -0.962  10.460 -0.8308 -0.1670 -0.4798
  105OSM    H5F10724   4.162  -1.002  10.533 -1.0106  0.0228 -0.5553
  105OSM    H5G10725   4.331  -1.017  10.475  1.7433  3.6826 -1.2480
  105OSM    C6F10726   4.186  -0.963  10.318 -0.0275 -0.0255 -0.1256
  105OSM    H6F10727   4.104  -0.893  10.290 -0.6253 -1.4053 -1.9583
  105OSM    H6G10728   4.136  -1.061  10.301 -1.4571  0.4287  1.2160
  105OSM    C7F10729   4.294  -0.956  10.211 -0.3808 -0.0453 -0.0762
  105OSM    H7F10730   4.332  -1.060  10.222 -0.9879 -0.4167 -1.3336
  105OSM    H7G10731   4.371  -0.879  10.236  2.6690 -3.1756  1.0904
  105OSM    C8F10732   4.242  -0.926  10.068 -0.3469  0.8898 -0.7839
  105OSM    H8F10733   4.322  -0.874  10.010  0.4398 -1.4656 -1.9308
  105OSM    H8G10734   4.161  -0.853  10.088 -1.2483  0.2064 -1.8785
  105OSM    C9F10735   4.199  -1.048   9.990 -0.6703 -0.4991 -0.1757
  105OSM    H9F10736   4.253  -1.141  10.013 -0.8860 -0.6904 -0.4345
  105OSM   C10F10737   4.094  -1.056   9.908 -0.1877 -0.8627 -0.1758
  105OSM   H10F10738   4.064  -1.155   9.872  0.8553 -0.8082 -1.2469
  105OSM   C11F10739   3.998  -0.940   9.877  0.1239  0.5652 -0.1168
  105OSM   H11F10740   3.976  -0.879   9.967 -0.4473 -0.9875  0.8386
  105OSM   H11G10741   3.901  -0.989   9.851  0.4287  0.3254 -0.8464
  105OSM   C12F10742   4.052  -0.846   9.768  0.1851  0.3039 -0.5792
  105OSM   H12F10743   4.143  -0.804   9.816 -0.9511 -0.7558  2.7785
  105OSM   H12G10744   3.981  -0.770   9.730 -0.5525  1.0845  2.1877
  105OSM   C13F10745   4.110  -0.923   9.645 -0.5727 -0.0648 -0.6480
  105OSM   H13F10746   4.050  -1.007   9.603 -0.0063 -0.9805  0.3459
  105OSM   H13G10747   4.203  -0.972   9.678  0.0279  1.1769 -0.4223
  105OSM   C14F10748   4.163  -0.820   9.549  0.0280 -0.0850 -0.0288
  105OSM   H14F10749   4.208  -0.731   9.598  2.7240  0.0260 -2.4574
  105OSM   H14G10750   4.086  -0.776   9.482 -0.6793 -1.1912  0.0400
  105OSM   C15F10751   4.269  -0.873   9.452 -0.6217  0.7408 -0.3405
  105OSM   H15F10752   4.334  -0.944   9.507  0.0783  1.2074 -0.5677
  105OSM   H15G10753   4.329  -0.788   9.415 -1.7580  1.5501 -0.3906
  105OSM   C16F10754   4.215  -0.940   9.324 -0.0899 -0.8186  0.4472
  105OSM   H16F10755   4.153  -1.026   9.355 -0.4108  0.0012  2.1868
  105OSM   H16G10756   4.297  -0.982   9.262 -0.0122 -0.2769  0.1769
  105OSM   C17F10757   4.133  -0.844   9.232  0.1053  0.2503 -1.3163
  105OSM   H17F10758   4.200  -0.757   9.214  3.2354 -1.7249 -0.1025
  105OSM   H17G10759   4.042  -0.824   9.293  0.4208 -0.6019 -0.5380
  105OSM   C18F10760   4.075  -0.896   9.103 -1.0094 -0.0684  0.2911
  105OSM   H18F10761   4.012  -0.983   9.131 -0.1436 -0.5359  0.8111
  105OSM   H18G10762   4.147  -0.933   9.027 -1.4188 -0.4763  0.0929
  105OSM   H18H10763   4.010  -0.821   9.052 -0.5571 -1.2274 -2.1584
  106OSM      N10764   3.565   3.818  10.808 -0.6399  1.0133 -0.1559
  106OSM    C1510765   3.633   3.678  10.794  0.2927 -0.0196 -0.1452
  106OSM   H15A10766   3.723   3.666  10.852  0.9874 -0.6254 -1.2983
  106OSM   H15B10767   3.646   3.652  10.690 -0.6303 -0.4812 -0.1568
  106OSM   H15C10768   3.567   3.603  10.836 -2.2054  2.1452  0.0569
  106OSM    C1410769   3.428   3.817  10.743 -0.1178 -0.5013 -0.5746
  106OSM   H14A10770   3.386   3.916  10.745  0.0596 -0.2484 -3.7225
  106OSM   H14B10771   3.360   3.739  10.776  1.2211 -1.4174  0.0955
  106OSM   H14C10772   3.441   3.803  10.636 -1.5088  3.6339 -1.4544
  106OSM    C1310773   3.559   3.857  10.948  0.4484 -0.7014 -0.4813
  106OSM   H13A10774   3.512   3.950  10.977 -1.3709 -0.8198 -2.8083
  106OSM   H13B10775   3.657   3.844  10.994  0.1148  0.1020  0.4971
  106OSM   H13C10776   3.498   3.782  10.996  3.3555 -1.6346  2.1810
  106OSM    C1210777   3.654   3.921  10.732 -0.4759  0.7115 -0.0326
  106OSM   H12A10778   3.744   3.945  10.787  0.9300  2.2866 -2.7989
  106OSM   H12B10779   3.595   4.010  10.723 -1.4337  0.5870  3.5538
  106OSM    C1110780   3.706   3.880  10.595 -0.1805  0.8781  0.8730
  106OSM   H11A10781   3.732   3.973  10.540  1.0359  1.7184  2.7781
  106OSM   H11B10782   3.624   3.824  10.544 -0.3785  0.0219  2.1044
  106OSM      P10783   3.961   3.852  10.647 -0.1843 -0.3119 -0.0094
  106OSM    O1310784   3.943   3.969  10.740 -0.2832  0.2469 -0.4829
  106OSM    O1410785   4.056   3.746  10.685  0.2760  0.2874  0.0778
  106OSM    O1110786   4.000   3.909  10.510 -0.4998  0.3671 -0.2138
  106OSM    O1210787   3.821   3.794  10.607  0.0025  0.3324 -0.4179
  106OSM    C1S10788   4.134   3.962  10.501 -0.0948  0.3303  0.6134
  106OSM    H1S10789   4.203   3.879  10.526 -0.7544 -0.4861 -0.2051
  106OSM    H1T10790   4.151   4.053  10.562 -1.8271  1.5027 -0.5543
  106OSM     NF10791   4.316   3.993  10.324 -0.1521  0.1905  0.2752
  106OSM    HNF10792   4.338   4.082  10.284  0.5179 -0.9323 -2.0235
  106OSM    C2S10793   4.165   3.971  10.349 -0.2050 -0.1701 -0.6525
  106OSM    H2S10794   4.133   3.877  10.299  1.6471 -0.7073 -0.9256
  106OSM    C3S10795   4.088   4.081  10.284 -0.4056  0.4085 -0.2816
  106OSM    H3S10796   4.130   4.175  10.326  0.5052  1.2639 -2.8865
  106OSM     O310797   3.948   4.082  10.299  0.3059  0.1306  0.3777
  106OSM    HO310798   3.930   4.016  10.366 -0.8315  0.6232  0.5788
  106OSM    C4S10799   4.114   4.092  10.131 -0.0173  0.0339  0.5056
  106OSM    H4S10800   4.088   4.005  10.069  1.3550  0.6644 -1.0419
  106OSM    C5S10801   4.161   4.200  10.070 -0.1933 -0.2384 -0.5989
  106OSM    H5S10802   4.154   4.298  10.119  0.1858  0.1230 -1.2501
  106OSM    C6S10803   4.179   4.187   9.921 -0.4315 -0.3750 -0.1559
  106OSM    H6S10804   4.116   4.263   9.870  0.3996 -0.0897 -0.7763
  106OSM    H6T10805   4.146   4.088   9.881 -4.0593  0.7407 -0.3384
  106OSM    C7S10806   4.324   4.222   9.874 -0.5289 -0.8896  1.5358
  106OSM    H7S10807   4.400   4.201   9.952  1.9389  0.1433 -0.4203
  106OSM    H7T10808   4.333   4.332   9.861 -1.4603 -0.9208  0.4505
  106OSM    C8S10809   4.373   4.164   9.737 -0.3607 -0.0193  0.2725
  106OSM    H8S10810   4.392   4.055   9.751  1.0463  0.3583  1.5989
  106OSM    H8T10811   4.475   4.196   9.709 -0.9914  2.6693  0.7890
  106OSM    C9S10812   4.272   4.200   9.616  0.0207  0.6206  0.1516
  106OSM    H9S10813   4.261   4.310   9.612  1.3515  0.7399 -0.6999
  106OSM    H9T10814   4.172   4.166   9.651  0.2347 -1.4666 -1.1298
  106OSM   C10S10815   4.317   4.143   9.484 -0.1826 -0.0238 -0.1805
  106OSM   H10S10816   4.304   4.033   9.479  2.3243 -0.4325  0.7471
  106OSM   H10T10817   4.425   4.162   9.469  0.4618 -1.8184  1.6446
  106OSM   C11S10818   4.243   4.207   9.362 -0.4980  0.5037 -0.3412
  106OSM   H11S10819   4.254   4.318   9.357 -0.8212  0.5372 -0.3239
  106OSM   H11T10820   4.134   4.190   9.371 -0.9507  3.1630  0.0322
  106OSM   C12S10821   4.292   4.146   9.237  0.3776  0.2050 -0.1370
  106OSM   H12S10822   4.269   4.038   9.230  0.1846  0.0305  2.4434
  106OSM   H12T10823   4.401   4.163   9.249  0.1836  1.2614  0.2063
  106OSM   C13S10824   4.231   4.215   9.111  1.1166  0.4460  0.4808
  106OSM   H13S10825   4.271   4.318   9.096  1.2175  0.1799 -1.3473
  106OSM   H13T10826   4.124   4.243   9.118  1.1150  0.0033  3.9998
  106OSM   C14S10827   4.270   4.134   8.987 -0.3097 -0.5319 -0.3521
  106OSM   H14S10828   4.246   4.031   9.020  0.1782 -0.3455  0.6236
  106OSM   H14T10829   4.379   4.144   8.969 -0.5788  1.5455 -1.1834
  106OSM   C15S10830   4.193   4.179   8.866 -0.6808 -0.1535 -0.0601
  106OSM   H15S10831   4.202   4.288   8.848 -0.2366  0.0499  1.3049
  106OSM   H15T10832   4.087   4.161   8.894 -0.5852 -0.2161  0.2599
  106OSM   C16S10833   4.231   4.104   8.737 -0.4388  0.1965 -1.1363
  106OSM   H16S10834   4.213   3.994   8.743  0.3381  0.0969 -0.5494
  106OSM   H16T10835   4.339   4.120   8.719 -0.9531  1.2210 -3.8988
  106OSM   C17S10836   4.163   4.167   8.616 -0.0257  0.4155  0.2167
  106OSM   H17S10837   4.208   4.266   8.594  2.3584 -0.4066  1.0629
  106OSM   H17T10838   4.055   4.175   8.637 -0.3641  1.4769 -1.6795
  106OSM   C18S10839   4.187   4.076   8.486  0.5392  0.1820  0.4393
  106OSM   H18S10840   4.169   3.968   8.506 -0.0443 -0.4119 -2.8104
  106OSM   H18T10841   4.290   4.078   8.444 -0.0914  1.4725 -1.1743
  106OSM   H18U10842   4.114   4.111   8.409  0.7370  0.9022  0.5651
  106OSM    C1F10843   4.419   3.915  10.340 -0.1704 -0.2747  0.3082
  106OSM     OF10844   4.400   3.804  10.386 -0.4856  0.4594  0.3739
  106OSM    C2F10845   4.556   3.963  10.290  0.2927  0.4233  0.2219
  106OSM    H2F10846   4.631   3.949  10.371  2.8930  1.1114 -1.9469
  106OSM    H2G10847   4.546   4.071  10.269  2.7834  0.4462 -1.3038
  106OSM    C3F10848   4.618   3.888  10.168 -0.2899  0.0062 -0.0116
  106OSM    H3F10849   4.637   3.781  10.189 -1.3821 -0.4761 -1.3272
  106OSM    H3G10850   4.717   3.937  10.160 -0.8647  1.2067  0.0149
  106OSM    C4F10851   4.553   3.914  10.028 -0.1098  0.1269  0.3814
  106OSM    H4F10852   4.556   4.024  10.014 -0.2435 -0.0275 -0.8949
  106OSM    H4G10853   4.450   3.874  10.026 -0.8232  1.7487 -3.5889
  106OSM    C5F10854   4.640   3.864   9.904 -0.4051  0.0642 -0.2475
  106OSM    H5F10855   4.569   3.870   9.819 -0.7616  1.2472  0.1115
  106OSM    H5G10856   4.671   3.758   9.913 -1.2172 -0.1082  0.6421
  106OSM    C6F10857   4.765   3.956   9.879 -0.0777 -0.1635 -0.8204
  106OSM    H6F10858   4.808   3.987   9.976  1.1280 -1.4838 -0.9016
  106OSM    H6G10859   4.741   4.050   9.825 -1.7689  0.0167  0.1628
  106OSM    C7F10860   4.866   3.879   9.792 -0.5265 -0.3289  0.6093
  106OSM    H7F10861   4.876   3.785   9.850 -0.8501  0.3059  1.7120
  106OSM    H7G10862   4.956   3.941   9.774  0.4535 -1.5012  1.3619
  106OSM    C8F10863   4.811   3.852   9.648  0.4369  0.1066  0.7875
  106OSM    H8F10864   4.790   3.951   9.604 -0.3131 -0.5692 -0.4053
  106OSM    H8G10865   4.707   3.811   9.649  0.8059 -1.0824 -1.9196
  106OSM    C9F10866   4.901   3.766   9.559 -0.0838  0.1186  0.0135
  106OSM    H9F10867   5.000   3.809   9.537 -0.2540  0.5240  0.0265
  106OSM   C10F10868   4.881   3.639   9.514  0.0274 -0.7667  0.7677
  106OSM   H10F10869   4.952   3.594   9.443 -1.0379 -1.4724  0.1261
  106OSM   C11F10870   4.764   3.544   9.532 -0.6946 -0.0404  0.3808
  106OSM   H11F10871   4.762   3.485   9.438  1.2717  0.2254  0.1424
  106OSM   H11G10872   4.667   3.599   9.541 -1.4892 -0.9173 -1.9104
  106OSM   C12F10873   4.761   3.437   9.641 -0.1911 -0.1026 -0.4701
  106OSM   H12F10874   4.847   3.367   9.641 -0.1405 -0.0562  0.6563
  106OSM   H12G10875   4.669   3.377   9.626 -1.2640  0.8183  1.9190
  106OSM   C13F10876   4.763   3.490   9.786  0.1763 -1.0643  0.5181
  106OSM   H13F10877   4.709   3.587   9.790  2.1488  0.0966  0.1574
  106OSM   H13G10878   4.866   3.522   9.812  0.4089  0.5703 -2.1081
  106OSM   C14F10879   4.703   3.391   9.877 -0.2557  0.7505  0.4484
  106OSM   H14F10880   4.773   3.306   9.867 -0.3798  0.6119  0.7573
  106OSM   H14G10881   4.595   3.376   9.855  0.0423 -0.6307 -0.1636
  106OSM   C15F10882   4.707   3.441  10.022 -0.2919 -0.3050  0.7365
  106OSM   H15F10883   4.650   3.534  10.041 -0.8473 -0.5934  0.5178
  106OSM   H15G10884   4.813   3.471  10.035 -0.9742  3.8353 -1.4552
  106OSM   C16F10885   4.664   3.336  10.123 -0.7248 -0.0015 -0.1033
  106OSM   H16F10886   4.718   3.242  10.098 -1.1134 -0.3320  0.2900
  106OSM   H16G10887   4.554   3.322  10.121 -0.7710  0.2554  0.4156
  106OSM   C17F10888   4.713   3.374  10.267  0.4693  0.3457  0.6277
  106OSM   H17F10889   4.644   3.451  10.307 -0.4834 -0.6326  0.8966
  106OSM   H17G10890   4.815   3.416  10.248  0.5782 -0.5899 -0.9711
  106OSM   C18F10891   4.739   3.257  10.358 -0.5601  0.0293 -0.5404
  106OSM   H18F10892   4.766   3.171  10.293  0.8886  0.9406 -1.1923
  106OSM   H18G10893   4.642   3.226  10.403 -0.7448  0.7258 -0.4515
  106OSM   H18H10894   4.823   3.269  10.430 -1.6413  0.8596  0.6114
  107OSM      N10895   6.136   2.682  11.332 -0.1025 -0.5219  0.6360
  107OSM    C1510896   6.119   2.553  11.411 -0.2635  0.0413  0.8909
  107OSM   H15A10897   6.034   2.498  11.372  0.4456 -2.2125  2.3232
  107OSM   H15B10898   6.110   2.562  11.518  1.0544  0.9832  0.9406
  107OSM   H15C10899   6.202   2.486  11.398 -0.9713 -0.8258  0.6794
  107OSM    C1410900   6.033   2.776  11.389 -0.7534  0.3981 -0.1106
  107OSM   H14A10901   5.941   2.719  11.399 -0.0036 -0.8949 -0.4509
  107OSM   H14B10902   6.014   2.866  11.331 -2.1055  0.0526 -0.2537
  107OSM   H14C10903   6.057   2.804  11.491  0.5715 -0.2398 -0.2388
  107OSM    C1310904   6.269   2.734  11.354 -0.7212  0.3361 -0.4098
  107OSM   H13A10905   6.296   2.803  11.275  0.2057  0.7045  0.2074
  107OSM   H13B10906   6.342   2.654  11.343 -1.8701 -0.8326  0.2306
  107OSM   H13C10907   6.282   2.782  11.450 -0.9535 -0.7675  0.1902
  107OSM    C1210908   6.120   2.635  11.188 -0.1067 -0.9995  0.4183
  107OSM   H12A10909   6.041   2.561  11.182  0.8450 -2.1060  1.1897
  107OSM   H12B10910   6.217   2.599  11.159  1.8893  2.4543  2.1457
  107OSM    C1110911   6.092   2.748  11.089  0.5491 -0.9374  0.2765
  107OSM   H11A10912   5.991   2.792  11.102  0.9286  0.1130 -0.2278
  107OSM   H11B10913   6.088   2.700  10.989 -1.4459 -2.6257  1.1002
  107OSM      P10914   6.172   3.005  11.095  0.5184  0.0166 -0.2999
  107OSM    O1310915   6.064   3.039  11.004  0.2624 -0.0283 -0.4696
  107OSM    O1410916   6.156   3.054  11.232 -1.0330  0.3134 -0.5232
  107OSM    O1110917   6.306   3.058  11.048  0.1277 -0.2589 -0.1179
  107OSM    O1210918   6.195   2.847  11.090 -0.3201  0.1504  0.1389
  107OSM    C1S10919   6.370   3.003  10.931  0.0950 -0.6276 -0.0644
  107OSM    H1S10920   6.346   2.896  10.915 -1.1731 -0.6713  1.7449
  107OSM    H1T10921   6.480   3.007  10.947  0.0790 -1.5596  0.3460
  107OSM     NF10922   6.399   3.024  10.685  0.5670 -0.0478  0.3317
  107OSM    HNF10923   6.494   3.046  10.665  1.2969 -2.6786  0.5323
  107OSM    C2S10924   6.336   3.084  10.805 -0.2603 -0.3757  0.0857
  107OSM    H2S10925   6.229   3.101  10.783  0.2058  0.4511 -1.8250
  107OSM    C3S10926   6.387   3.235  10.824  0.6452  0.0253  0.5708
  107OSM    H3S10927   6.497   3.244  10.837  0.6777  0.6535 -0.1156
  107OSM     O310928   6.353   3.297  10.944 -0.4201  0.6172  0.1494
  107OSM    HO310929   6.314   3.235  11.007  0.5268  0.5040  0.6367
  107OSM    C4S10930   6.350   3.328  10.707 -0.8704  0.2158 -0.2952
  107OSM    H4S10931   6.418   3.321  10.622 -0.9259 -1.2107 -0.2542
  107OSM    C5S10932   6.234   3.394  10.692 -0.2068 -0.6191  0.1964
  107OSM    H5S10933   6.168   3.401  10.780  0.2858  0.5624  0.4911
  107OSM    C6S10934   6.192   3.469  10.571 -0.2003 -0.0787 -0.1217
  107OSM    H6S10935   6.279   3.501  10.509 -0.4372  0.1286 -0.3488
  107OSM    H6T10936   6.147   3.566  10.600  1.9435  0.1799  2.6998
  107OSM    C7S10937   6.107   3.383  10.478 -0.3944  1.4196  0.5277
  107OSM    H7S10938   6.065   3.456  10.405  0.4447  1.6200  0.2393
  107OSM    H7T10939   6.029   3.320  10.526 -0.0568  0.8193  0.3050
  107OSM    C8S10940   6.202   3.290  10.397 -0.0700  0.8671  0.0048
  107OSM    H8S10941   6.231   3.214  10.473 -1.6733  2.0470  1.8872
  107OSM    H8T10942   6.295   3.335  10.358  1.7631 -3.0026 -0.5934
  107OSM    C9S10943   6.134   3.218  10.281 -0.3648 -0.0569  0.2909
  107OSM    H9S10944   6.072   3.298  10.234 -1.0435  0.1331  1.4746
  107OSM    H9T10945   6.068   3.141  10.325 -0.7277  0.2340  0.2671
  107OSM   C10S10946   6.247   3.164  10.187  0.4547  0.4642 -0.7346
  107OSM   H10S10947   6.268   3.069  10.240  1.2623  1.9813  1.8421
  107OSM   H10T10948   6.341   3.223  10.178  0.5916  0.3046 -0.3655
  107OSM   C11S10949   6.189   3.138  10.048  0.7404  0.6254  0.1296
  107OSM   H11S10950   6.088   3.093  10.052  1.1390 -0.5280 -1.5412
  107OSM   H11T10951   6.262   3.060  10.016  0.7715  0.3952  0.7563
  107OSM   C12S10952   6.184   3.257   9.948 -0.1596 -0.1846  0.1807
  107OSM   H12S10953   6.285   3.292   9.917 -0.9093 -0.4502 -2.9069
  107OSM   H12T10954   6.129   3.340   9.997 -0.5655 -0.7122  0.6383
  107OSM   C13S10955   6.106   3.225   9.813 -0.1250 -0.7312  0.4137
  107OSM   H13S10956   6.064   3.323   9.781 -2.0248 -0.8856  2.2280
  107OSM   H13T10957   6.013   3.166   9.828 -0.1810 -1.4375 -2.1568
  107OSM   C14S10958   6.194   3.148   9.719  0.0546  0.0438 -0.4443
  107OSM   H14S10959   6.219   3.050   9.764  2.8677  0.5664 -0.6757
  107OSM   H14T10960   6.284   3.213   9.721 -0.8655  1.3578  0.4564
  107OSM   C15S10961   6.137   3.149   9.575 -0.5328 -0.0118  0.2346
  107OSM   H15S10962   6.087   3.248   9.568 -0.8709 -0.2246 -0.5428
  107OSM   H15T10963   6.063   3.067   9.561  0.0468 -0.9587  2.3850
  107OSM   C16S10964   6.235   3.155   9.456  0.3274  0.0412  0.1876
  107OSM   H16S10965   6.293   3.249   9.452  2.8050 -1.1824  3.2642
  107OSM   H16T10966   6.182   3.152   9.358  1.7912  0.0203 -0.6402
  107OSM   C17S10967   6.339   3.046   9.459  0.8364  0.5892  0.1299
  107OSM   H17S10968   6.289   2.947   9.456  0.2283  0.9092 -1.8379
  107OSM   H17T10969   6.394   3.047   9.555 -2.0434 -0.4426  1.9196
  107OSM   C18S10970   6.435   3.048   9.335 -0.8852 -0.1914 -0.8794
  107OSM   H18S10971   6.372   3.076   9.248  1.0038  0.8718 -1.9781
  107OSM   H18T10972   6.483   2.954   9.302  0.7077  0.6346 -1.0051
  107OSM   H18U10973   6.511   3.129   9.337 -1.9102  0.8125 -1.2450
  107OSM    C1F10974   6.350   2.909  10.640 -0.5894  0.2585  0.0915
  107OSM     OF10975   6.256   2.847  10.692  0.0041 -0.0075  0.7665
  107OSM    C2F10976   6.417   2.854  10.519  0.0605 -0.1077 -0.6241
  107OSM    H2F10977   6.522   2.849  10.555 -0.8352 -0.3917  2.1840
  107OSM    H2G10978   6.419   2.925  10.433 -0.4104 -0.3962 -0.8729
  107OSM    C3F10979   6.350   2.723  10.465  0.4003 -0.0702  0.4013
  107OSM    H3F10980   6.243   2.752  10.452  0.9034  3.6068  3.0020
  107OSM    H3G10981   6.363   2.646  10.544  1.0859 -1.5238 -1.0556
  107OSM    C4F10982   6.416   2.683  10.325  0.1827 -0.5049 -1.3503
  107OSM    H4F10983   6.391   2.579  10.295 -0.6918 -0.4678 -0.8090
  107OSM    H4G10984   6.523   2.698  10.350 -0.3844  1.4423  0.1561
  107OSM    C5F10985   6.369   2.775  10.218  0.4092  0.2506 -0.0163
  107OSM    H5F10986   6.401   2.881  10.231  1.1120  0.1502 -0.8346
  107OSM    H5G10987   6.259   2.772  10.207  0.3461  0.7454  0.4634
  107OSM    C6F10988   6.435   2.734  10.089  0.0149 -0.0614 -0.3688
  107OSM    H6F10989   6.401   2.631  10.063 -0.9876  0.4581 -1.1961
  107OSM    H6G10990   6.544   2.729  10.111 -0.5693 -0.4000  3.0061
  107OSM    C7F10991   6.401   2.836   9.982  0.7033 -0.0142  0.3398
  107OSM    H7F10992   6.426   2.943   9.998  1.1620 -0.3175  1.7257
  107OSM    H7G10993   6.292   2.847   9.963  0.6402  0.4105  0.9263
  107OSM    C8F10994   6.454   2.782   9.846 -0.2916 -0.4365  0.3696
  107OSM    H8F10995   6.563   2.765   9.857 -0.1149 -0.8385 -1.5518
  107OSM    H8G10996   6.445   2.866   9.773 -0.6913 -1.7884 -1.1994
  107OSM    C9F10997   6.379   2.664   9.792 -0.6976  0.5971 -0.3235
  107OSM    H9F10998   6.286   2.644   9.847 -0.3985  2.7514  1.1047
  107OSM   C10F10999   6.407   2.587   9.683  0.1678  0.2284  0.1067
  107OSM   H10F11000   6.332   2.513   9.652  0.4748  0.5756 -1.5758
  107OSM   C11F11001   6.533   2.601   9.598 -0.1480  0.5589 -0.6581
  107OSM   H11F11002   6.586   2.506   9.619 -0.8700  0.1837 -0.4921
  107OSM   H11G11003   6.596   2.689   9.620  1.3372 -0.6813  0.2120
  107OSM   C12F11004   6.488   2.612   9.444  0.4710  0.3230  0.4703
  107OSM   H12F11005   6.411   2.692   9.440  0.0561 -0.0990 -0.1696
  107OSM   H12G11006   6.439   2.520   9.405  1.6300 -0.0659 -0.1081
  107OSM   C13F11007   6.613   2.645   9.360 -0.6883  0.1107  0.5339
  107OSM   H13F11008   6.667   2.548   9.365  1.2159  1.0873 -0.1524
  107OSM   H13G11009   6.677   2.724   9.405  2.7740 -2.2666  0.2205
  107OSM   C14F11010   6.599   2.707   9.221 -0.5007  0.5143  0.2638
  107OSM   H14F11011   6.680   2.778   9.195 -0.8930  0.9937  0.3341
  107OSM   H14G11012   6.510   2.770   9.203 -0.5811  0.6770  1.2064
  107OSM   C15F11013   6.596   2.604   9.113  0.4510  0.2584  0.9356
  107OSM   H15F11014   6.519   2.526   9.131 -0.4414  0.7417 -0.6050
  107OSM   H15G11015   6.699   2.562   9.113  0.5066  0.3137 -1.1374
  107OSM   C16F11016   6.567   2.667   8.975 -0.7909 -0.0676 -0.3179
  107OSM   H16F11017   6.658   2.719   8.936 -1.9008  3.2656  1.1772
  107OSM   H16G11018   6.495   2.751   8.982 -0.4512  0.0957  2.7422
  107OSM   C17F11019   6.522   2.560   8.885  0.3711 -0.5139 -0.0002
  107OSM   H17F11020   6.482   2.620   8.800  3.9536  2.4662  0.1569
  107OSM   H17G11021   6.447   2.495   8.934  0.1985 -1.0499 -0.9488
  107OSM   C18F11022   6.640   2.463   8.838 -0.0194 -0.5691  0.3936
  107OSM   H18F11023   6.598   2.380   8.779 -0.1800 -1.0032  1.1130
  107OSM   H18G11024   6.701   2.414   8.918 -0.1946 -0.6703  0.4640
  107OSM   H18H11025   6.703   2.513   8.761  0.3400 -0.8328  0.5140
  108OSM      N11026   3.321   4.604  11.131  0.1538  0.0548 -0.2432
  108OSM    C1511027   3.188   4.660  11.175  0.2798  0.2603 -0.0682
  108OSM   H15A11028   3.122   4.695  11.097 -4.6954 -2.8016  2.2289
  108OSM   H15B11029   3.194   4.717  11.267 -0.6597  0.0013  0.1578
  108OSM   H15C11030   3.130   4.574  11.204 -0.3440  0.8310  0.3905
  108OSM    C1411031   3.424   4.704  11.112  0.0339  0.2275 -0.2917
  108OSM   H14A11032   3.461   4.740  11.207 -0.4477  0.9933 -0.3854
  108OSM   H14B11033   3.394   4.779  11.040  0.2978  1.1142  0.5086
  108OSM   H14C11034   3.507   4.649  11.070 -0.1361 -1.0872  1.0369
  108OSM    C1311035   3.377   4.515  11.239  0.2646 -0.0920  0.5726
  108OSM   H13A11036   3.467   4.462  11.209 -2.3143 -3.7004 -1.6200
  108OSM   H13B11037   3.306   4.435  11.253  0.0843  0.0793  0.6395
  108OSM   H13C11038   3.378   4.558  11.338  0.9681 -0.4575  0.7307
  108OSM    C1211039   3.297   4.528  11.002  0.0894  0.1294 -0.0501
  108OSM   H12A11040   3.386   4.512  10.943 -1.7281 -1.4538 -2.5485
  108OSM   H12B11041   3.234   4.585  10.935  1.6834  2.5141  0.3349
  108OSM    C1111042   3.220   4.402  11.015 -0.3215  0.1653  0.2984
  108OSM   H11A11043   3.115   4.427  11.040 -0.0969 -1.2785  3.0985
  108OSM   H11B11044   3.257   4.342  11.101 -0.3691 -1.2920 -0.6538
  108OSM      P11045   3.191   4.181  10.884 -0.2220  0.6597 -0.2147
  108OSM    O1311046   3.271   4.116  10.774  0.3112 -0.7459  0.1618
  108OSM    O1411047   3.206   4.115  11.015  0.4650 -0.3650  0.0061
  108OSM    O1111048   3.038   4.169  10.851 -0.2602  0.9960 -0.4477
  108OSM    O1211049   3.231   4.337  10.887  0.4061  0.1670 -0.3255
  108OSM    C1S11050   2.974   4.257  10.758  0.0150  0.2519 -0.2083
  108OSM    H1S11051   3.049   4.266  10.677  0.9920 -3.0024  0.1740
  108OSM    H1T11052   2.940   4.353  10.802  0.1692  0.0818  0.2956
  108OSM     NF11053   2.795   4.264  10.574  0.5582 -0.3273 -0.4214
  108OSM    HNF11054   2.704   4.302  10.594  1.3903  1.6823 -0.2025
  108OSM    C2S11055   2.848   4.187  10.694 -0.3868  0.0075  0.5485
  108OSM    H2S11056   2.883   4.088  10.658  0.7931  0.7221 -0.3310
  108OSM    C3S11057   2.736   4.151  10.798 -0.0087  0.0145 -0.4147
  108OSM    H3S11058   2.704   4.243  10.852  0.8114  1.5577 -2.4459
  108OSM     O311059   2.790   4.067  10.904  0.0933 -0.6720 -0.0397
  108OSM    HO311060   2.885   4.079  10.900  0.0659  1.1301  2.4144
  108OSM    C4S11061   2.631   4.068  10.730  0.0308  0.1541 -0.3922
  108OSM    H4S11062   2.670   3.975  10.685  3.8158  1.7978 -0.8983
  108OSM    C5S11063   2.502   4.106  10.729  0.1184 -0.7474 -0.3994
  108OSM    H5S11064   2.468   4.199  10.777  1.4441  1.2072 -3.0005
  108OSM    C6S11065   2.396   4.028  10.671 -0.1418 -0.4845  0.1148
  108OSM    H6S11066   2.332   4.084  10.600 -2.4488 -2.6806  0.3201
  108OSM    H6T11067   2.333   4.014  10.762 -0.6086 -3.2065 -0.5285
  108OSM    C7S11068   2.431   3.899  10.603 -0.5561 -0.3772  0.7768
  108OSM    H7S11069   2.331   3.856  10.578  0.2364 -1.7818 -0.1139
  108OSM    H7T11070   2.484   3.833  10.675 -1.4029 -0.1391  1.6550
  108OSM    C8S11071   2.511   3.912  10.474  0.1057 -1.0441  0.4432
  108OSM    H8S11072   2.537   3.816  10.424  1.1431 -0.2861 -0.4998
  108OSM    H8T11073   2.597   3.981  10.484 -0.5009  0.3173 -2.6421
  108OSM    C9S11074   2.421   3.976  10.368 -0.3461  0.3107  0.0914
  108OSM    H9S11075   2.409   4.082  10.397 -2.2787  0.3585 -0.7069
  108OSM    H9T11076   2.323   3.924  10.363  0.4055 -1.1097 -0.5453
  108OSM   C10S11077   2.481   3.978  10.225  0.3126 -0.4374 -0.3239
  108OSM   H10S11078   2.543   3.886  10.213  0.8632 -0.0867 -0.1971
  108OSM   H10T11079   2.551   4.064  10.220  1.6406 -1.2351  2.1820
  108OSM   C11S11080   2.377   3.983  10.112  0.3389  0.0961  1.2666
  108OSM   H11S11081   2.290   3.917  10.135 -0.6438  1.3595  1.3177
  108OSM   H11T11082   2.422   3.942  10.019  0.8894  0.4247  1.3816
  108OSM   C12S11083   2.318   4.120  10.082 -0.2862 -0.2425  0.0122
  108OSM   H12S11084   2.401   4.193  10.066 -1.5553  1.2832  0.1553
  108OSM   H12T11085   2.281   4.147  10.183  1.8378  0.4980  0.6502
  108OSM   C13S11086   2.216   4.124   9.969  0.2678 -0.1648 -0.0445
  108OSM   H13S11087   2.148   4.211   9.976 -0.0782 -0.5794  2.4116
  108OSM   H13T11088   2.141   4.043   9.982 -2.2946  1.8773 -1.2996
  108OSM   C14S11089   2.283   4.130   9.827 -0.2713  0.4281 -0.7359
  108OSM   H14S11090   2.321   4.030   9.796  0.5990 -0.2615  2.2710
  108OSM   H14T11091   2.369   4.199   9.840  0.8866 -0.9777 -0.7556
  108OSM   C15S11092   2.197   4.192   9.718  0.7187 -0.4453  0.6651
  108OSM   H15S11093   2.120   4.252   9.772  1.5007  2.0471 -0.8222
  108OSM   H15T11094   2.136   4.121   9.658  0.8904 -0.3264  0.3474
  108OSM   C16S11095   2.270   4.287   9.625 -0.3358  0.1050 -1.0695
  108OSM   H16S11096   2.352   4.226   9.582 -0.6813 -1.8340  0.8306
  108OSM   H16T11097   2.311   4.368   9.689  1.0739 -1.2687 -0.1359
  108OSM   C17S11098   2.174   4.337   9.513  0.2900  0.1047 -0.5276
  108OSM   H17S11099   2.080   4.378   9.556 -0.0945  1.1303 -2.2506
  108OSM   H17T11100   2.141   4.253   9.449 -0.0224  1.4079 -2.1191
  108OSM   C18S11101   2.236   4.441   9.417  1.4279  0.2160 -0.7355
  108OSM   H18S11102   2.159   4.465   9.340 -0.1742  2.1886  1.3427
  108OSM   H18T11103   2.335   4.407   9.381  1.1390 -2.2646  0.6186
  108OSM   H18U11104   2.248   4.538   9.469  1.0603  0.4341 -1.0507
  108OSM    C1F11105   2.858   4.283  10.461  0.9385 -0.6428 -0.4448
  108OSM     OF11106   2.968   4.240  10.446 -0.3606 -0.4324  0.4152
  108OSM    C2F11107   2.783   4.361  10.357 -0.6108 -0.1118  0.5039
  108OSM    H2F11108   2.808   4.466  10.382 -1.9235  0.6049 -0.9790
  108OSM    H2G11109   2.673   4.343  10.364 -0.4376 -1.1409  0.7289
  108OSM    C3F11110   2.826   4.326  10.210 -0.6276  0.1729  0.0209
  108OSM    H3F11111   2.802   4.220  10.188  1.2388 -0.0785 -1.0705
  108OSM    H3G11112   2.934   4.350  10.200 -0.8168  1.8199  1.4100
  108OSM    C4F11113   2.747   4.411  10.102 -0.3685 -0.4750  0.4121
  108OSM    H4F11114   2.783   4.363  10.008 -1.8915 -1.9211  0.5400
  108OSM    H4G11115   2.778   4.518  10.109 -1.3319 -0.0036 -1.6571
  108OSM    C5F11116   2.597   4.385  10.097 -0.2639 -0.1329 -0.4337
  108OSM    H5F11117   2.547   4.390  10.195 -3.8261 -0.4709 -2.0716
  108OSM    H5G11118   2.582   4.284  10.055  0.7499  0.2279 -1.7227
  108OSM    C6F11119   2.512   4.481  10.019 -0.1374 -0.0955 -0.5527
  108OSM    H6F11120   2.536   4.586  10.048 -0.0544  0.2860 -1.8983
  108OSM    H6G11121   2.403   4.463  10.033 -0.0358 -0.1049  0.2515
  108OSM    C7F11122   2.533   4.457   9.866 -0.3793 -0.5230 -0.0512
  108OSM    H7F11123   2.495   4.358   9.832 -1.3284  0.5779 -2.4283
  108OSM    H7G11124   2.640   4.464   9.837 -0.0478  0.2390  1.2868
  108OSM    C8F11125   2.452   4.558   9.776  0.5415  0.6418  0.5618
  108OSM    H8F11126   2.348   4.555   9.815  0.0852  1.1182 -0.5767
  108OSM    H8G11127   2.447   4.526   9.670  0.4650  3.4810 -0.3782
  108OSM    C9F11128   2.515   4.695   9.783  0.3372 -0.1462  0.6169
  108OSM    H9F11129   2.528   4.752   9.877 -0.6628  1.4954 -0.1892
  108OSM   C10F11130   2.594   4.748   9.685 -0.6408 -0.0953 -0.8066
  108OSM   H10F11131   2.624   4.853   9.691 -1.1127 -0.0317  0.7483
  108OSM   C11F11132   2.635   4.685   9.553  0.1996  0.0741 -0.7264
  108OSM   H11F11133   2.622   4.575   9.562  1.3596  0.0365  0.6426
  108OSM   H11G11134   2.744   4.700   9.540  0.5551  0.5653  2.2482
  108OSM   C12F11135   2.545   4.735   9.436  0.2041  0.0486  0.1558
  108OSM   H12F11136   2.540   4.846   9.433  0.9595  0.1403  1.5174
  108OSM   H12G11137   2.443   4.692   9.443 -0.0306  0.6970  0.9375
  108OSM   C13F11138   2.600   4.675   9.309  0.3163 -0.2525 -0.4247
  108OSM   H13F11139   2.527   4.690   9.226 -0.0583 -0.6541 -0.1744
  108OSM   H13G11140   2.603   4.565   9.327 -1.4902 -0.1947  0.4217
  108OSM   C14F11141   2.739   4.731   9.269  0.1096 -0.1970  0.3855
  108OSM   H14F11142   2.811   4.715   9.351  1.8690 -1.2128 -1.2706
  108OSM   H14G11143   2.737   4.842   9.255 -1.9820 -0.1949  0.4614
  108OSM   C15F11144   2.797   4.678   9.139 -0.4171 -0.7097  0.5433
  108OSM   H15F11145   2.893   4.731   9.121  0.8091 -1.6432  3.6423
  108OSM   H15G11146   2.723   4.693   9.058  0.9078 -1.5831 -0.8725
  108OSM   C16F11147   2.828   4.528   9.128 -0.2331 -0.0325  0.4598
  108OSM   H16F11148   2.733   4.474   9.151 -0.5799  0.7785  0.9798
  108OSM   H16G11149   2.900   4.501   9.207 -0.6753  0.8481  1.1773
  108OSM   C17F11150   2.877   4.482   8.988  0.1743  0.2580  0.7108
  108OSM   H17F11151   2.979   4.524   8.975 -0.0478  0.8124  0.7212
  108OSM   H17G11152   2.814   4.528   8.909  2.4289  2.0231 -0.1776
  108OSM   C18F11153   2.863   4.329   8.961 -0.3910 -0.4124 -0.3344
  108OSM   H18F11154   2.778   4.294   9.024 -1.2372  3.0155  0.6432
  108OSM   H18G11155   2.963   4.284   8.979 -0.7663 -1.2235 -0.2384
  108OSM   H18H11156   2.828   4.321   8.856 -0.0858  0.6955 -0.5359
  109OSM      N11157   1.402   2.258  11.469  0.4437 -0.2075 -0.5327
  109OSM    C1511158   1.355   2.370  11.552 -0.3530 -0.1546 -0.8676
  109OSM   H15A11159   1.435   2.424  11.601 -1.6404  0.1818  0.9312
  109OSM   H15B11160   1.294   2.338  11.635 -2.2634 -0.3442 -2.2979
  109OSM   H15C11161   1.285   2.442  11.513 -1.5073 -1.2263 -0.8142
  109OSM    C1411162   1.517   2.196  11.542  0.0912  0.3528 -0.5934
  109OSM   H14A11163   1.609   2.252  11.546  0.5226 -0.4096  2.5550
  109OSM   H14B11164   1.536   2.106  11.485  1.3872 -0.1019  0.4938
  109OSM   H14C11165   1.499   2.154  11.639  0.2499 -1.3909 -1.2823
  109OSM    C1311166   1.295   2.153  11.449 -0.0433 -0.2994 -0.2336
  109OSM   H13A11167   1.215   2.187  11.385 -0.3666  0.8849  0.7591
  109OSM   H13B11168   1.261   2.123  11.547 -1.2161  0.0858 -0.5098
  109OSM   H13C11169   1.338   2.069  11.395 -1.7250 -1.3077 -0.0677
  109OSM    C1211170   1.443   2.322  11.338  0.2516  0.0670  0.2658
  109OSM   H12A11171   1.524   2.390  11.358 -0.3397  0.6445  0.7032
  109OSM   H12B11172   1.359   2.377  11.298 -0.4913 -1.2386 -0.0222
  109OSM    C1111173   1.483   2.224  11.223 -0.3244  0.2662 -0.2454
  109OSM   H11A11174   1.518   2.275  11.130 -0.3675 -2.1747 -1.6851
  109OSM   H11B11175   1.388   2.167  11.212 -0.2528  0.1869 -0.4420
  109OSM      P11176   1.580   1.976  11.223  0.0051  0.2259  0.4112
  109OSM    O1311177   1.714   1.915  11.206  0.1704 -0.1264 -0.0266
  109OSM    O1411178   1.497   1.916  11.320 -0.1155  0.3308  0.2239
  109OSM    O1111179   1.505   1.969  11.078 -0.1160 -0.2314 -0.2293
  109OSM    O1211180   1.587   2.128  11.259  0.3950  0.1054 -0.2572
  109OSM    C1S11181   1.576   2.023  10.964  0.7446  0.0980 -0.6116
  109OSM    H1S11182   1.686   2.027  10.978  0.8190 -1.6916 -0.4009
  109OSM    H1T11183   1.549   2.130  10.952  3.7113  0.9510 -0.6138
  109OSM     NF11184   1.632   1.995  10.728  0.1657  0.0719 -1.1585
  109OSM    HNF11185   1.590   2.056  10.661  1.3852  1.5434 -0.6478
  109OSM    C2S11186   1.552   1.945  10.827 -0.0768  0.8425 -0.0435
  109OSM    H2S11187   1.564   1.836  10.848 -2.3117  0.7226  0.9465
  109OSM    C3S11188   1.401   1.955  10.789  0.5717  0.3671  0.2082
  109OSM    H3S11189   1.389   2.064  10.771  0.9712  0.3932  0.1050
  109OSM     O311190   1.312   1.918  10.895 -0.6030 -0.3445 -0.0830
  109OSM    HO311191   1.379   1.916  10.964  0.7195  0.7623 -1.2695
  109OSM    C4S11192   1.355   1.879  10.664 -1.0890  0.5411 -0.3341
  109OSM    H4S11193   1.378   1.771  10.660  1.1331  0.8901  0.9443
  109OSM    C5S11194   1.293   1.922  10.562 -0.4148 -0.1433 -0.2956
  109OSM    H5S11195   1.264   2.028  10.555 -0.5267 -0.1315  0.2778
  109OSM    C6S11196   1.253   1.842  10.442 -0.6779 -0.4861  0.2559
  109OSM    H6S11197   1.144   1.841  10.419 -0.8052 -1.3685  0.8609
  109OSM    H6T11198   1.285   1.737  10.456  1.6634  0.0682 -0.5662
  109OSM    C7S11199   1.319   1.891  10.307 -0.6637  0.5760 -0.0129
  109OSM    H7S11200   1.422   1.851  10.312 -1.4599 -2.0540 -2.1781
  109OSM    H7T11201   1.325   2.002  10.307  1.9248  0.4938  0.1636
  109OSM    C8S11202   1.245   1.843  10.180  0.7012 -0.5703 -0.0092
  109OSM    H8S11203   1.141   1.882  10.185  0.3928 -1.2453 -0.9229
  109OSM    H8T11204   1.231   1.733  10.181 -1.2146 -0.3897 -1.1494
  109OSM    C9S11205   1.318   1.903  10.057 -0.9010 -0.3928  0.2853
  109OSM    H9S11206   1.420   1.861  10.052 -0.1924  0.8891  2.5353
  109OSM    H9T11207   1.336   2.013  10.063  1.6026 -0.7130 -0.2666
  109OSM   C10S11208   1.247   1.872   9.929  0.5094 -0.5098 -0.3289
  109OSM   H10S11209   1.150   1.926   9.920  0.4381 -0.2546  1.7084
  109OSM   H10T11210   1.214   1.766   9.930 -1.5964  0.0793  1.2613
  109OSM   C11S11211   1.325   1.912   9.813 -0.4486 -0.5152 -0.5937
  109OSM   H11S11212   1.431   1.882   9.824 -0.5371 -0.8749 -0.6973
  109OSM   H11T11213   1.334   2.022   9.809  0.4704 -0.3307  3.0131
  109OSM   C12S11214   1.278   1.858   9.678  0.0845  0.3246 -0.2116
  109OSM   H12S11215   1.174   1.892   9.657 -1.0054 -0.7603  2.9049
  109OSM   H12T11216   1.291   1.748   9.671 -0.1284  0.3168 -0.4951
  109OSM   C13S11217   1.363   1.917   9.561 -1.2701 -0.0219 -0.2337
  109OSM   H13S11218   1.465   1.878   9.580 -1.5205 -1.2663 -1.2875
  109OSM   H13T11219   1.362   2.027   9.569 -0.4849 -0.0209 -0.0945
  109OSM   C14S11220   1.330   1.855   9.421  0.6424  0.4045 -0.6218
  109OSM   H14S11221   1.225   1.891   9.410  0.8014  0.5744 -1.7256
  109OSM   H14T11222   1.327   1.744   9.426  1.1205  0.3346 -1.7199
  109OSM   C15S11223   1.417   1.916   9.314  0.0299 -0.1822  0.4722
  109OSM   H15S11224   1.512   1.863   9.334  0.0563  0.0977  1.1136
  109OSM   H15T11225   1.436   2.020   9.347 -1.2709 -0.5406  2.5184
  109OSM   C16S11226   1.361   1.900   9.172  0.7153 -0.0107 -0.2200
  109OSM   H16S11227   1.395   1.988   9.113  1.0367  0.9027  1.2766
  109OSM   H16T11228   1.251   1.888   9.163  0.5860  1.5894 -1.2735
  109OSM   C17S11229   1.417   1.776   9.111 -0.6989  0.3575  0.6975
  109OSM   H17S11230   1.348   1.734   9.035  0.2289 -1.6388  0.8906
  109OSM   H17T11231   1.424   1.701   9.194 -1.6723  0.5773  0.9905
  109OSM   C18S11232   1.557   1.788   9.051 -0.1922 -0.1795  0.0235
  109OSM   H18S11233   1.598   1.687   9.028 -1.2267 -0.3001 -1.4255
  109OSM   H18T11234   1.630   1.850   9.107 -1.9846  1.4206  0.6883
  109OSM   H18U11235   1.555   1.844   8.955  1.1422 -0.4575 -0.1752
  109OSM    C1F11236   1.758   1.951  10.708 -0.7172  0.5956 -0.6438
  109OSM     OF11237   1.801   1.870  10.791  0.2677 -0.0624  0.1586
  109OSM    C2F11238   1.829   2.010  10.585 -0.5510 -0.1338 -0.0411
  109OSM    H2F11239   1.863   2.114  10.602 -0.3426 -0.2545  0.3004
  109OSM    H2G11240   1.745   2.040  10.519 -0.6835  0.6259  0.4570
  109OSM    C3F11241   1.934   1.926  10.511  0.3393 -0.6215  0.2315
  109OSM    H3F11242   1.898   1.825  10.484 -1.1706  0.0106 -0.1944
  109OSM    H3G11243   2.025   1.922  10.575  1.7659  0.4634 -1.6292
  109OSM    C4F11244   1.974   1.994  10.384  0.4102 -0.1855  0.5303
  109OSM    H4F11245   1.998   2.100  10.404  2.1562  0.2104 -2.9109
  109OSM    H4G11246   1.883   1.995  10.320  1.8263 -3.4994 -1.8537
  109OSM    C5F11247   2.091   1.944  10.311  0.0630  0.4742 -0.1752
  109OSM    H5F11248   2.098   1.836  10.288 -0.9212  0.2878  0.3273
  109OSM    H5G11249   2.179   1.959  10.378 -0.1078  1.5802 -0.1679
  109OSM    C6F11250   2.141   2.015  10.189 -0.0944 -0.8070  0.1997
  109OSM    H6F11251   2.217   1.950  10.141 -0.4726 -1.4476  0.4369
  109OSM    H6G11252   2.182   2.113  10.222  0.1309  0.1246 -2.6137
  109OSM    C7F11253   2.038   2.039  10.085  0.2100  0.2464  0.8446
  109OSM    H7F11254   1.969   2.115  10.126 -1.2966 -1.4595  1.6556
  109OSM    H7G11255   1.982   1.943  10.077  0.0329  0.3683  0.6054
  109OSM    C8F11256   2.115   2.081   9.963 -0.2487 -0.0370  0.2798
  109OSM    H8F11257   2.208   2.023   9.946 -0.3635 -0.0297 -0.4100
  109OSM    H8G11258   2.154   2.182   9.985 -1.4587  0.6574 -0.6580
  109OSM    C9F11259   2.033   2.084   9.832 -0.4780 -0.0698  0.1900
  109OSM    H9F11260   1.947   2.153   9.836  0.6477  1.4071  4.1592
  109OSM   C10F11261   2.047   2.012   9.721  0.1755 -0.9236  0.5942
  109OSM   H10F11262   1.980   2.046   9.641  0.3651  0.1111  0.8695
  109OSM   C11F11263   2.151   1.899   9.689  0.0645  0.0091 -0.4637
  109OSM   H11F11264   2.091   1.810   9.660 -0.4438  0.7441 -1.7505
  109OSM   H11G11265   2.207   1.872   9.781 -0.4943 -0.4430 -0.2475
  109OSM   C12F11266   2.246   1.938   9.573  0.3416 -0.2847 -0.7989
  109OSM   H12F11267   2.300   1.851   9.530 -1.3408 -1.1004 -1.3585
  109OSM   H12G11268   2.318   2.016   9.605 -0.6451  1.0787 -1.8144
  109OSM   C13F11269   2.172   2.000   9.451 -0.5000  0.2279 -0.0346
  109OSM   H13F11270   2.167   2.109   9.472  1.2033  0.6324 -1.4633
  109OSM   H13G11271   2.072   1.953   9.443 -0.1116 -0.6909  0.2355
  109OSM   C14F11272   2.254   1.994   9.322 -0.2053  0.6337  0.5185
  109OSM   H14F11273   2.270   1.888   9.292 -1.2187  0.9742 -1.3937
  109OSM   H14G11274   2.351   2.045   9.336 -0.1521  0.4985  0.6485
  109OSM   C15F11275   2.175   2.066   9.210  0.1868  0.7299 -0.2691
  109OSM   H15F11276   2.130   2.161   9.247 -1.2552 -0.0686  0.1371
  109OSM   H15G11277   2.089   2.004   9.176 -0.1065  1.1282 -0.2565
  109OSM   C16F11278   2.268   2.094   9.086 -0.3201  0.2096 -0.0826
  109OSM   H16F11279   2.315   2.000   9.049 -0.9898 -0.4329  0.6469
  109OSM   H16G11280   2.352   2.163   9.105  0.5244 -0.6195 -0.6800
  109OSM   C17F11281   2.181   2.145   8.971 -0.1995  0.0542  0.1616
  109OSM   H17F11282   2.245   2.200   8.899 -1.4459  1.0130 -0.2391
  109OSM   H17G11283   2.111   2.217   9.018  0.9593  0.5899  1.1323
  109OSM   C18F11284   2.104   2.032   8.905 -0.2629  0.4340  0.7949
  109OSM   H18F11285   2.028   2.067   8.831  0.0779  0.7688  0.5975
  109OSM   H18G11286   2.069   1.962   8.984  2.3976 -0.5380  1.2147
  109OSM   H18H11287   2.182   1.981   8.845 -1.7385  0.3585 -1.1934
  110OSM      N11288   2.471   1.440  11.606 -0.0376 -1.1285  0.2694
  110OSM    C1511289   2.455   1.549  11.701 -0.1375 -0.2139  1.1836
  110OSM   H15A11290   2.426   1.642  11.655  1.2164 -0.4131 -0.1347
  110OSM   H15B11291   2.550   1.576  11.745  0.1785  1.3435 -0.3300
  110OSM   H15C11292   2.383   1.533  11.781 -1.3024  0.4264  0.2903
  110OSM    C1411293   2.508   1.323  11.683  0.2381  0.2260 -0.4962
  110OSM   H14A11294   2.445   1.303  11.768  0.0605 -0.3605 -0.7588
  110OSM   H14B11295   2.607   1.345  11.719  0.4009 -0.5149 -0.4674
  110OSM   H14C11296   2.514   1.233  11.623 -1.2447  0.4853 -1.0674
  110OSM    C1311297   2.330   1.409  11.559 -0.2840 -0.4788  0.4889
  110OSM   H13A11298   2.283   1.494  11.511 -0.8995 -0.7067  0.6874
  110OSM   H13B11299   2.279   1.380  11.650 -0.0037 -1.4813  0.3432
  110OSM   H13C11300   2.338   1.317  11.504  1.6066 -0.0731  0.0112
  110OSM    C1211301   2.554   1.480  11.488  0.0369 -0.4531  1.0154
  110OSM   H12A11302   2.644   1.526  11.525 -1.0429  1.5260  1.3501
  110OSM   H12B11303   2.513   1.568  11.440 -0.6355  0.2126  2.7252
  110OSM    C1111304   2.590   1.371  11.388  0.3632 -0.4800 -0.1909
  110OSM   H11A11305   2.639   1.282  11.434  1.6825 -1.9549 -3.9950
  110OSM   H11B11306   2.668   1.419  11.325 -1.7043  0.3178 -2.2875
  110OSM      P11307   2.410   1.427  11.206  0.4991  0.3730 -0.2981
  110OSM    O1311308   2.320   1.344  11.130 -0.2317  0.1589 -0.0822
  110OSM    O1411309   2.353   1.549  11.264 -0.1102 -0.1016  0.5210
  110OSM    O1111310   2.540   1.470  11.118  0.3672  0.6422  0.1436
  110OSM    O1211311   2.474   1.327  11.318  0.4205  0.1050 -0.0879
  110OSM    C1S11312   2.617   1.369  11.047  0.0698  0.2269  0.0704
  110OSM    H1S11313   2.547   1.297  10.999 -1.4677  1.0342  0.9982
  110OSM    H1T11314   2.672   1.301  11.116 -1.2427 -1.0496 -0.0798
  110OSM     NF11315   2.773   1.344  10.849 -0.5526  0.1561 -0.0677
  110OSM    HNF11316   2.872   1.344  10.837 -0.5501  0.3058 -0.0432
  110OSM    C2S11317   2.711   1.440  10.949  0.2433 -0.3413  0.5261
  110OSM    H2S11318   2.637   1.499  10.892  0.8766 -0.3514 -0.3266
  110OSM    C3S11319   2.817   1.533  11.007 -0.6341  0.1185  0.0412
  110OSM    H3S11320   2.894   1.468  11.055 -4.0247 -1.8458  3.3170
  110OSM     O311321   2.770   1.626  11.102 -0.1883  0.1418  1.0267
  110OSM    HO311322   2.687   1.589  11.132 -0.0630  0.0222  1.2310
  110OSM    C4S11323   2.884   1.610  10.888  0.4583  0.4624 -0.7356
  110OSM    H4S11324   2.974   1.561  10.847  2.3558  1.9528  1.3840
  110OSM    C5S11325   2.850   1.726  10.840 -1.1437  0.1762 -0.0687
  110OSM    H5S11326   2.773   1.788  10.887 -0.8113  0.7988 -0.3351
  110OSM    C6S11327   2.922   1.794  10.727  0.2266 -0.4342 -0.1818
  110OSM    H6S11328   3.005   1.845  10.781 -0.9124  0.3103  0.9029
  110OSM    H6T11329   2.860   1.877  10.686  1.7161  0.7664 -0.0962
  110OSM    C7S11330   2.967   1.702  10.614  0.3348  0.8537 -0.1322
  110OSM    H7S11331   2.896   1.619  10.593  1.9298 -0.6321  0.1460
  110OSM    H7T11332   3.060   1.656  10.652  0.0738  1.6318  1.5538
  110OSM    C8S11333   2.983   1.788  10.491  0.1102  0.1952  0.4871
  110OSM    H8S11334   3.063   1.861  10.518  0.4106 -0.0953  0.3913
  110OSM    H8T11335   2.890   1.846  10.477 -0.2524 -0.8861 -2.2348
  110OSM    C9S11336   3.028   1.718  10.363  0.3981 -0.1718 -0.5971
  110OSM    H9S11337   2.935   1.669  10.329  0.3336  0.1561 -0.9042
  110OSM    H9T11338   3.105   1.643  10.390  0.6079 -0.4064 -1.7901
  110OSM   C10S11339   3.087   1.806  10.250 -0.2046  0.8322 -0.0421
  110OSM   H10S11340   3.198   1.815  10.261 -0.1657 -1.1016  1.7536
  110OSM   H10T11341   3.028   1.900  10.246 -2.7375 -0.5015  2.8018
  110OSM   C11S11342   3.067   1.741  10.108 -0.0787  0.3428 -0.3676
  110OSM   H11S11343   2.956   1.740  10.097 -0.2399 -3.0027  0.6179
  110OSM   H11T11344   3.104   1.637  10.113 -3.1680 -0.7967  1.0601
  110OSM   C12S11345   3.125   1.823   9.984 -0.2389  0.0021  0.4069
  110OSM   H12S11346   3.235   1.825  10.001  0.0398  0.0292 -1.2994
  110OSM   H12T11347   3.071   1.920   9.984 -0.0891  0.0852  0.2399
  110OSM   C13S11348   3.100   1.740   9.860  0.2905  0.7430  0.6490
  110OSM   H13S11349   2.991   1.718   9.866  0.0395  1.2364 -1.3330
  110OSM   H13T11350   3.154   1.643   9.860  1.0986  1.1915 -0.0846
  110OSM   C14S11351   3.115   1.821   9.734  0.2350  0.0158  0.3823
  110OSM   H14S11352   3.211   1.877   9.739  0.5699 -0.5680  0.6010
  110OSM   H14T11353   3.035   1.898   9.730 -0.5317 -0.7672  0.4756
  110OSM   C15S11354   3.107   1.724   9.606 -0.1647  0.4461 -0.3039
  110OSM   H15S11355   3.015   1.664   9.625 -0.9650  1.4591 -0.8689
  110OSM   H15T11356   3.186   1.646   9.600 -1.7515 -1.3924  1.4233
  110OSM   C16S11357   3.083   1.800   9.474 -0.1379 -0.4347  0.2482
  110OSM   H16S11358   3.168   1.871   9.461 -0.5504 -0.3186 -2.5564
  110OSM   H16T11359   2.989   1.858   9.484  0.9720  1.2898  1.0676
  110OSM   C17S11360   3.081   1.716   9.344 -0.5435 -0.0378  0.3397
  110OSM   H17S11361   3.010   1.631   9.352  0.3623 -1.4001 -3.4331
  110OSM   H17T11362   3.179   1.669   9.318 -0.7282 -1.1694  1.5782
  110OSM   C18S11363   3.022   1.805   9.231 -0.0216  0.1244  0.5257
  110OSM   H18S11364   2.948   1.881   9.263 -2.2886 -1.2075 -1.1989
  110OSM   H18T11365   2.967   1.737   9.162 -0.0497  1.7004 -1.0847
  110OSM   H18U11366   3.108   1.842   9.172  0.8110 -1.5745  0.5938
  110OSM    C1F11367   2.706   1.275  10.760 -0.5453 -0.2430  0.7933
  110OSM     OF11368   2.582   1.290  10.734  0.6258  0.2888  0.2650
  110OSM    C2F11369   2.784   1.180  10.682 -0.5452  0.1518  0.3372
  110OSM    H2F11370   2.724   1.095  10.642  1.1863 -1.2297  0.5762
  110OSM    H2G11371   2.865   1.146  10.749  1.1701 -0.8661 -2.0863
  110OSM    C3F11372   2.849   1.245  10.557 -0.1465 -0.2559 -0.3291
  110OSM    H3F11373   2.911   1.162  10.517  2.2896  1.4025 -0.1605
  110OSM    H3G11374   2.920   1.324  10.587 -0.0868 -0.6712  0.6895
  110OSM    C4F11375   2.749   1.290  10.447 -0.7522 -0.5242 -0.3124
  110OSM    H4F11376   2.678   1.354  10.503  1.9032  1.0871  1.4125
  110OSM    H4G11377   2.697   1.196  10.419 -3.6353  0.2909  1.7261
  110OSM    C5F11378   2.817   1.378  10.338 -0.2151 -0.1365 -0.7070
  110OSM    H5F11379   2.915   1.412  10.378 -1.7056  0.2100  3.1112
  110OSM    H5G11380   2.757   1.471  10.327 -0.0369  0.2198  1.0238
  110OSM    C6F11381   2.816   1.315  10.204  0.6014  0.0934 -0.6399
  110OSM    H6F11382   2.733   1.242  10.190  0.4421 -0.1924  1.4993
  110OSM    H6G11383   2.900   1.243  10.207  0.8972  0.3700 -1.8991
  110OSM    C7F11384   2.835   1.409  10.087  0.1557 -0.2179  0.1100
  110OSM    H7F11385   2.930   1.466  10.097 -1.2927  2.5962 -1.1307
  110OSM    H7G11386   2.754   1.484  10.074 -0.3050 -0.8105 -0.5454
  110OSM    C8F11387   2.837   1.344   9.948  0.1020  0.3489 -0.0374
  110OSM    H8F11388   2.745   1.282   9.948  1.1070 -1.1941 -0.6156
  110OSM    H8G11389   2.918   1.269   9.940 -1.7388 -1.8565  0.6638
  110OSM    C9F11390   2.811   1.451   9.833 -0.0671 -0.1088 -0.3783
  110OSM    H9F11391   2.810   1.551   9.878  0.7869 -0.9509  1.6143
  110OSM   C10F11392   2.818   1.438   9.702  0.1259  0.0315 -0.3798
  110OSM   H10F11393   2.785   1.518   9.634 -3.3978 -0.4407  0.5570
  110OSM   C11F11394   2.851   1.312   9.631 -0.2630  0.4753  0.3569
  110OSM   H11F11395   2.790   1.298   9.540 -0.5718  0.7547  0.5184
  110OSM   H11G11396   2.834   1.225   9.698  0.2520  0.2217  0.1672
  110OSM   C12F11397   2.992   1.309   9.568 -0.2151 -0.4705  0.2923
  110OSM   H12F11398   3.060   1.324   9.654 -0.0433  0.3056  0.0333
  110OSM   H12G11399   3.006   1.399   9.504  1.3279 -1.8705 -1.4587
  110OSM   C13F11400   3.023   1.178   9.493  0.0279 -0.6502 -0.1781
  110OSM   H13F11401   3.026   1.084   9.552  0.9110  0.9871  2.5958
  110OSM   H13G11402   3.129   1.177   9.459  0.0458 -2.5131 -0.1565
  110OSM   C14F11403   2.944   1.159   9.359 -0.5310 -0.0594  0.7111
  110OSM   H14F11404   2.932   1.249   9.294  0.0449 -2.0173 -2.3283
  110OSM   H14G11405   2.840   1.138   9.389 -0.4072  0.5472  1.5975
  110OSM   C15F11406   2.990   1.043   9.277 -0.6036  0.6575  0.0749
  110OSM   H15F11407   2.994   0.957   9.347  0.5356 -1.0782 -2.0136
  110OSM   H15G11408   3.094   1.052   9.239  0.0811 -0.4885  1.5963
  110OSM   C16F11409   2.891   1.003   9.163 -0.2541 -0.7091  0.9718
  110OSM   H16F11410   2.783   1.013   9.190 -1.1273 -0.0881 -2.3944
  110OSM   H16G11411   2.909   0.899   9.127  0.3790  1.0349 -4.6170
  110OSM   C17F11412   2.921   1.093   9.043 -0.9918  0.2394 -0.2721
  110OSM   H17F11413   3.025   1.078   9.007 -0.7391  0.3377  0.4005
  110OSM   H17G11414   2.910   1.200   9.072 -1.1698  0.6603 -1.8226
  110OSM   C18F11415   2.825   1.085   8.937 -0.2082 -0.4594  0.5398
  110OSM   H18F11416   2.817   0.983   8.894  0.1658 -0.2275 -0.0922
  110OSM   H18G11417   2.846   1.158   8.856  2.8359  0.8617  2.3238
  110OSM   H18H11418   2.722   1.105   8.973 -0.3082 -1.8891  1.1483
  111OSM      N11419   4.682   5.150  11.023 -0.3380  0.1228 -0.4108
  111OSM    C1511420   4.828   5.136  11.052 -0.3905  0.3184 -0.1641
  111OSM   H15A11421   4.858   5.223  11.109  0.6703 -1.3726  1.9796
  111OSM   H15B11422   4.886   5.138  10.961 -1.4240  1.2934 -0.8286
  111OSM   H15C11423   4.851   5.047  11.108 -3.4447  1.1194  2.6843
  111OSM    C1411424   4.604   5.150  11.155  0.1774  0.0574 -0.1328
  111OSM   H14A11425   4.615   5.242  11.210  0.4513 -0.8835  1.4549
  111OSM   H14B11426   4.640   5.071  11.219  0.6474  0.2492 -0.1580
  111OSM   H14C11427   4.498   5.143  11.134  0.3631 -2.5327 -0.6165
  111OSM    C1311428   4.672   5.286  10.967  0.3911 -0.0337 -0.1046
  111OSM   H13A11429   4.711   5.296  10.866  0.8250  3.2009  0.2533
  111OSM   H13B11430   4.732   5.355  11.024 -0.6812 -1.2540  2.6707
  111OSM   H13C11431   4.569   5.320  10.969  0.5029  0.2979  1.8095
  111OSM    C1211432   4.632   5.048  10.927 -0.1575  0.2954 -0.2347
  111OSM   H12A11433   4.690   5.060  10.836 -2.5190 -0.4672 -1.9374
  111OSM   H12B11434   4.526   5.065  10.917 -0.3349  0.9892  2.2509
  111OSM    C1111435   4.639   4.897  10.967  0.2377 -0.4720  0.7539
  111OSM   H11A11436   4.557   4.876  11.039 -0.7985  1.2764  0.1655
  111OSM   H11B11437   4.742   4.894  11.009  0.8410  1.0120 -0.4979
  111OSM      P11438   4.576   4.680  10.820  0.3429 -0.3308  0.0082
  111OSM    O1311439   4.689   4.584  10.848  0.1613  0.0219  0.7121
  111OSM    O1411440   4.451   4.656  10.892 -0.5196 -0.0240 -0.2134
  111OSM    O1111441   4.541   4.688  10.663  0.1086 -0.0287  0.2702
  111OSM    O1211442   4.630   4.824  10.845  0.2169  0.1373 -0.2689
  111OSM    C1S11443   4.457   4.797  10.618 -0.0152  0.0833  0.4779
  111OSM    H1S11444   4.508   4.895  10.624 -1.6787  1.0927 -0.8050
  111OSM    H1T11445   4.358   4.804  10.668  0.3051 -2.1167  1.5286
  111OSM     NF11446   4.331   4.896  10.430 -0.7558  0.0039  0.4515
  111OSM    HNF11447   4.239   4.880  10.397 -0.8574 -1.0003  1.1454
  111OSM    C2S11448   4.414   4.781  10.468 -0.4108 -0.2358  0.1777
  111OSM    H2S11449   4.504   4.781  10.403 -0.7357  1.2694 -0.2993
  111OSM    C3S11450   4.332   4.650  10.434 -0.2652  0.2528 -0.8407
  111OSM    H3S11451   4.227   4.655  10.469 -0.1128  1.7903 -0.5182
  111OSM     O311452   4.409   4.540  10.481  0.3980  0.0404 -0.5524
  111OSM    HO311453   4.461   4.577  10.552  0.4472  1.1763 -1.1612
  111OSM    C4S11454   4.308   4.648  10.284 -0.2371 -0.1372 -0.0108
  111OSM    H4S11455   4.230   4.719  10.253 -2.8154 -2.7311  0.1535
  111OSM    C5S11456   4.367   4.584  10.181  0.8235 -0.6910  0.4126
  111OSM    H5S11457   4.452   4.515  10.195 -0.2716 -1.8513  1.5271
  111OSM    C6S11458   4.341   4.613  10.031 -0.7276 -0.4048 -0.2814
  111OSM    H6S11459   4.333   4.512   9.986  1.3994 -1.4485  1.4978
  111OSM    H6T11460   4.426   4.660   9.978  0.9795 -1.6771  1.1871
  111OSM    C7S11461   4.206   4.684   9.998 -0.1996 -0.4517 -0.0234
  111OSM    H7S11462   4.205   4.780  10.053 -0.7815 -1.3915  1.6720
  111OSM    H7T11463   4.120   4.623  10.034  0.1586 -1.5250 -0.9220
  111OSM    C8S11464   4.174   4.711   9.842 -0.2413 -0.3112  0.9942
  111OSM    H8S11465   4.234   4.799   9.811 -1.5206  0.8243  1.6622
  111OSM    H8T11466   4.073   4.753   9.828  0.2580 -0.1479 -3.2366
  111OSM    C9S11467   4.196   4.590   9.749 -0.5472  0.0002 -0.0898
  111OSM    H9S11468   4.110   4.519   9.749  0.6411 -1.5241 -1.6047
  111OSM    H9T11469   4.285   4.526   9.767 -0.3758 -0.5593 -2.5638
  111OSM   C10S11470   4.219   4.626   9.599 -0.3657  0.4785 -0.2440
  111OSM   H10S11471   4.225   4.534   9.537 -2.1772  0.2553 -0.1282
  111OSM   H10T11472   4.312   4.687   9.585 -0.8667  0.9627 -1.7402
  111OSM   C11S11473   4.104   4.700   9.522 -0.4289  0.4770 -1.0495
  111OSM   H11S11474   4.149   4.735   9.427  1.9976  1.1342  0.2733
  111OSM   H11T11475   4.077   4.788   9.584 -1.4041 -0.9389  0.6710
  111OSM   C12S11476   3.981   4.604   9.490 -1.1255 -0.1669 -0.2913
  111OSM   H12S11477   3.892   4.654   9.533  1.1076  2.6490  1.4666
  111OSM   H12T11478   3.991   4.500   9.528  1.0545  0.1710  0.1783
  111OSM   C13S11479   3.963   4.590   9.337 -0.4003 -0.5340 -0.0426
  111OSM   H13S11480   4.061   4.547   9.307  1.0517  0.7295  2.4926
  111OSM   H13T11481   3.956   4.695   9.300 -0.3908 -0.1139  1.0906
  111OSM   C14S11482   3.852   4.489   9.301  0.0839  0.0620 -0.4833
  111OSM   H14S11483   3.748   4.527   9.315 -0.1053 -0.1963 -1.1842
  111OSM   H14T11484   3.858   4.395   9.359 -2.1233 -0.4969 -1.0591
  111OSM   C15S11485   3.843   4.452   9.151  0.0721  0.5002  0.1329
  111OSM   H15S11486   3.937   4.397   9.132 -0.9913 -1.7697  1.0602
  111OSM   H15T11487   3.846   4.543   9.087  1.9082  1.6269  1.6956
  111OSM   C16S11488   3.727   4.365   9.105 -0.8251 -0.6207 -0.0029
  111OSM   H16S11489   3.637   4.421   9.072  0.4332  0.9652 -0.8548
  111OSM   H16T11490   3.679   4.300   9.182  0.1582 -0.2902  0.9217
  111OSM   C17S11491   3.758   4.268   8.986  0.2126 -0.0140  0.5163
  111OSM   H17S11492   3.657   4.225   8.968  0.2794  0.4773 -1.1626
  111OSM   H17T11493   3.830   4.193   9.024  0.4077  0.9809  2.1872
  111OSM   C18S11494   3.819   4.322   8.859 -0.2486 -0.8781 -0.3625
  111OSM   H18S11495   3.798   4.254   8.773  2.2793  0.7905 -2.4628
  111OSM   H18T11496   3.924   4.359   8.859 -0.7037  0.5034 -1.4919
  111OSM   H18U11497   3.768   4.416   8.830  2.1224  0.4778 -0.3853
  111OSM    C1F11498   4.380   5.019  10.415 -0.5035 -0.1946  0.7476
  111OSM     OF11499   4.501   5.042  10.413  0.0164 -0.4736 -0.5305
  111OSM    C2F11500   4.287   5.137  10.402  0.2103  0.3793  0.3935
  111OSM    H2F11501   4.323   5.212  10.475  1.1354  1.0058 -0.6808
  111OSM    H2G11502   4.178   5.116  10.400 -0.2302  2.4279  0.9087
  111OSM    C3F11503   4.312   5.203  10.273 -0.2755  0.1341 -0.4432
  111OSM    H3F11504   4.422   5.212  10.258 -0.2440 -0.4400 -0.5804
  111OSM    H3G11505   4.258   5.300  10.283  0.2699  0.4591 -0.5805
  111OSM    C4F11506   4.264   5.110  10.167  0.3696  0.0142  0.2138
  111OSM    H4F11507   4.157   5.079  10.172  0.0728  1.0446  0.5657
  111OSM    H4G11508   4.330   5.021  10.162  0.0042 -0.3247  1.2382
  111OSM    C5F11509   4.286   5.170  10.031  0.4002  0.2116  0.3304
  111OSM    H5F11510   4.389   5.208  10.019  0.2072  0.3539 -1.1598
  111OSM    H5G11511   4.222   5.261  10.032 -1.4957 -1.0491  1.5074
  111OSM    C6F11512   4.262   5.069   9.915 -0.0476 -0.0655  0.1015
  111OSM    H6F11513   4.162   5.025   9.934 -1.1609  3.0967  2.5262
  111OSM    H6G11514   4.327   4.978   9.915  0.5560  0.3620  0.0304
  111OSM    C7F11515   4.274   5.137   9.780 -0.0883  0.1288 -0.3315
  111OSM    H7F11516   4.376   5.181   9.779 -0.4181  0.9061 -0.6740
  111OSM    H7G11517   4.195   5.215   9.775 -2.4831 -2.1066  0.2511
  111OSM    C8F11518   4.259   5.030   9.662  0.2844 -0.6128  0.1477
  111OSM    H8F11519   4.157   4.986   9.661 -0.3726  0.7119  2.2598
  111OSM    H8G11520   4.334   4.954   9.694 -0.9168 -1.5537  0.8460
  111OSM    C9F11521   4.300   5.101   9.533  0.7311 -0.1753 -0.3255
  111OSM    H9F11522   4.409   5.109   9.518  0.8745 -2.2841 -0.6502
  111OSM   C10F11523   4.216   5.180   9.464  0.4156  0.4096  0.2494
  111OSM   H10F11524   4.255   5.243   9.383  0.8798  3.4485  2.6727
  111OSM   C11F11525   4.070   5.208   9.494 -0.1571  0.4548 -0.2127
  111OSM   H11F11526   4.049   5.170   9.597  0.7459  0.1925 -0.1235
  111OSM   H11G11527   4.017   5.135   9.429  0.0833 -1.4908  1.6337
  111OSM   C12F11528   4.018   5.351   9.484 -0.4671 -0.1905  0.2975
  111OSM   H12F11529   4.075   5.419   9.551  3.5864 -0.3367 -2.6387
  111OSM   H12G11530   3.914   5.352   9.523  0.5008 -0.3665  3.1414
  111OSM   C13F11531   4.029   5.423   9.348  0.4946  0.7304  0.5576
  111OSM   H13F11532   4.139   5.426   9.331  0.5654 -0.8455  0.5959
  111OSM   H13G11533   3.995   5.527   9.367 -1.8253  0.1117  0.0979
  111OSM   C14F11534   3.940   5.360   9.241  0.0539 -0.4320 -0.0821
  111OSM   H14F11535   3.834   5.356   9.272  0.4790 -0.7566  1.4527
  111OSM   H14G11536   3.967   5.254   9.222 -1.1655 -0.5088 -1.5451
  111OSM   C15F11537   3.950   5.436   9.107  0.2149  0.0431 -0.6070
  111OSM   H15F11538   4.056   5.457   9.083  0.6185 -0.7041  0.4582
  111OSM   H15G11539   3.890   5.528   9.124 -1.5536 -1.3990  1.4208
  111OSM   C16F11540   3.879   5.352   9.000 -0.3979  0.6669 -0.1354
  111OSM   H16F11541   3.774   5.346   9.035 -0.2288 -0.1495  0.2511
  111OSM   H16G11542   3.914   5.246   9.000  0.3221  0.8711  1.8665
  111OSM   C17F11543   3.896   5.407   8.857 -0.6808 -0.2247 -0.5632
  111OSM   H17F11544   3.872   5.515   8.862 -3.3663 -0.8300  1.2957
  111OSM   H17G11545   3.813   5.364   8.798 -0.1389  1.3367 -2.5747
  111OSM   C18F11546   4.019   5.370   8.786  0.0723 -0.1334  1.1631
  111OSM   H18F11547   4.008   5.414   8.685  1.8959  0.4826  1.1944
  111OSM   H18G11548   4.051   5.265   8.770  1.4510  0.2773  1.0175
  111OSM   H18H11549   4.111   5.415   8.831  0.5610  0.2881 -0.2173
  112OSM      N11550   2.590   3.892  11.174  0.1093 -0.5703 -0.5193
  112OSM    C1511551   2.672   3.938  11.293  0.0149  0.3668  0.3563
  112OSM   H15A11552   2.768   3.976  11.263 -0.2099  0.2006 -0.6129
  112OSM   H15B11553   2.687   3.862  11.369 -1.5347  1.2016  1.5608
  112OSM   H15C11554   2.628   4.023  11.343 -0.6859  0.8812 -1.1047
  112OSM    C1411555   2.477   3.805  11.224  0.2970 -0.0774 -0.2075
  112OSM   H14A11556   2.410   3.780  11.143 -1.6651 -1.4842  1.7445
  112OSM   H14B11557   2.430   3.865  11.301  2.0953  1.2178 -0.0338
  112OSM   H14C11558   2.502   3.707  11.262 -2.3255 -0.5480  0.4773
  112OSM    C1311559   2.535   4.019  11.117  0.0687 -0.0420  0.6832
  112OSM   H13A11560   2.619   4.077  11.081  0.0990 -0.1333  0.6058
  112OSM   H13B11561   2.480   4.083  11.184  0.0422  0.8856 -0.2034
  112OSM   H13C11562   2.474   3.988  11.033  3.1471 -1.6599 -1.1691
  112OSM    C1211563   2.670   3.813  11.073  0.7109  0.1992 -0.1213
  112OSM   H12A11564   2.718   3.726  11.115 -1.3216 -1.4194 -0.9330
  112OSM   H12B11565   2.741   3.882  11.030 -0.0284  1.6102  0.8472
  112OSM    C1111566   2.582   3.757  10.954  0.1877  0.2177 -0.2768
  112OSM   H11A11567   2.656   3.732  10.875  1.4181  0.5531  0.7531
  112OSM   H11B11568   2.516   3.838  10.916 -1.3826 -1.2458 -0.8594
  112OSM      P11569   2.538   3.497  11.018 -0.3165 -0.0003 -0.3793
  112OSM    O1311570   2.659   3.500  11.101  0.3398  0.4316  0.2279
  112OSM    O1411571   2.421   3.425  11.078  0.1891  0.3542  0.2296
  112OSM    O1111572   2.576   3.439  10.879 -0.5394 -0.3952 -0.5053
  112OSM    O1211573   2.499   3.645  10.986  0.0050  0.0165  0.0745
  112OSM    C1S11574   2.474   3.407  10.779 -0.0067 -0.4848  0.1891
  112OSM    H1S11575   2.372   3.409  10.824  0.9131 -2.8614  2.6433
  112OSM    H1T11576   2.491   3.305  10.739  0.6368 -1.0308  1.7901
  112OSM     NF11577   2.384   3.455  10.559  0.0391  0.0235  0.7196
  112OSM    HNF11578   2.412   3.413  10.473  0.4865 -0.0172  0.8819
  112OSM    C2S11579   2.483   3.501  10.651  0.9778 -0.7770  0.7419
  112OSM    H2S11580   2.453   3.604  10.681  0.1802 -1.3665  2.0701
  112OSM    C3S11581   2.626   3.500  10.599 -0.1062  0.3689  0.5662
  112OSM    H3S11582   2.670   3.399  10.604  1.8251  1.1762  0.8640
  112OSM     O311583   2.710   3.567  10.683  0.2736  0.5326 -0.0309
  112OSM    HO311584   2.666   3.601  10.761 -0.1428 -0.5829  0.2395
  112OSM    C4S11585   2.644   3.548  10.457 -0.6611  0.0677 -0.7527
  112OSM    H4S11586   2.589   3.642  10.443  1.4574  1.5529  0.3234
  112OSM    C5S11587   2.679   3.486  10.345  0.1760  0.7009  0.1896
  112OSM    H5S11588   2.699   3.378  10.353 -0.5584  0.1396 -3.7507
  112OSM    C6S11589   2.696   3.547  10.211  0.0454  0.0102 -0.0419
  112OSM    H6S11590   2.804   3.548  10.185  0.1902 -0.4533  0.5106
  112OSM    H6T11591   2.680   3.656  10.217 -1.7408 -0.2206 -0.2760
  112OSM    C7S11592   2.598   3.487  10.109 -0.1650  0.4166 -0.4151
  112OSM    H7S11593   2.497   3.525  10.134  0.3505  0.5743  1.5963
  112OSM    H7T11594   2.590   3.376  10.116 -0.4991  0.4607 -0.0634
  112OSM    C8S11595   2.636   3.519   9.959 -0.0081  0.0375 -0.2135
  112OSM    H8S11596   2.654   3.629   9.953 -1.0306  0.3167  1.3004
  112OSM    H8T11597   2.563   3.486   9.882  2.1561 -2.6871 -1.2877
  112OSM    C9S11598   2.765   3.452   9.905 -0.8447 -0.1619 -0.0737
  112OSM    H9S11599   2.753   3.341   9.907  0.0699 -0.3888 -2.5689
  112OSM    H9T11600   2.850   3.481   9.969  0.1814 -0.4906 -1.2393
  112OSM   C10S11601   2.786   3.492   9.762  0.3447 -0.3481 -0.2717
  112OSM   H10S11602   2.886   3.452   9.735 -0.1037 -2.2112  0.6941
  112OSM   H10T11603   2.791   3.603   9.759  0.9930 -0.3306  0.7973
  112OSM   C11S11604   2.678   3.444   9.657 -0.1194  0.5024 -0.2499
  112OSM   H11S11605   2.592   3.515   9.662  0.2799  1.1565 -1.9704
  112OSM   H11T11606   2.649   3.339   9.678  0.6295  0.3231 -0.1135
  112OSM   C12S11607   2.723   3.451   9.509 -0.4938  0.1423 -0.1888
  112OSM   H12S11608   2.659   3.393   9.439  1.2241 -1.4809 -0.4970
  112OSM   H12T11609   2.822   3.401   9.499 -0.3955  0.1944  0.5288
  112OSM   C13S11610   2.740   3.592   9.450 -0.3644 -0.1684 -0.1658
  112OSM   H13S11611   2.834   3.630   9.494  0.4046 -1.2073 -0.8754
  112OSM   H13T11612   2.672   3.667   9.496  0.9815  0.1636  1.3516
  112OSM   C14S11613   2.746   3.605   9.301  0.1551 -0.8281  0.3220
  112OSM   H14S11614   2.761   3.711   9.270 -1.1215 -1.0047 -1.0153
  112OSM   H14T11615   2.642   3.576   9.273  0.8086 -1.9444 -1.0655
  112OSM   C15S11616   2.842   3.508   9.230 -1.0262  0.2584  0.6548
  112OSM   H15S11617   2.812   3.401   9.242 -0.5590  0.3361  3.0452
  112OSM   H15T11618   2.931   3.510   9.296 -2.8250 -1.2989  3.3841
  112OSM   C16S11619   2.861   3.544   9.079 -0.1384 -0.1137 -0.4285
  112OSM   H16S11620   2.902   3.647   9.080  1.0500 -0.5529  1.2755
  112OSM   H16T11621   2.760   3.538   9.033 -1.3548 -0.3667  2.1028
  112OSM   C17S11622   2.962   3.459   9.012  0.2844 -0.9035  0.2202
  112OSM   H17S11623   2.912   3.361   8.993  1.4541 -1.9903  2.2724
  112OSM   H17T11624   3.057   3.444   9.068  0.7570 -0.7597 -0.5246
  112OSM   C18S11625   3.003   3.506   8.873  0.3784  0.0742  0.1119
  112OSM   H18S11626   2.927   3.492   8.793  1.4007 -0.5616 -0.7727
  112OSM   H18T11627   3.082   3.442   8.829 -1.5038 -1.2490 -1.5605
  112OSM   H18U11628   3.041   3.610   8.876 -1.2603  0.6856  1.2863
  112OSM    C1F11629   2.250   3.476  10.582  0.2174  0.1694  0.8664
  112OSM     OF11630   2.216   3.552  10.673  0.2408 -0.1014 -0.5006
  112OSM    C2F11631   2.149   3.416  10.485  0.6562  0.1006 -0.3338
  112OSM    H2F11632   2.062   3.390  10.548  0.5849  0.2371 -0.3754
  112OSM    H2G11633   2.188   3.321  10.444 -4.8167 -2.2420 -0.9071
  112OSM    C3F11634   2.094   3.519  10.382 -0.4172  0.6164  0.2135
  112OSM    H3F11635   2.105   3.626  10.409 -1.8341  1.2677 -1.6119
  112OSM    H3G11636   1.985   3.499  10.371  0.3278 -3.5362 -1.4040
  112OSM    C4F11637   2.155   3.500  10.244 -0.0295 -0.3749 -0.0218
  112OSM    H4F11638   2.132   3.401  10.199 -2.2211 -0.1415  0.4949
  112OSM    H4G11639   2.266   3.498  10.251 -0.1363 -0.6565  2.5739
  112OSM    C5F11640   2.118   3.613  10.142 -0.3352 -0.6323  0.6357
  112OSM    H5F11641   2.153   3.710  10.185 -1.4968  0.2721 -0.3819
  112OSM    H5G11642   2.009   3.615  10.118 -0.1401  2.4886 -0.4173
  112OSM    C6F11643   2.196   3.598  10.008 -0.4371 -1.0551  0.9334
  112OSM    H6F11644   2.198   3.491   9.975 -0.4329 -0.6456 -0.4749
  112OSM    H6G11645   2.299   3.632  10.034 -0.6910  2.9127 -2.2864
  112OSM    C7F11646   2.144   3.689   9.894  1.0203  0.5366  0.7211
  112OSM    H7F11647   2.088   3.767   9.949 -1.6977 -0.4725 -0.4323
  112OSM    H7G11648   2.069   3.644   9.825  0.6761  1.0145  0.7805
  112OSM    C8F11649   2.259   3.763   9.822 -0.0383  0.7976 -0.1782
  112OSM    H8F11650   2.314   3.797   9.912 -3.1151 -0.7255  2.4934
  112OSM    H8G11651   2.212   3.842   9.761  0.9509  1.3134 -0.2834
  112OSM    C9F11652   2.319   3.659   9.734 -0.4383  0.3659 -0.3935
  112OSM    H9F11653   2.339   3.562   9.783  0.1306  1.2972  1.2979
  112OSM   C10F11654   2.368   3.679   9.612 -0.6378 -0.6231  0.0560
  112OSM   H10F11655   2.411   3.593   9.559 -4.0949 -1.3101 -1.9782
  112OSM   C11F11656   2.372   3.799   9.521  0.1854  0.3777 -0.6820
  112OSM   H11F11657   2.462   3.808   9.456  0.3768  1.0469 -0.3272
  112OSM   H11G11658   2.381   3.889   9.585 -0.1301 -0.1202  0.0723
  112OSM   C12F11659   2.243   3.819   9.439  0.5402 -0.1745 -0.2204
  112OSM   H12F11660   2.155   3.809   9.506  0.5136  1.0625 -0.0599
  112OSM   H12G11661   2.229   3.738   9.364 -1.2064 -1.1342  1.0510
  112OSM   C13F11662   2.224   3.952   9.353  0.4706  0.2858 -0.2562
  112OSM   H13F11663   2.223   4.046   9.413  0.6316  0.4798 -0.5579
  112OSM   H13G11664   2.134   3.943   9.288  0.6250 -0.1531 -0.4139
  112OSM   C14F11665   2.347   3.975   9.251 -0.6766 -0.0050  0.3512
  112OSM   H14F11666   2.428   4.022   9.311  0.0189 -1.4867  0.6129
  112OSM   H14G11667   2.309   4.058   9.188 -0.3794 -0.0963  0.0505
  112OSM   C15F11668   2.399   3.860   9.171 -0.4217 -0.3955  0.2009
  112OSM   H15F11669   2.315   3.844   9.101 -0.1966  2.0233 -0.6877
  112OSM   H15G11670   2.422   3.771   9.234 -0.1323 -0.3167  0.2062
  112OSM   C16F11671   2.528   3.904   9.101  0.4292  1.0404  0.1948
  112OSM   H16F11672   2.605   3.944   9.170  1.7210  0.7208 -1.0025
  112OSM   H16G11673   2.493   3.982   9.030 -0.2776 -0.0005 -0.6216
  112OSM   C17F11674   2.602   3.795   9.016 -0.4416 -0.5920 -0.3738
  112OSM   H17F11675   2.520   3.739   8.966 -2.2057  0.8463  0.7214
  112OSM   H17G11676   2.655   3.718   9.076 -1.7740 -1.9028 -0.8149
  112OSM   C18F11677   2.695   3.864   8.919  0.2206  0.2387  0.0095
  112OSM   H18F11678   2.775   3.790   8.897  1.3445  0.5484  2.6193
  112OSM   H18G11679   2.733   3.961   8.959 -0.7539  0.6620 -0.0599
  112OSM   H18H11680   2.645   3.887   8.823 -2.0284  0.4410  1.1674
  113OSM      N11681   3.567   2.105  11.459  0.0534 -0.2105 -0.0200
  113OSM    C1511682   3.494   2.146  11.583  0.8049 -0.3078 -0.0734
  113OSM   H15A11683   3.396   2.101  11.585  0.5546  0.2476  0.2155
  113OSM   H15B11684   3.463   2.249  11.595  0.8069 -0.4643  1.4824
  113OSM   H15C11685   3.548   2.110  11.669  0.3559 -1.8614 -0.3963
  113OSM    C1411686   3.704   2.162  11.473 -0.0917 -0.2561  0.7480
  113OSM   H14A11687   3.690   2.269  11.481  0.1951 -0.2530  1.2919
  113OSM   H14B11688   3.770   2.141  11.390 -0.0983 -1.8190  1.1192
  113OSM   H14C11689   3.750   2.125  11.564  2.1274  0.2795 -0.0930
  113OSM    C1311690   3.574   1.956  11.469 -0.7723  0.0573 -0.2165
  113OSM   H13A11691   3.636   1.915  11.390 -1.5981 -2.9354  0.5598
  113OSM   H13B11692   3.477   1.912  11.452 -1.0138  0.8763 -1.0375
  113OSM   H13C11693   3.624   1.922  11.558  1.3201 -0.5663 -1.5482
  113OSM    C1211694   3.487   2.149  11.342  0.1668  0.3579 -0.2455
  113OSM   H12A11695   3.471   2.255  11.342 -1.5794  0.1155 -0.2833
  113OSM   H12B11696   3.386   2.113  11.349  0.2534  0.2309  0.4707
  113OSM    C1111697   3.531   2.103  11.209 -0.0985 -0.2701  0.3975
  113OSM   H11A11698   3.636   2.134  11.191  0.0123 -1.0026 -0.2895
  113OSM   H11B11699   3.471   2.163  11.138  0.8940  2.1309  1.4516
  113OSM      P11700   3.417   1.887  11.110 -0.0309  0.0851  0.2658
  113OSM    O1311701   3.423   1.746  11.153  0.0058  0.8346 -0.0658
  113OSM    O1411702   3.294   1.960  11.137  0.2987  0.5857 -0.1663
  113OSM    O1111703   3.436   1.893  10.953 -0.0693  0.5959 -0.0931
  113OSM    O1211704   3.531   1.965  11.189 -0.1726 -0.1646 -0.6528
  113OSM    C1S11705   3.438   2.019  10.884 -0.1880  0.0220 -0.5027
  113OSM    H1S11706   3.503   2.094  10.932 -0.3375  0.6844 -1.3162
  113OSM    H1T11707   3.334   2.059  10.881 -0.3772 -0.4932 -1.0353
  113OSM     NF11708   3.508   2.124  10.665 -0.0247 -0.0706 -0.3014
  113OSM    HNF11709   3.426   2.161  10.622 -0.5001  0.3541  0.9126
  113OSM    C2S11710   3.484   1.989  10.736 -0.3029 -0.3154  0.2026
  113OSM    H2S11711   3.579   1.931  10.734  1.0378  1.6936  1.4581
  113OSM    C3S11712   3.381   1.913  10.661  0.3352 -0.2169 -0.2075
  113OSM    H3S11713   3.299   1.987  10.651 -0.1753 -0.7509 -0.0797
  113OSM     O311714   3.332   1.792  10.715 -0.2879  0.1887  0.0946
  113OSM    HO311715   3.361   1.794  10.807  0.6869  0.9776 -0.2099
  113OSM    C4S11716   3.412   1.891  10.512 -0.4613 -0.2441 -0.1565
  113OSM    H4S11717   3.381   1.984  10.461  1.2402  1.1841  1.2506
  113OSM    C5S11718   3.454   1.783  10.444 -0.1146  0.2947  0.0713
  113OSM    H5S11719   3.482   1.689  10.493 -1.1373  0.2711  0.6423
  113OSM    C6S11720   3.460   1.783  10.298  0.0642  0.1215  0.4125
  113OSM    H6S11721   3.389   1.858  10.256 -1.5661 -2.9299 -2.8932
  113OSM    H6T11722   3.433   1.687  10.249 -1.8375  1.1973 -0.8007
  113OSM    C7S11723   3.600   1.811  10.235  0.0779 -0.2643  0.4869
  113OSM    H7S11724   3.677   1.737  10.266  2.3094  1.6481 -0.2325
  113OSM    H7T11725   3.620   1.916  10.268 -1.9950  0.1058  0.7428
  113OSM    C8S11726   3.592   1.796  10.083 -0.1120 -0.4850 -0.2426
  113OSM    H8S11727   3.502   1.851  10.048 -1.5457 -2.3037  0.4082
  113OSM    H8T11728   3.583   1.689  10.055  1.0704 -0.1822 -1.9045
  113OSM    C9S11729   3.719   1.856  10.012  0.1341  0.2735  0.7969
  113OSM    H9S11730   3.794   1.780  10.042 -0.9497 -1.3109 -0.3633
  113OSM    H9T11731   3.751   1.954  10.054  1.5292  0.0250  0.3813
  113OSM   C10S11732   3.715   1.867   9.856  0.2172 -0.8939  0.1760
  113OSM   H10S11733   3.780   1.953   9.830 -0.3101 -0.3863  0.4816
  113OSM   H10T11734   3.608   1.896   9.841  0.9604  1.1932 -1.6584
  113OSM   C11S11735   3.750   1.741   9.779 -0.0018  0.2730 -0.4529
  113OSM   H11S11736   3.713   1.654   9.836 -1.2317 -0.1652 -1.8579
  113OSM   H11T11737   3.858   1.717   9.772  0.3203  0.7395  1.8982
  113OSM   C12S11738   3.685   1.721   9.644 -0.0306  0.4958 -0.3305
  113OSM   H12S11739   3.576   1.744   9.648 -0.2611 -0.6652  0.5168
  113OSM   H12T11740   3.702   1.616   9.613  0.4188  0.4984 -0.0913
  113OSM   C13S11741   3.735   1.816   9.543  0.3531  0.0507 -0.3668
  113OSM   H13S11742   3.842   1.794   9.520  0.8509  2.7280 -0.8685
  113OSM   H13T11743   3.715   1.924   9.559 -0.4791 -0.0788 -0.4908
  113OSM   C14S11744   3.658   1.778   9.415  0.6533  0.0636  0.3301
  113OSM   H14S11745   3.548   1.789   9.424  0.3713 -1.3131 -1.0639
  113OSM   H14T11746   3.677   1.671   9.394  1.4912  0.1540  0.5910
  113OSM   C15S11747   3.706   1.874   9.299 -0.9297  0.3930 -0.3659
  113OSM   H15S11748   3.813   1.856   9.276 -0.1578  4.1545 -0.3992
  113OSM   H15T11749   3.686   1.983   9.315 -0.7661  0.2288  1.1296
  113OSM   C16S11750   3.620   1.842   9.174 -0.4218  0.2566  1.0548
  113OSM   H16S11751   3.514   1.822   9.202 -0.4353  0.0538  0.8615
  113OSM   H16T11752   3.649   1.743   9.132  3.5345  1.9156 -0.5857
  113OSM   C17S11753   3.620   1.958   9.075 -0.2776  0.2824  0.8836
  113OSM   H17S11754   3.722   1.989   9.046  0.8109 -1.7004  2.3262
  113OSM   H17T11755   3.557   2.043   9.109  0.2962  1.3619 -0.6531
  113OSM   C18S11756   3.559   1.911   8.937 -0.2147  0.3695 -0.2822
  113OSM   H18S11757   3.458   1.870   8.957  0.5381 -1.2235  0.4116
  113OSM   H18T11758   3.621   1.831   8.891 -2.2957 -1.0347 -0.7803
  113OSM   H18U11759   3.556   1.998   8.868  1.5683  0.8395  0.1760
  113OSM    C1F11760   3.622   2.197  10.667 -0.8050  0.2897 -0.0307
  113OSM     OF11761   3.711   2.182  10.752  0.0721  0.1727  0.1852
  113OSM    C2F11762   3.628   2.295  10.553 -0.4949  0.3819 -0.8438
  113OSM    H2F11763   3.675   2.391  10.582  0.2263 -0.5088  1.0673
  113OSM    H2G11764   3.522   2.317  10.526 -0.3961 -0.8737 -2.3819
  113OSM    C3F11765   3.713   2.237  10.436 -0.0857  0.2140  0.3950
  113OSM    H3F11766   3.671   2.138  10.407  2.1170 -0.4691 -0.6573
  113OSM    H3G11767   3.821   2.222  10.457 -0.2728 -1.4012  0.3238
  113OSM    C4F11768   3.710   2.337  10.316  0.2079  0.3127  0.5852
  113OSM    H4F11769   3.747   2.434  10.356 -0.7299  0.6984  0.5343
  113OSM    H4G11770   3.602   2.344  10.291 -0.4509 -2.1342  2.3802
  113OSM    C5F11771   3.781   2.287  10.191  0.2546 -0.3382  0.1216
  113OSM    H5F11772   3.754   2.182  10.168  1.8347 -0.7202 -0.1275
  113OSM    H5G11773   3.886   2.294  10.226  0.4863 -0.4293 -0.5391
  113OSM    C6F11774   3.778   2.371  10.068 -0.0617 -0.0768 -0.2878
  113OSM    H6F11775   3.827   2.468  10.091 -1.9309  0.6932  0.6775
  113OSM    H6G11776   3.668   2.388  10.060 -0.1375 -0.8171 -0.9608
  113OSM    C7F11777   3.853   2.316   9.949 -0.4197  0.4449 -0.1836
  113OSM    H7F11778   3.805   2.219   9.924  0.0696  0.6182 -1.8884
  113OSM    H7G11779   3.955   2.296   9.990 -1.0932 -1.4325  0.7012
  113OSM    C8F11780   3.859   2.409   9.825 -0.4207  0.5645  0.5649
  113OSM    H8F11781   3.953   2.381   9.773  0.4187  1.6385  1.4558
  113OSM    H8G11782   3.873   2.515   9.854 -2.3175  1.2125 -0.6849
  113OSM    C9F11783   3.751   2.386   9.717  0.5463 -0.2110 -0.2727
  113OSM    H9F11784   3.660   2.443   9.744  0.1773  0.4731 -2.7105
  113OSM   C10F11785   3.754   2.305   9.611  0.1365  0.3497 -0.2643
  113OSM   H10F11786   3.677   2.323   9.535  0.6687 -0.5394 -1.0354
  113OSM   C11F11787   3.868   2.214   9.576 -0.2148  0.5494  0.3528
  113OSM   H11F11788   3.837   2.107   9.581  2.1265 -0.2816 -1.1215
  113OSM   H11G11789   3.962   2.231   9.632  0.5854 -0.6782 -0.5626
  113OSM   C12F11790   3.903   2.244   9.433  0.0741  0.0028 -0.2388
  113OSM   H12F11791   3.955   2.342   9.432  0.0493  0.0492  1.3287
  113OSM   H12G11792   3.812   2.253   9.369 -0.3766 -2.3029 -0.0271
  113OSM   C13F11793   3.997   2.138   9.369 -0.3215 -0.0386  0.0720
  113OSM   H13F11794   3.937   2.044   9.370 -0.2068 -0.1163  1.1018
  113OSM   H13G11795   4.075   2.127   9.447  0.2811 -0.4521 -0.5806
  113OSM   C14F11796   4.055   2.178   9.224  0.4329  0.1246 -0.4893
  113OSM   H14F11797   4.143   2.246   9.222 -1.4288  2.6568 -0.8182
  113OSM   H14G11798   3.979   2.241   9.174  0.3837  0.0819 -0.4684
  113OSM   C15F11799   4.076   2.058   9.137  0.3465 -0.6537 -0.2566
  113OSM   H15F11800   4.112   2.083   9.035  0.8704 -0.7376 -0.0948
  113OSM   H15G11801   3.982   2.005   9.110 -1.1874  0.8156  1.8331
  113OSM   C16F11802   4.180   1.961   9.196  0.0001  0.3120 -0.6515
  113OSM   H16F11803   4.133   1.898   9.275  1.9061 -1.5248 -0.8848
  113OSM   H16G11804   4.253   2.029   9.244 -0.1868 -0.7007  1.1768
  113OSM   C17F11805   4.246   1.869   9.097 -0.1052  0.4992  0.2335
  113OSM   H17F11806   4.168   1.825   9.031 -0.7321  0.8548  0.7351
  113OSM   H17G11807   4.277   1.784   9.162  2.0685  0.7643 -0.3896
  113OSM   C18F11808   4.366   1.940   9.033  0.1521  0.5211 -0.5920
  113OSM   H18F11809   4.439   1.982   9.106 -1.0651 -0.9025  1.5634
  113OSM   H18G11810   4.334   2.028   8.972 -2.2803  1.6000  1.9846
  113OSM   H18H11811   4.411   1.868   8.962 -1.7416 -1.7010  0.3403
  114OSM      N11812   4.228   1.961  11.069  0.0953 -0.0822 -0.3970
  114OSM    C1511813   4.160   1.837  11.116  0.1378 -0.6573 -0.9320
  114OSM   H15A11814   4.053   1.854  11.121  0.4396  1.5699 -0.8793
  114OSM   H15B11815   4.193   1.814  11.216 -1.0144 -0.4210 -0.4691
  114OSM   H15C11816   4.175   1.752  11.051  0.2306  0.5124 -2.4920
  114OSM    C1411817   4.174   1.992  10.935 -0.5837 -0.7116  0.6385
  114OSM   H14A11818   4.071   2.024  10.939 -1.1736 -2.5568  1.0857
  114OSM   H14B11819   4.184   1.904  10.874  1.3899  0.1522 -0.3969
  114OSM   H14C11820   4.231   2.061  10.874  0.5888 -1.8366  0.4199
  114OSM    C1311821   4.194   2.084  11.145  0.0129 -0.5401 -0.5217
  114OSM   H13A11822   4.230   2.083  11.247  1.0677  1.3710 -0.8281
  114OSM   H13B11823   4.086   2.091  11.154 -0.2427 -0.9073 -2.8324
  114OSM   H13C11824   4.218   2.179  11.099 -0.9329  1.8855  3.4457
  114OSM    C1211825   4.379   1.945  11.069 -0.4397  0.2014 -0.3471
  114OSM   H12A11826   4.432   2.023  11.017 -1.2244  0.2644 -1.0726
  114OSM   H12B11827   4.413   1.853  11.022 -0.3448 -0.6028  1.2471
  114OSM    C1111828   4.436   1.936  11.211  0.2403 -0.6586 -0.2012
  114OSM   H11A11829   4.406   2.014  11.285  0.6100 -0.1574 -0.5673
  114OSM   H11B11830   4.542   1.966  11.193  0.0269  0.3953  0.2243
  114OSM      P11831   4.531   1.715  11.301  0.1006 -0.4192  0.0176
  114OSM    O1311832   4.644   1.784  11.367 -0.1679  0.1831 -0.4577
  114OSM    O1411833   4.463   1.606  11.375 -0.1103 -0.0816 -0.1178
  114OSM    O1111834   4.586   1.668  11.164 -0.0005  0.8130  0.4092
  114OSM    O1211835   4.413   1.809  11.260 -0.4851 -0.3989  0.1392
  114OSM    C1S11836   4.510   1.605  11.063  0.1154 -0.1058 -0.7863
  114OSM    H1S11837   4.407   1.647  11.059  0.2726  0.4353  0.3425
  114OSM    H1T11838   4.480   1.507  11.104 -0.8758  0.0809 -1.0464
  114OSM     NF11839   4.482   1.561  10.813  0.3735  0.3446  0.8180
  114OSM    HNF11840   4.513   1.479  10.765  1.0203  0.7539  0.5156
  114OSM    C2S11841   4.567   1.609  10.923  0.1034  0.3910 -0.3476
  114OSM    H2S11842   4.589   1.716  10.905  2.6334  0.1155  0.7326
  114OSM    C3S11843   4.707   1.542  10.926  0.0129 -0.5247 -0.4550
  114OSM    H3S11844   4.693   1.439  10.964 -1.9421  1.2071  4.3427
  114OSM     O311845   4.805   1.612  11.011  0.1210 -0.6218 -0.5493
  114OSM    HO311846   4.755   1.671  11.067  3.0737 -0.0920  1.7899
  114OSM    C4S11847   4.764   1.539  10.785 -0.2136 -0.1406  0.0567
  114OSM    H4S11848   4.754   1.441  10.736 -0.3674  0.7173 -1.7078
  114OSM    C5S11849   4.835   1.632  10.721  0.3923  0.2541 -0.0661
  114OSM    H5S11850   4.857   1.724  10.776  0.8924 -0.5042  1.0557
  114OSM    C6S11851   4.892   1.627  10.580 -1.2308  0.5219 -0.5316
  114OSM    H6S11852   4.890   1.522  10.545 -1.7895 -0.4747  2.2773
  114OSM    H6T11853   4.996   1.664  10.575 -2.1446  4.0342  1.9925
  114OSM    C7S11854   4.820   1.712  10.471 -0.4126 -0.0722 -0.1205
  114OSM    H7S11855   4.777   1.806  10.510 -0.3921 -0.3968  0.6965
  114OSM    H7T11856   4.729   1.659  10.436 -1.1736  0.8947  0.3725
  114OSM    C8S11857   4.908   1.742  10.343 -0.5110 -0.1002  0.0121
  114OSM    H8S11858   5.007   1.779  10.377 -0.5567  1.9138 -1.8914
  114OSM    H8T11859   4.851   1.816  10.283 -2.1922 -1.8197 -0.6455
  114OSM    C9S11860   4.940   1.628  10.248 -0.4832  0.5057  0.3929
  114OSM    H9S11861   4.851   1.571  10.213  1.0024 -1.3220 -0.6217
  114OSM    H9T11862   4.995   1.547  10.302 -0.6705  0.4957  0.5715
  114OSM   C10S11863   5.016   1.673  10.132  0.4084 -0.1234 -0.1444
  114OSM   H10S11864   5.104   1.733  10.163  1.2673 -0.1092 -2.4347
  114OSM   H10T11865   4.952   1.741  10.072  1.2319  1.6886  0.9387
  114OSM   C11S11866   5.074   1.560  10.045 -0.3791 -0.2205  0.4023
  114OSM   H11S11867   4.982   1.508  10.008 -1.0091  0.8062  0.4894
  114OSM   H11T11868   5.127   1.500  10.122  1.0966  1.7856  1.0217
  114OSM   C12S11869   5.160   1.606   9.926 -0.5294  0.1796 -0.3957
  114OSM   H12S11870   5.211   1.521   9.875  0.3802  1.2177 -1.2604
  114OSM   H12T11871   5.243   1.676   9.950 -1.5297  0.9380  0.9544
  114OSM   C13S11872   5.086   1.669   9.808  0.1347 -0.0090  1.0172
  114OSM   H13S11873   5.062   1.776   9.825  1.6265  0.4958  0.1374
  114OSM   H13T11874   4.987   1.625   9.787  0.3318  0.4714 -1.1790
  114OSM   C14S11875   5.172   1.646   9.681  0.8072  0.7980 -0.0239
  114OSM   H14S11876   5.100   1.674   9.602 -2.1691  0.3321  2.3609
  114OSM   H14T11877   5.176   1.535   9.669 -0.6612  0.5372  1.5625
  114OSM   C15S11878   5.300   1.717   9.681 -1.4496  0.5063  0.5297
  114OSM   H15S11879   5.368   1.692   9.765 -0.0696 -0.7389 -0.8783
  114OSM   H15T11880   5.286   1.827   9.689 -0.3221  0.6506  0.6579
  114OSM   C16S11881   5.371   1.695   9.543 -0.5502 -0.0265  0.3162
  114OSM   H16S11882   5.291   1.707   9.467  1.3972 -0.4049 -1.9227
  114OSM   H16T11883   5.405   1.589   9.539  4.2228  1.2437  0.4502
  114OSM   C17S11884   5.504   1.777   9.528  0.3063  0.5755  0.2373
  114OSM   H17S11885   5.552   1.771   9.628 -0.2241  0.5201  0.4943
  114OSM   H17T11886   5.487   1.885   9.506 -0.9583  0.4431  0.4561
  114OSM   C18S11887   5.593   1.715   9.424  0.2477 -0.6271  1.0312
  114OSM   H18S11888   5.636   1.615   9.450 -1.0102 -1.0998  1.3547
  114OSM   H18T11889   5.676   1.788   9.412 -0.4908  0.0605 -0.0097
  114OSM   H18U11890   5.534   1.708   9.330 -0.0104  0.3278  1.1129
  114OSM    C1F11891   4.364   1.610  10.771 -0.0987 -0.2273  0.0198
  114OSM     OF11892   4.306   1.702  10.826 -0.3831  0.7698  0.1359
  114OSM    C2F11893   4.290   1.529  10.669  0.6389  0.1952  0.1892
  114OSM    H2F11894   4.183   1.560  10.665 -0.4848 -3.2989 -3.6305
  114OSM    H2G11895   4.284   1.424  10.705  3.3928  0.3567  1.2955
  114OSM    C3F11896   4.345   1.555  10.526 -0.0506 -0.0844 -0.1568
  114OSM    H3F11897   4.435   1.493  10.506  1.2698  2.2206 -1.9211
  114OSM    H3G11898   4.389   1.655  10.505 -0.3339 -0.3253 -2.1399
  114OSM    C4F11899   4.236   1.524  10.425  0.3335 -0.4084 -0.6929
  114OSM    H4F11900   4.141   1.567  10.464  1.1192 -0.2205  1.1384
  114OSM    H4G11901   4.209   1.416  10.417  1.3496 -0.9222  1.9454
  114OSM    C5F11902   4.271   1.582  10.287 -0.2563 -0.3302 -0.0043
  114OSM    H5F11903   4.361   1.527  10.253  0.0205 -1.2053  1.9928
  114OSM    H5G11904   4.297   1.689  10.306 -0.0172 -0.2216 -0.9240
  114OSM    C6F11905   4.168   1.563  10.182 -0.4044 -0.7644 -0.4034
  114OSM    H6F11906   4.072   1.603  10.219  0.0144 -2.0155  2.2156
  114OSM    H6G11907   4.148   1.455  10.168  0.0233 -0.7614 -1.1583
  114OSM    C7F11908   4.197   1.632  10.048  0.3601 -0.4983  0.4748
  114OSM    H7F11909   4.285   1.595   9.993  1.2535  3.8531 -1.3658
  114OSM    H7G11910   4.222   1.738  10.067 -0.5470 -0.3266  0.7818
  114OSM    C8F11911   4.086   1.622   9.947  0.4561 -0.2350 -0.2254
  114OSM    H8F11912   4.100   1.702   9.870 -1.6779  0.2856 -0.1233
  114OSM    H8G11913   3.987   1.641   9.994  0.0875 -0.1053 -1.0451
  114OSM    C9F11914   4.078   1.485   9.885  0.2224 -0.3104  0.4173
  114OSM    H9F11915   4.067   1.402   9.957 -1.1930  0.1580  0.7612
  114OSM   C10F11916   4.106   1.456   9.758 -0.2866  0.0840 -0.0057
  114OSM   H10F11917   4.108   1.352   9.720  0.4055 -0.0410  0.3600
  114OSM   C11F11918   4.171   1.555   9.657 -0.0894  0.4512 -0.1176
  114OSM   H11F11919   4.251   1.493   9.611 -1.9671 -1.2579 -1.2294
  114OSM   H11G11920   4.227   1.640   9.701 -0.1969  1.7626 -2.3677
  114OSM   C12F11921   4.081   1.614   9.546 -0.2252 -0.5071 -0.5226
  114OSM   H12F11922   4.142   1.684   9.485  0.1949 -1.6420 -1.4473
  114OSM   H12G11923   3.996   1.667   9.593  1.2805  1.5834 -0.0434
  114OSM   C13F11924   4.028   1.507   9.452  0.2549 -0.3078 -0.2376
  114OSM   H13F11925   3.950   1.447   9.502  3.1076 -2.0603  2.4745
  114OSM   H13G11926   4.105   1.433   9.421 -0.9415 -0.0928 -4.3604
  114OSM   C14F11927   3.976   1.575   9.321  0.6039 -0.0165 -0.2472
  114OSM   H14F11928   4.061   1.631   9.277  0.8148 -0.3133 -0.2213
  114OSM   H14G11929   3.889   1.642   9.337  0.8692  0.1943  0.3377
  114OSM   C15F11930   3.925   1.479   9.206 -0.8438 -0.7773 -0.4771
  114OSM   H15F11931   3.844   1.424   9.258 -0.5084 -0.0514  0.8775
  114OSM   H15G11932   4.009   1.407   9.197  1.8328  2.2567 -1.8953
  114OSM   C16F11933   3.899   1.544   9.067  0.1195  0.0688  0.3039
  114OSM   H16F11934   3.989   1.571   9.007  0.6965 -2.1859  0.0893
  114OSM   H16G11935   3.832   1.631   9.081 -0.4085 -0.0062 -1.5907
  114OSM   C17F11936   3.813   1.448   8.982 -0.3198  0.0344 -0.1758
  114OSM   H17F11937   3.733   1.406   9.047  1.4184 -1.1462  1.3037
  114OSM   H17G11938   3.857   1.353   8.946  2.1619  0.9212  0.3676
  114OSM   C18F11939   3.745   1.501   8.853 -0.7974 -0.0361  0.2769
  114OSM   H18F11940   3.818   1.546   8.782 -0.3058  0.7085  1.2210
  114OSM   H18G11941   3.687   1.588   8.892  4.2884  3.1811  1.6110
  114OSM   H18H11942   3.696   1.417   8.800  0.7880 -1.2714  0.6914
  115OSM      N11943   0.460   5.166   6.423  0.4535  0.4046  0.5411
  115OSM    C1511944   0.424   5.065   6.527 -0.2566 -0.1854 -0.6513
  115OSM   H15A11945   0.448   5.106   6.624  0.1158  1.1717 -1.2909
  115OSM   H15B11946   0.471   4.968   6.522 -0.7896 -0.4202 -1.2484
  115OSM   H15C11947   0.316   5.059   6.531 -0.1827 -1.1927  0.2667
  115OSM    C1411948   0.436   5.095   6.282  0.1595 -0.2080  0.3285
  115OSM   H14A11949   0.349   5.031   6.290  2.3011 -3.5146 -0.7589
  115OSM   H14B11950   0.518   5.034   6.247  0.8896  1.1540 -0.3936
  115OSM   H14C11951   0.422   5.167   6.203 -1.7778  0.4105  1.1587
  115OSM    C1311952   0.369   5.279   6.437  0.9497  1.0521  0.5551
  115OSM   H13A11953   0.274   5.245   6.400  0.4359  2.7797  0.2063
  115OSM   H13B11954   0.405   5.365   6.384  0.0125 -0.3314 -2.5276
  115OSM   H13C11955   0.361   5.313   6.540  1.1193  2.6562  0.0670
  115OSM    C1211956   0.599   5.218   6.425 -0.3083 -0.4544 -0.1403
  115OSM   H12A11957   0.604   5.288   6.507 -0.9503 -2.5388  1.7866
  115OSM   H12B11958   0.610   5.274   6.334 -0.1776 -0.1350  0.0723
  115OSM    C1111959   0.710   5.113   6.443 -0.9354 -0.5907 -0.3801
  115OSM   H11A11960   0.701   5.055   6.538 -0.7494 -0.4378 -0.2698
  115OSM   H11B11961   0.800   5.175   6.458 -0.3621 -1.5036  0.0717
  115OSM      P11962   0.735   4.872   6.340 -0.0788  0.1857  0.0223
  115OSM    O1311963   0.600   4.818   6.334  0.3248  0.0058 -0.5381
  115OSM    O1411964   0.822   4.821   6.233  0.1057  0.3353 -0.2615
  115OSM    O1111965   0.800   4.844   6.486  0.4362 -0.0876  0.1172
  115OSM    O1211966   0.716   5.025   6.334 -0.2370 -0.3839  0.6491
  115OSM    C1S11967   0.715   4.776   6.583 -0.4768  0.0153  0.5258
  115OSM    H1S11968   0.704   4.667   6.564  2.9115 -0.9910  3.2504
  115OSM    H1T11969   0.619   4.829   6.598  0.6385  2.0999  0.5938
  115OSM     NF11970   0.718   4.696   6.820 -0.7629  0.4533  0.5240
  115OSM    HNF11971   0.648   4.738   6.878  0.4487 -0.4462  2.7464
  115OSM    C2S11972   0.790   4.777   6.726 -0.5637 -0.0722  0.0733
  115OSM    H2S11973   0.891   4.737   6.706  0.6166  1.5667  2.2692
  115OSM    C3S11974   0.803   4.922   6.778 -0.2359 -0.4663 -0.5853
  115OSM    H3S11975   0.704   4.972   6.787  1.2767  2.4551  1.8406
  115OSM     O311976   0.877   5.014   6.702  0.2450  0.4406  0.4427
  115OSM    HO311977   0.875   4.981   6.612  1.7328  1.0149  0.1559
  115OSM    C4S11978   0.871   4.911   6.913  0.9272 -0.6648 -0.8362
  115OSM    H4S11979   0.980   4.904   6.906  1.0432  1.0895 -1.1128
  115OSM    C5S11980   0.808   4.932   7.031 -0.3844  0.9919  0.6028
  115OSM    H5S11981   0.700   4.954   7.030 -0.5411  0.2452  1.0579
  115OSM    C6S11982   0.888   4.914   7.161  0.3501  0.1761 -0.3943
  115OSM    H6S11983   0.832   4.832   7.212 -0.2821  1.3207  0.8162
  115OSM    H6T11984   0.860   5.005   7.218  0.5422 -0.3074  0.5097
  115OSM    C7S11985   1.041   4.890   7.170 -0.3721  0.8383  0.7439
  115OSM    H7S11986   1.090   4.980   7.126  1.2789  0.0387  0.8689
  115OSM    H7T11987   1.072   4.809   7.101 -0.4667  1.3936  0.0342
  115OSM    C8S11988   1.088   4.861   7.319 -0.4819 -0.3357 -0.1586
  115OSM    H8S11989   1.195   4.831   7.319 -1.0528 -2.7109  1.6539
  115OSM    H8T11990   1.017   4.785   7.358 -1.4535 -0.2243 -1.6318
  115OSM    C9S11991   1.071   4.989   7.402 -0.0445  0.0019 -0.9435
  115OSM    H9S11992   0.965   5.017   7.422 -0.4529 -1.6996 -0.6082
  115OSM    H9T11993   1.105   5.071   7.335  0.5346 -1.7660 -2.9217
  115OSM   C10S11994   1.165   4.984   7.529 -0.2392 -0.2029  0.0477
  115OSM   H10S11995   1.266   4.946   7.506  0.3525  1.4601 -0.2789
  115OSM   H10T11996   1.109   4.916   7.596  1.9898 -2.0961  0.1080
  115OSM   C11S11997   1.174   5.114   7.601  0.1211  0.3761 -0.2514
  115OSM   H11S11998   1.075   5.138   7.645 -0.7645  2.3153 -3.0256
  115OSM   H11T11999   1.202   5.184   7.518 -0.4791  1.2147  0.2418
  115OSM   C12S12000   1.282   5.126   7.718  0.2089  0.4884 -0.0806
  115OSM   H12S12001   1.374   5.177   7.683  0.9779 -0.7435  0.0921
  115OSM   H12T12002   1.299   5.023   7.756 -0.5945  1.4069  3.0747
  115OSM   C13S12003   1.225   5.211   7.826 -0.4761  0.0761 -0.4927
  115OSM   H13S12004   1.131   5.157   7.849 -0.6116 -0.2021 -1.6589
  115OSM   H13T12005   1.200   5.314   7.790 -1.1457  0.0108 -0.2363
  115OSM   C14S12006   1.326   5.237   7.942 -0.7766  0.0323  0.9386
  115OSM   H14S12007   1.416   5.297   7.917 -1.0487  0.7194  1.5564
  115OSM   H14T12008   1.365   5.136   7.966 -1.6558 -0.5937 -0.1645
  115OSM   C15S12009   1.269   5.308   8.066 -0.5432  0.0551  0.2567
  115OSM   H15S12010   1.342   5.299   8.149  1.2077  1.2442 -1.0555
  115OSM   H15T12011   1.174   5.259   8.093  0.8512 -2.1467  1.5088
  115OSM   C16S12012   1.243   5.460   8.055  0.2987 -0.3544 -0.1869
  115OSM   H16S12013   1.167   5.471   7.974 -1.1086 -0.2314  1.1013
  115OSM   H16T12014   1.339   5.506   8.025 -0.3110  0.2095 -1.3761
  115OSM   C17S12015   1.198   5.522   8.190  0.5925  0.1858  0.6730
  115OSM   H17S12016   1.184   5.631   8.172  1.2890 -0.2418 -3.3182
  115OSM   H17T12017   1.278   5.500   8.263  1.2828 -2.1344 -0.6779
  115OSM   C18S12018   1.073   5.462   8.249 -0.0236 -0.6495  0.1216
  115OSM   H18S12019   1.079   5.355   8.275  0.3473 -0.4017  1.0984
  115OSM   H18T12020   0.996   5.479   8.170  0.7306 -2.3078 -1.0172
  115OSM   H18U12021   1.047   5.522   8.339 -2.5279 -0.6116 -0.5341
  115OSM    C1F12022   0.722   4.562   6.808  0.1880  0.0389  0.8293
  115OSM     OF12023   0.795   4.505   6.729  0.7426  0.6092 -0.1084
  115OSM    C2F12024   0.631   4.490   6.896  0.6890  0.2957 -0.8845
  115OSM    H2F12025   0.540   4.471   6.835 -0.9913  0.8493  1.3018
  115OSM    H2G12026   0.607   4.546   6.989 -0.5734  0.3889 -1.2479
  115OSM    C3F12027   0.694   4.361   6.946 -0.7695  0.2963  1.3789
  115OSM    H3F12028   0.790   4.394   6.992 -2.1043  2.1905  3.0093
  115OSM    H3G12029   0.728   4.308   6.855  1.3472  1.4024  1.4523
  115OSM    C4F12030   0.620   4.275   7.052 -0.4150  0.1054  0.9318
  115OSM    H4F12031   0.532   4.217   7.018  1.5673 -1.3656 -2.1644
  115OSM    H4G12032   0.586   4.335   7.140 -0.6526 -1.5187  1.9801
  115OSM    C5F12033   0.708   4.155   7.095  1.2053 -0.3260  0.1112
  115OSM    H5F12034   0.814   4.187   7.103  1.3025 -0.9093  1.2665
  115OSM    H5G12035   0.712   4.085   7.009  0.1962 -1.0580  0.6572
  115OSM    C6F12036   0.660   4.092   7.221 -0.1960 -0.0522  1.0978
  115OSM    H6F12037   0.716   3.996   7.223  0.4766  0.2006 -1.5960
  115OSM    H6G12038   0.552   4.068   7.224 -0.0725 -1.2230 -1.3319
  115OSM    C7F12039   0.705   4.168   7.349 -0.8563  0.3322 -0.4804
  115OSM    H7F12040   0.676   4.271   7.320 -2.8621 -0.0187  0.0908
  115OSM    H7G12041   0.815   4.172   7.362 -1.0420  0.0822  1.5537
  115OSM    C8F12042   0.630   4.119   7.477 -0.1981 -0.4252  0.3733
  115OSM    H8F12043   0.523   4.112   7.445 -0.0128  0.6429 -0.5814
  115OSM    H8G12044   0.637   4.212   7.537  1.0815 -0.2194 -0.0720
  115OSM    C9F12045   0.688   3.992   7.533 -0.4802 -0.1796 -0.6677
  115OSM    H9F12046   0.643   3.898   7.499  1.6274 -1.2280 -0.6954
  115OSM   C10F12047   0.804   3.990   7.606  0.2285  0.4675  0.6504
  115OSM   H10F12048   0.844   3.891   7.633  1.0060  0.2933 -0.9778
  115OSM   C11F12049   0.887   4.100   7.659 -0.1722 -0.1377 -0.0772
  115OSM   H11F12050   0.856   4.201   7.623  2.0190  0.6325 -0.0110
  115OSM   H11G12051   0.993   4.083   7.630 -0.4583  1.0842 -2.0417
  115OSM   C12F12052   0.880   4.108   7.817 -0.2920  0.2293  0.3351
  115OSM   H12F12053   0.773   4.124   7.844 -0.1805  0.5880  0.5784
  115OSM   H12G12054   0.946   4.183   7.867  1.6854 -1.6191  0.6188
  115OSM   C13F12055   0.925   3.977   7.887 -0.9876  0.4772  0.3152
  115OSM   H13F12056   1.003   4.014   7.957 -0.0548 -0.1126 -0.3932
  115OSM   H13G12057   0.979   3.912   7.815 -0.3291  0.5716  0.7188
  115OSM   C14F12058   0.813   3.921   7.992  0.5464  0.4528  0.1196
  115OSM   H14F12059   0.729   3.890   7.926  1.7684  1.3638 -1.9907
  115OSM   H14G12060   0.795   4.002   8.066  2.1397  0.3742  0.6082
  115OSM   C15F12061   0.857   3.802   8.077  0.2627 -0.3194 -0.4840
  115OSM   H15F12062   0.891   3.716   8.015 -0.7011 -0.3115 -1.0358
  115OSM   H15G12063   0.772   3.777   8.144  1.2552  0.1462  1.0002
  115OSM   C16F12064   0.975   3.834   8.170 -0.1639  0.3291 -1.0077
  115OSM   H16F12065   0.948   3.928   8.222  0.5509 -0.7770  1.5260
  115OSM   H16G12066   1.067   3.864   8.115  0.4914  1.1943  0.5005
  115OSM   C17F12067   1.011   3.730   8.273  0.6252 -0.6314 -0.2541
  115OSM   H17F12068   1.039   3.637   8.218 -1.4870 -1.5696  0.1660
  115OSM   H17G12069   0.921   3.704   8.332 -1.0570  2.0092 -1.4595
  115OSM   C18F12070   1.120   3.779   8.363  0.2646 -0.5531 -0.1148
  115OSM   H18F12071   1.132   3.698   8.439  0.4747  1.2369  1.8819
  115OSM   H18G12072   1.087   3.861   8.432 -1.3677 -1.6841  0.5306
  115OSM   H18H12073   1.212   3.799   8.304 -0.8770 -1.0649 -2.1620
  116OSM      N12074   6.422   3.644   6.296  0.2607 -0.4880 -0.2188
  116OSM    C1512075   6.547   3.716   6.248 -0.5810 -0.4883  0.2523
  116OSM   H15A12076   6.613   3.748   6.327  0.8156 -0.1767 -0.9954
  116OSM   H15B12077   6.518   3.805   6.194 -0.1986  0.0999  0.9962
  116OSM   H15C12078   6.594   3.659   6.169 -1.2572 -1.2363  0.3759
  116OSM    C1412079   6.321   3.740   6.356 -0.3453 -0.0193 -0.2359
  116OSM   H14A12080   6.274   3.795   6.276  0.8691  1.0095 -0.2709
  116OSM   H14B12081   6.370   3.819   6.411 -2.2651  1.1285 -0.0440
  116OSM   H14C12082   6.249   3.691   6.421 -2.0844  1.5043 -0.9215
  116OSM    C1312083   6.357   3.575   6.187 -0.5241 -0.2358 -0.3344
  116OSM   H13A12084   6.298   3.635   6.120 -2.9094 -4.3911 -2.3375
  116OSM   H13B12085   6.286   3.505   6.228  1.0964 -0.3039  2.6413
  116OSM   H13C12086   6.427   3.521   6.125 -0.2335 -1.3713  0.9205
  116OSM    C1212087   6.467   3.545   6.401 -0.1539 -1.7190  0.8134
  116OSM   H12A12088   6.522   3.601   6.475 -2.5456 -0.9151  2.1274
  116OSM   H12B12089   6.532   3.470   6.359  0.6324  0.2017 -1.6714
  116OSM    C1112090   6.353   3.482   6.486 -0.0502 -0.0329  0.0832
  116OSM   H11A12091   6.316   3.558   6.559  2.6210  0.0119  1.5307
  116OSM   H11B12092   6.395   3.397   6.544 -1.5048 -2.3197 -2.0478
  116OSM      P12093   6.095   3.465   6.429 -0.2384 -0.0001 -0.0460
  116OSM    O1312094   6.093   3.597   6.493 -0.4711  0.4230 -0.5908
  116OSM    O1412095   6.021   3.442   6.304  0.6103  0.5771 -0.1342
  116OSM    O1112096   6.038   3.354   6.535  0.2736 -0.3434  0.7693
  116OSM    O1212097   6.250   3.427   6.403 -0.4131 -0.0255  0.6006
  116OSM    C1S12098   6.122   3.249   6.573  0.5697  0.3651  0.0323
  116OSM    H1S12099   6.218   3.289   6.613  0.7314 -0.8481  0.9086
  116OSM    H1T12100   6.140   3.170   6.498  1.9420 -0.7132  1.4133
  116OSM     NF12101   6.146   3.053   6.742  0.4183 -0.1320  0.1999
  116OSM    HNF12102   6.128   2.960   6.714  0.8048 -0.1947  0.1523
  116OSM    C2S12103   6.055   3.160   6.684 -0.0456  0.8094 -0.7849
  116OSM    H2S12104   6.036   3.235   6.764 -1.7152 -1.5417  1.1839
  116OSM    C3S12105   5.924   3.104   6.619 -0.1360 -0.0888 -0.5489
  116OSM    H3S12106   5.958   3.027   6.546  2.0977  1.6522 -1.4563
  116OSM     O312107   5.838   3.197   6.556 -0.3497 -0.4949 -0.4362
  116OSM    HO312108   5.889   3.278   6.547  1.7206 -1.6222  0.4101
  116OSM    C4S12109   5.854   3.030   6.733  0.4967 -0.2250 -0.0042
  116OSM    H4S12110   5.862   2.920   6.727  0.2515 -0.2254 -0.3338
  116OSM    C5S12111   5.784   3.084   6.834 -0.1633 -0.4146 -0.1072
  116OSM    H5S12112   5.771   3.193   6.844  1.1605 -0.3822  1.8087
  116OSM    C6S12113   5.729   2.998   6.947  0.0064  0.4867 -0.2281
  116OSM    H6S12114   5.767   2.895   6.929  1.1553  0.9846 -0.7339
  116OSM    H6T12115   5.618   3.010   6.951  0.0157  0.5615  3.4531
  116OSM    C7S12116   5.784   3.053   7.085  0.6159  0.4840  0.5614
  116OSM    H7S12117   5.723   2.999   7.161  0.3407  0.0030 -0.0035
  116OSM    H7T12118   5.767   3.160   7.112 -1.0713  0.2307  0.6019
  116OSM    C8S12119   5.932   3.027   7.102  0.2221 -0.6621  0.2205
  116OSM    H8S12120   5.989   3.085   7.028  2.6297 -2.7483  0.3043
  116OSM    H8T12121   5.959   2.920   7.089 -2.8176 -1.3639 -1.2234
  116OSM    C9S12122   5.976   3.063   7.237 -0.2435  0.1596 -0.1767
  116OSM    H9S12123   5.944   3.168   7.254  1.7718  0.9756 -1.1737
  116OSM    H9T12124   6.086   3.059   7.241 -0.1295  2.6602  2.5341
  116OSM   C10S12125   5.931   2.973   7.358  0.3321 -0.0361  0.5888
  116OSM   H10S12126   5.950   2.864   7.347 -0.8334 -0.0070 -2.9489
  116OSM   H10T12127   5.820   2.968   7.363  0.3233  0.1410  0.5798
  116OSM   C11S12128   5.994   3.026   7.484 -0.4786 -0.3454 -0.2343
  116OSM   H11S12129   5.973   3.134   7.499 -0.5177 -0.4395  0.4395
  116OSM   H11T12130   6.103   3.029   7.462 -0.6617  0.4359 -1.0761
  116OSM   C12S12131   5.953   2.955   7.616 -0.0258  0.6479  0.1336
  116OSM   H12S12132   5.955   2.844   7.615 -0.2971  0.6037  1.9897
  116OSM   H12T12133   5.846   2.983   7.628 -0.6276 -1.1809 -0.6083
  116OSM   C13S12134   6.024   3.016   7.740 -0.1234  0.2187 -0.1546
  116OSM   H13S12135   5.984   3.118   7.760  1.0121  0.3999  1.3569
  116OSM   H13T12136   6.134   3.022   7.730 -0.2341 -0.8128 -2.6771
  116OSM   C14S12137   5.975   2.950   7.879 -0.7705 -0.3360 -0.2045
  116OSM   H14S12138   6.027   2.852   7.877  2.3755  1.2004 -2.4429
  116OSM   H14T12139   5.864   2.944   7.876 -0.7620 -1.2135  0.6831
  116OSM   C15S12140   6.019   3.029   7.999  0.0362  0.4958 -0.3525
  116OSM   H15S12141   5.993   3.136   7.982  0.7827  0.6388 -0.6379
  116OSM   H15T12142   6.129   3.012   8.006  0.1902  1.3024 -0.7031
  116OSM   C16S12143   5.953   2.985   8.130 -0.1784  0.0334 -0.4264
  116OSM   H16S12144   5.993   2.884   8.156  0.1288  0.4723  0.9071
  116OSM   H16T12145   5.843   2.980   8.115 -0.7502  5.0397  0.6450
  116OSM   C17S12146   5.994   3.075   8.248  0.0587 -0.1892  0.1148
  116OSM   H17S12147   5.924   3.053   8.332 -1.5257 -0.3120 -1.1858
  116OSM   H17T12148   5.981   3.184   8.233 -0.9168 -0.2172  0.6847
  116OSM   C18S12149   6.129   3.045   8.309 -0.1114 -0.0468 -0.1834
  116OSM   H18S12150   6.205   3.115   8.269  0.8748 -1.3993 -0.7755
  116OSM   H18T12151   6.176   2.950   8.276 -2.0535 -1.0018 -0.3384
  116OSM   H18U12152   6.128   3.055   8.420 -0.0704  1.9745 -0.3331
  116OSM    C1F12153   6.256   3.086   6.811  0.4406 -0.2026  0.2266
  116OSM     OF12154   6.291   3.201   6.817 -0.0832  0.1885  0.4207
  116OSM    C2F12155   6.336   2.977   6.869 -0.7938 -1.0015  0.8918
  116OSM    H2F12156   6.404   3.011   6.951 -1.5593  1.1476  0.6912
  116OSM    H2G12157   6.395   2.928   6.789 -1.4565 -1.0994  0.4614
  116OSM    C3F12158   6.250   2.860   6.918  0.8186 -0.3256  0.3267
  116OSM    H3F12159   6.200   2.805   6.835 -0.1284  3.2821 -1.7529
  116OSM    H3G12160   6.174   2.895   6.991  1.6774  0.5565  0.8167
  116OSM    C4F12161   6.335   2.761   7.006  0.4904 -0.1549 -0.2989
  116OSM    H4F12162   6.439   2.759   6.969  1.2538  0.4808  1.6551
  116OSM    H4G12163   6.292   2.661   6.985  1.0904 -0.8237  1.4228
  116OSM    C5F12164   6.326   2.792   7.154  0.9352 -0.2574 -0.0658
  116OSM    H5F12165   6.222   2.770   7.187  0.8206  1.4824  0.8451
  116OSM    H5G12166   6.339   2.900   7.176 -0.3980 -0.0834 -0.0575
  116OSM    C6F12167   6.414   2.704   7.246  0.5495 -0.4998 -0.4297
  116OSM    H6F12168   6.521   2.705   7.216  0.5900 -1.0057 -0.2962
  116OSM    H6G12169   6.381   2.599   7.232 -0.9628 -0.3206  1.3521
  116OSM    C7F12170   6.395   2.747   7.397  0.2044  0.1949  0.6354
  116OSM    H7F12171   6.293   2.789   7.409 -0.7648 -1.6991 -0.6552
  116OSM    H7G12172   6.478   2.814   7.429  2.4680 -2.0673 -0.1689
  116OSM    C8F12173   6.397   2.620   7.488  0.2245 -0.2101  0.4036
  116OSM    H8F12174   6.494   2.566   7.496  0.6488  0.5470  0.5027
  116OSM    H8G12175   6.330   2.547   7.439 -1.4822  0.5185  1.5234
  116OSM    C9F12176   6.334   2.657   7.624  0.2548  0.1473 -0.0223
  116OSM    H9F12177   6.273   2.749   7.622 -1.3367 -0.8892 -0.9081
  116OSM   C10F12178   6.329   2.596   7.744  0.6563 -0.9079  0.6547
  116OSM   H10F12179   6.280   2.641   7.832 -0.9695 -2.0658  0.3972
  116OSM   C11F12180   6.392   2.470   7.777 -0.7604 -0.1292  0.3530
  116OSM   H11F12181   6.450   2.430   7.691  0.8135 -0.4915  1.5463
  116OSM   H11G12182   6.320   2.386   7.792  1.2681 -1.9891  0.2755
  116OSM   C12F12183   6.464   2.468   7.912  0.0357  0.4301  0.4451
  116OSM   H12F12184   6.390   2.494   7.991 -0.9098  0.0069 -0.2835
  116OSM   H12G12185   6.547   2.542   7.909 -0.1695  0.7202  1.3722
  116OSM   C13F12186   6.527   2.332   7.958  0.3570 -0.2742  0.4903
  116OSM   H13F12187   6.614   2.316   7.891  0.3416  2.3214 -0.2295
  116OSM   H13G12188   6.456   2.249   7.935  1.1447 -0.2570 -2.3945
  116OSM   C14F12189   6.586   2.328   8.096  0.0519 -0.3239 -0.0716
  116OSM   H14F12190   6.644   2.422   8.104  0.5248 -0.4350 -1.8383
  116OSM   H14G12191   6.662   2.247   8.101 -0.4854 -0.7849  1.4711
  116OSM   C15F12192   6.495   2.303   8.218  0.2188 -0.4254 -0.1060
  116OSM   H15F12193   6.451   2.207   8.183  0.0642 -0.0117 -1.0687
  116OSM   H15G12194   6.430   2.394   8.217  2.3576  1.2023 -2.6531
  116OSM   C16F12195   6.566   2.289   8.350 -0.4977  0.1151  0.6014
  116OSM   H16F12196   6.616   2.384   8.381  0.0766 -0.5658  1.7926
  116OSM   H16G12197   6.647   2.214   8.337 -1.2135 -0.8350  1.4867
  116OSM   C17F12198   6.490   2.232   8.465 -0.2549 -0.5073  1.5738
  116OSM   H17F12199   6.423   2.316   8.495 -0.6576  0.5257 -1.7901
  116OSM   H17G12200   6.569   2.215   8.541 -0.8462  1.0777  2.6192
  116OSM   C18F12201   6.404   2.104   8.442 -0.2286 -0.6733  0.0775
  116OSM   H18F12202   6.466   2.020   8.403  0.2327 -0.2734 -0.0515
  116OSM   H18G12203   6.315   2.128   8.380 -0.9728  1.9843  2.0206
  116OSM   H18H12204   6.359   2.076   8.540 -0.3583  2.1558  0.9038
  117OSM      N12205   5.095   5.136   6.281  0.5548 -0.3002 -0.7181
  117OSM    C1512206   4.973   5.206   6.229  0.6389 -0.4707 -0.1131
  117OSM   H15A12207   4.932   5.134   6.160  1.3290 -1.5198  0.5433
  117OSM   H15B12208   4.996   5.296   6.174  1.8502 -0.5897  0.1816
  117OSM   H15C12209   4.897   5.234   6.301  1.5943 -0.3241  0.8547
  117OSM    C1412210   5.160   5.057   6.169 -0.0336 -0.1134 -0.9778
  117OSM   H14A12211   5.239   4.989   6.198  1.5835  1.1715 -2.1438
  117OSM   H14B12212   5.202   5.119   6.091 -0.2177  0.1770 -0.8476
  117OSM   H14C12213   5.094   5.001   6.104  1.1893 -1.5246 -1.0481
  117OSM    C1312214   5.196   5.235   6.324 -0.0300 -0.7886 -0.4043
  117OSM   H13A12215   5.234   5.300   6.247 -0.0909  0.1756  0.3636
  117OSM   H13B12216   5.273   5.178   6.374 -0.2631  0.5315  1.5657
  117OSM   H13C12217   5.152   5.300   6.398 -1.2420 -2.0160  0.0032
  117OSM    C1212218   5.056   5.053   6.398 -0.9134  0.5181 -0.2435
  117OSM   H12A12219   4.978   4.997   6.349 -1.2196  1.8773 -1.3691
  117OSM   H12B12220   5.009   5.110   6.477 -0.4852  1.6991 -0.8154
  117OSM    C1112221   5.172   4.958   6.457  0.1824  0.3023 -0.0491
  117OSM   H11A12222   5.212   4.907   6.367 -2.3066 -0.8031 -0.5967
  117OSM   H11B12223   5.130   4.876   6.519  0.7451  0.2060  0.2145
  117OSM      P12224   5.251   5.106   6.667 -0.3384 -0.2165 -0.1413
  117OSM    O1312225   5.337   5.040   6.764  0.1763 -0.3024 -0.1636
  117OSM    O1412226   5.281   5.252   6.637  0.3979 -0.0641 -0.1504
  117OSM    O1112227   5.096   5.092   6.703 -0.3758  0.3103 -0.2227
  117OSM    O1212228   5.272   5.026   6.533 -0.1627 -0.0874  0.6274
  117OSM    C1S12229   5.021   5.130   6.818 -0.9658  0.2598 -0.5076
  117OSM    H1S12230   4.927   5.183   6.790 -1.0421  1.0676  1.1779
  117OSM    H1T12231   5.070   5.209   6.879 -2.8255  1.3046 -0.2735
  117OSM     NF12232   5.052   4.967   7.018  0.1816 -0.3429 -0.4488
  117OSM    HNF12233   5.129   4.907   6.999  0.3406 -0.4807  0.5791
  117OSM    C2S12234   4.970   5.010   6.907  0.1058 -0.4324 -0.1217
  117OSM    H2S12235   4.877   5.050   6.953  2.0265  3.5404  0.7428
  117OSM    C3S12236   4.936   4.886   6.822 -0.1797  0.1842  0.5501
  117OSM    H3S12237   5.036   4.840   6.810  0.5427  1.6994  0.4647
  117OSM     O312238   4.884   4.914   6.691 -0.6573 -0.0639  0.0873
  117OSM    HO312239   4.933   4.995   6.674  0.7853 -1.2373 -1.7626
  117OSM    C4S12240   4.850   4.792   6.898 -0.6448 -0.6136 -0.0562
  117OSM    H4S12241   4.903   4.725   6.967 -3.1946 -1.3480  1.3091
  117OSM    C5S12242   4.717   4.798   6.901 -0.5802 -0.4029  0.0421
  117OSM    H5S12243   4.661   4.854   6.824  2.5157  0.6281 -1.6537
  117OSM    C6S12244   4.634   4.707   6.984 -0.0345 -0.2342 -0.1961
  117OSM    H6S12245   4.661   4.601   6.963 -2.8862 -0.9471 -0.6357
  117OSM    H6T12246   4.528   4.702   6.951 -0.6501  0.6557  1.5131
  117OSM    C7S12247   4.637   4.733   7.134  0.0010 -0.0647 -0.3246
  117OSM    H7S12248   4.737   4.705   7.173 -0.0808 -0.7488 -0.5806
  117OSM    H7T12249   4.569   4.663   7.187 -2.4268  1.4608 -1.2479
  117OSM    C8S12250   4.602   4.875   7.177  0.2353  0.0945 -0.2806
  117OSM    H8S12251   4.517   4.917   7.119 -1.4363 -2.1367  0.4274
  117OSM    H8T12252   4.695   4.934   7.166 -0.7666  1.9916  0.8554
  117OSM    C9S12253   4.564   4.888   7.333  0.1198  0.4073  0.5108
  117OSM    H9S12254   4.469   4.835   7.355  1.1525 -0.7706  2.4492
  117OSM    H9T12255   4.537   4.994   7.351 -2.5429 -0.1575  0.2444
  117OSM   C10S12256   4.671   4.835   7.425  0.1219  0.1022 -0.9209
  117OSM   H10S12257   4.765   4.890   7.407  0.6908  0.3995  2.2552
  117OSM   H10T12258   4.685   4.727   7.405 -0.4147 -0.3336  0.8571
  117OSM   C11S12259   4.633   4.844   7.574 -0.2169 -0.1337 -0.5047
  117OSM   H11S12260   4.547   4.777   7.593 -0.4000  0.5178  1.1305
  117OSM   H11T12261   4.602   4.948   7.597 -2.1074 -0.4454 -1.4560
  117OSM   C12S12262   4.750   4.806   7.668  0.2240 -0.7767 -0.6405
  117OSM   H12S12263   4.835   4.862   7.625  0.7989 -1.4283 -0.3552
  117OSM   H12T12264   4.771   4.698   7.655 -1.7163 -1.2405 -0.2442
  117OSM   C13S12265   4.712   4.847   7.810  0.4623 -0.1397 -0.4773
  117OSM   H13S12266   4.635   4.774   7.840 -0.0694 -0.2154 -1.9772
  117OSM   H13T12267   4.650   4.939   7.815  0.4569 -0.1883  2.2811
  117OSM   C14S12268   4.817   4.848   7.925 -0.5369  0.6153 -0.0864
  117OSM   H14S12269   4.901   4.912   7.890 -0.5693  0.3509 -0.6590
  117OSM   H14T12270   4.842   4.740   7.938  0.6633  0.9595  0.6623
  117OSM   C15S12271   4.776   4.911   8.054 -0.9693 -0.2082  0.2220
  117OSM   H15S12272   4.700   4.841   8.095  0.6862 -1.1540  1.7933
  117OSM   H15T12273   4.742   5.017   8.046 -1.5970 -0.4730 -0.7997
  117OSM   C16S12274   4.888   4.914   8.158  0.2606  0.3842  0.5532
  117OSM   H16S12275   4.976   4.958   8.105  0.2030 -0.3042 -0.1252
  117OSM   H16T12276   4.911   4.811   8.192  0.1799 -0.2005 -1.0611
  117OSM   C17S12277   4.857   5.005   8.276  0.6283  0.1468 -0.4679
  117OSM   H17S12278   4.836   5.106   8.233 -0.9050 -0.1542 -0.4836
  117OSM   H17T12279   4.950   5.017   8.336 -0.4068  1.3766  0.9821
  117OSM   C18S12280   4.741   4.959   8.367 -0.5906 -0.3986 -0.1819
  117OSM   H18S12281   4.647   4.988   8.316  0.6856 -1.2201 -3.2463
  117OSM   H18T12282   4.753   5.012   8.464 -0.2443  1.6810 -1.2976
  117OSM   H18U12283   4.752   4.854   8.401 -2.9958  0.2477  3.0784
  117OSM    C1F12284   5.057   5.033   7.131 -0.4036 -0.0695  0.4581
  117OSM     OF12285   4.993   5.136   7.147 -0.4484 -0.5225 -0.1973
  117OSM    C2F12286   5.140   4.966   7.245  0.2909  0.6679 -0.2377
  117OSM    H2F12287   5.245   4.976   7.210  0.1360  1.5389 -0.4641
  117OSM    H2G12288   5.117   4.858   7.257  0.9393  0.5395 -0.1139
  117OSM    C3F12289   5.127   5.048   7.376  0.5584  0.4781  0.0734
  117OSM    H3F12290   5.021   5.049   7.407  0.3864 -0.2270 -0.4654
  117OSM    H3G12291   5.158   5.150   7.345 -0.0278  0.3222 -1.0792
  117OSM    C4F12292   5.205   4.992   7.484  0.1172 -0.0303 -0.1625
  117OSM    H4F12293   5.315   5.002   7.475 -0.2161  3.2691 -2.0558
  117OSM    H4G12294   5.167   4.891   7.510 -1.5481  0.7436  0.5861
  117OSM    C5F12295   5.165   5.061   7.617 -0.5181 -0.3333 -0.1037
  117OSM    H5F12296   5.056   5.047   7.630 -0.9751  1.1075 -1.9236
  117OSM    H5G12297   5.188   5.169   7.607 -3.5887  0.5970  1.6960
  117OSM    C6F12298   5.225   5.004   7.745 -0.3256  0.4399 -0.9071
  117OSM    H6F12299   5.336   5.005   7.740 -0.3131  1.9311 -0.7485
  117OSM    H6G12300   5.195   4.898   7.754  1.7649 -0.1950 -0.9440
  117OSM    C7F12301   5.199   5.092   7.874  0.7133 -0.4513  0.6047
  117OSM    H7F12302   5.088   5.092   7.873  0.6475  0.9197 -2.2898
  117OSM    H7G12303   5.238   5.194   7.858 -3.3628  1.3574  0.9760
  117OSM    C8F12304   5.281   5.042   7.991  0.5290  0.3999 -0.3996
  117OSM    H8F12305   5.266   5.114   8.074 -1.4344 -0.0903 -0.2778
  117OSM    H8G12306   5.388   5.029   7.965  1.2046 -0.5420  2.4729
  117OSM    C9F12307   5.252   4.898   8.047  0.2516 -0.5563  0.0696
  117OSM    H9F12308   5.215   4.838   7.962  1.2892  0.2407 -0.9841
  117OSM   C10F12309   5.268   4.859   8.173  0.0478  0.1965  0.2675
  117OSM   H10F12310   5.253   4.752   8.190  0.7738  0.2838  1.6132
  117OSM   C11F12311   5.326   4.938   8.291 -0.0557 -0.2065 -0.3008
  117OSM   H11F12312   5.376   5.031   8.257 -0.3631  0.2848  0.5545
  117OSM   H11G12313   5.402   4.872   8.338 -0.8053 -0.2681  0.8750
  117OSM   C12F12314   5.247   4.983   8.412 -0.0510  0.4244  0.1931
  117OSM   H12F12315   5.166   5.055   8.388  0.5188  0.9986 -0.0359
  117OSM   H12G12316   5.317   5.024   8.488 -0.2211  0.3419  0.3941
  117OSM   C13F12317   5.169   4.860   8.482  0.0610 -0.0059  0.6563
  117OSM   H13F12318   5.236   4.773   8.491  0.2600  0.1342  0.5415
  117OSM   H13G12319   5.094   4.825   8.408  0.4585 -2.3179  1.2888
  117OSM   C14F12320   5.092   4.890   8.608  0.2323 -0.0335 -0.5356
  117OSM   H14F12321   5.039   4.986   8.593  0.0591  0.0387  0.5215
  117OSM   H14G12322   5.162   4.910   8.692 -1.7951  0.5759  1.0911
  117OSM   C15F12323   4.986   4.782   8.645 -0.3334 -0.5200  0.3079
  117OSM   H15F12324   5.040   4.685   8.634  0.7848  0.1505 -0.4246
  117OSM   H15G12325   4.895   4.787   8.582 -1.2982  0.5317  1.7173
  117OSM   C16F12326   4.941   4.780   8.793 -0.4569 -0.0559 -0.1024
  117OSM   H16F12327   4.893   4.874   8.825  0.4971 -0.7328  3.8109
  117OSM   H16G12328   5.036   4.774   8.849  1.0628  1.7873 -2.2772
  117OSM   C17F12329   4.844   4.667   8.829  0.2023 -0.1298 -0.5473
  117OSM   H17F12330   4.747   4.675   8.776 -0.1724 -1.6853 -0.1388
  117OSM   H17G12331   4.905   4.578   8.804 -0.2398 -0.1124 -1.7243
  117OSM   C18F12332   4.814   4.665   8.982 -0.3195 -0.6151  0.3252
  117OSM   H18F12333   4.723   4.724   9.006  0.0753  0.1623 -0.0250
  117OSM   H18G12334   4.899   4.699   9.044  0.8736 -2.0212 -0.4699
  117OSM   H18H12335   4.799   4.562   9.020 -1.0786 -0.6359 -0.0195
  118OSM      N12336   5.561   6.562   6.020  0.4329  0.7081  0.3118
  118OSM    C1512337   5.700   6.597   5.980 -0.0629 -0.0648 -0.4826
  118OSM   H15A12338   5.777   6.566   6.049 -0.6052 -0.3483 -0.0006
  118OSM   H15B12339   5.716   6.698   5.946  0.8729 -0.5430 -1.5186
  118OSM   H15C12340   5.718   6.538   5.891  0.9490 -0.4649 -0.0219
  118OSM    C1412341   5.478   6.619   5.905 -0.5582  0.0710 -0.1545
  118OSM   H14A12342   5.383   6.569   5.894  0.0189 -1.5019  1.5511
  118OSM   H14B12343   5.531   6.598   5.814  1.2171  0.9641  0.6364
  118OSM   H14C12344   5.465   6.725   5.924 -1.6350 -0.6058  3.8383
  118OSM    C1312345   5.541   6.413   6.026  0.0901  0.0015 -0.7308
  118OSM   H13A12346   5.626   6.359   6.065 -0.2477 -1.1626 -1.5690
  118OSM   H13B12347   5.520   6.368   5.930 -3.5765  1.1100 -0.6004
  118OSM   H13C12348   5.453   6.391   6.086 -1.0836 -2.7268 -3.2175
  118OSM    C1212349   5.507   6.622   6.152 -0.3009  0.4941  0.8503
  118OSM   H12A12350   5.402   6.598   6.154 -0.3664  0.6917  0.1826
  118OSM   H12B12351   5.514   6.730   6.141  2.2576  0.5176  1.9563
  118OSM    C1112352   5.571   6.568   6.281 -0.1394  0.3404  0.3226
  118OSM   H11A12353   5.551   6.629   6.372  0.7203  0.9895  0.0969
  118OSM   H11B12354   5.682   6.576   6.270 -0.1507 -0.4252 -0.4265
  118OSM      P12355   5.403   6.404   6.365  0.3592  0.2424 -0.0497
  118OSM    O1312356   5.312   6.515   6.329  0.3311  0.4084  0.3220
  118OSM    O1412357   5.364   6.267   6.323  0.4021  0.2371 -0.2320
  118OSM    O1112358   5.430   6.417   6.519  0.1121  0.3960  0.2871
  118OSM    O1212359   5.539   6.429   6.308  0.0283 -0.4322  0.0727
  118OSM    C1S12360   5.460   6.297   6.595 -0.2752 -0.0686 -0.0883
  118OSM    H1S12361   5.556   6.255   6.558  0.4541  1.0768  0.4444
  118OSM    H1T12362   5.385   6.219   6.569 -2.2494  1.5481  0.5151
  118OSM     NF12363   5.517   6.214   6.817 -0.6653 -0.0036 -0.0115
  118OSM    HNF12364   5.459   6.158   6.875 -1.5247  1.9911  1.1579
  118OSM    C2S12365   5.458   6.330   6.745  0.6665  0.2612  0.2080
  118OSM    H2S12366   5.522   6.416   6.771 -0.3113  1.4852 -1.2439
  118OSM    C3S12367   5.311   6.369   6.787 -0.7492 -0.8917 -0.0061
  118OSM    H3S12368   5.240   6.285   6.768 -1.1173 -0.2493 -1.6688
  118OSM     O312369   5.269   6.489   6.726  0.0335 -0.5997 -0.1645
  118OSM    HO312370   5.322   6.486   6.646 -0.5421  1.7538 -0.7266
  118OSM    C4S12371   5.300   6.393   6.940 -0.5471  0.9229 -0.1998
  118OSM    H4S12372   5.242   6.314   6.991 -0.5325  1.3169  0.4280
  118OSM    C5S12373   5.353   6.494   7.007  0.6997  0.2161 -0.1134
  118OSM    H5S12374   5.416   6.567   6.955  1.5097 -0.1046  0.4007
  118OSM    C6S12375   5.338   6.504   7.161  0.5467  0.5938  1.1771
  118OSM    H6S12376   5.277   6.419   7.197  0.0523  0.0825 -0.7451
  118OSM    H6T12377   5.281   6.593   7.193  0.0322  0.4499  0.6780
  118OSM    C7S12378   5.470   6.501   7.228 -0.2203  0.8378 -0.9925
  118OSM    H7S12379   5.532   6.585   7.190  2.3883 -1.5393 -2.3946
  118OSM    H7T12380   5.524   6.414   7.186 -1.5880  0.9223 -3.0586
  118OSM    C8S12381   5.481   6.506   7.386  1.0604 -1.0262 -0.1156
  118OSM    H8S12382   5.577   6.553   7.416  0.9439  0.7031 -2.1740
  118OSM    H8T12383   5.478   6.402   7.424 -1.6056 -0.3810  1.7328
  118OSM    C9S12384   5.366   6.574   7.457  0.1819  0.2901  0.2331
  118OSM    H9S12385   5.273   6.529   7.417  0.9485 -0.3457 -0.9106
  118OSM    H9T12386   5.376   6.682   7.434 -1.1758  0.4491  0.3571
  118OSM   C10S12387   5.370   6.544   7.606 -0.2934 -0.0618 -0.1307
  118OSM   H10S12388   5.373   6.436   7.632 -0.7874 -0.2775 -0.9225
  118OSM   H10T12389   5.271   6.582   7.640 -2.2890 -2.2231 -2.9934
  118OSM   C11S12390   5.492   6.612   7.667 -0.0393 -0.6557  0.2673
  118OSM   H11S12391   5.517   6.710   7.622 -1.6872 -1.0467 -1.6540
  118OSM   H11T12392   5.577   6.541   7.654  0.5106  0.1425 -0.6113
  118OSM   C12S12393   5.464   6.648   7.822 -0.5031 -0.3652  0.4095
  118OSM   H12S12394   5.361   6.684   7.844 -0.2778 -0.0705  1.0000
  118OSM   H12T12395   5.541   6.721   7.854  0.2382 -1.0158  0.1271
  118OSM   C13S12396   5.474   6.526   7.913 -0.4859  0.0776 -0.0183
  118OSM   H13S12397   5.572   6.475   7.899 -0.4315 -0.0312  0.7164
  118OSM   H13T12398   5.392   6.453   7.894  0.5883 -0.9325 -0.9407
  118OSM   C14S12399   5.462   6.571   8.051  0.4489 -0.3636 -0.5299
  118OSM   H14S12400   5.427   6.483   8.109 -1.1052 -0.0711 -0.9698
  118OSM   H14T12401   5.380   6.646   8.056  0.1157 -0.4460 -3.3184
  118OSM   C15S12402   5.593   6.631   8.111 -0.0434  0.0405 -0.0974
  118OSM   H15S12403   5.629   6.714   8.045  0.2866  0.2837  0.3875
  118OSM   H15T12404   5.672   6.555   8.124  2.5920  2.6552  0.2304
  118OSM   C16S12405   5.574   6.684   8.248 -0.2465  0.0776  0.1018
  118OSM   H16S12406   5.579   6.605   8.326 -1.9154 -0.6308 -0.4659
  118OSM   H16T12407   5.473   6.728   8.260 -0.3726  1.0790 -3.4881
  118OSM   C17S12408   5.678   6.795   8.279 -0.4435 -0.2053 -0.1078
  118OSM   H17S12409   5.667   6.873   8.201  0.0844 -0.3228 -0.2983
  118OSM   H17T12410   5.774   6.744   8.259 -1.0226 -0.6462 -1.9919
  118OSM   C18S12411   5.688   6.845   8.423 -0.6274  0.4338  0.8443
  118OSM   H18S12412   5.589   6.886   8.453 -1.2639  0.0103 -0.6106
  118OSM   H18T12413   5.770   6.916   8.445  0.2884 -0.4310  0.2957
  118OSM   H18U12414   5.702   6.761   8.496 -1.5956 -0.1358  0.3971
  118OSM    C1F12415   5.644   6.178   6.802 -0.2471  0.2011  0.0217
  118OSM     OF12416   5.720   6.241   6.729  0.1522  0.1129 -0.6115
  118OSM    C2F12417   5.683   6.041   6.862  0.3643 -0.3048 -0.1601
  118OSM    H2F12418   5.658   5.961   6.790  0.9055 -0.3151 -0.3407
  118OSM    H2G12419   5.623   6.013   6.951  0.0821 -2.3849 -0.9432
  118OSM    C3F12420   5.826   6.030   6.893 -0.7652  1.0980 -0.3015
  118OSM    H3F12421   5.896   6.054   6.810  0.2847  3.0822  1.0702
  118OSM    H3G12422   5.851   5.930   6.933  0.9493  1.3072 -0.7732
  118OSM    C4F12423   5.873   6.128   7.002 -0.3099  0.4428 -0.5293
  118OSM    H4F12424   5.866   6.232   6.964  1.9448  1.4925  1.6158
  118OSM    H4G12425   5.984   6.123   7.010 -0.2056  2.3191 -0.3167
  118OSM    C5F12426   5.821   6.109   7.149  0.5003  0.3287 -0.0015
  118OSM    H5F12427   5.824   6.008   7.194 -0.1470  1.0140  1.6394
  118OSM    H5G12428   5.717   6.145   7.134 -1.4085 -3.8144  1.7165
  118OSM    C6F12429   5.883   6.202   7.257  0.7282 -0.3237 -0.0015
  118OSM    H6F12430   5.907   6.298   7.205 -0.2793  1.1255  2.0645
  118OSM    H6G12431   5.983   6.163   7.283  1.5075  0.9288 -0.9789
  118OSM    C7F12432   5.798   6.230   7.387 -0.4942 -1.1382 -0.1890
  118OSM    H7F12433   5.772   6.128   7.423  0.0991 -0.5570  2.0837
  118OSM    H7G12434   5.703   6.282   7.363 -0.2763  0.1744  1.5511
  118OSM    C8F12435   5.864   6.317   7.503 -0.2076  0.4846 -0.0201
  118OSM    H8F12436   5.888   6.424   7.483  0.4612  0.1409 -1.1386
  118OSM    H8G12437   5.960   6.265   7.519  0.3946  1.4504 -0.3793
  118OSM    C9F12438   5.780   6.313   7.626 -0.3796 -0.3544  0.7745
  118OSM    H9F12439   5.675   6.343   7.612  0.1478  1.5287  0.6059
  118OSM   C10F12440   5.817   6.279   7.746 -0.0825  0.0775  0.0827
  118OSM   H10F12441   5.747   6.293   7.830  0.1801 -0.3985  0.3839
  118OSM   C11F12442   5.951   6.225   7.808 -0.5253  0.1414  0.4571
  118OSM   H11F12443   6.018   6.197   7.724 -0.7949 -0.4900  0.4535
  118OSM   H11G12444   5.927   6.130   7.859 -1.1907 -0.4629 -0.9400
  118OSM   C12F12445   6.008   6.313   7.924 -0.5612 -0.2056  0.1200
  118OSM   H12F12446   5.936   6.333   8.006  0.2203  1.0920  0.5161
  118OSM   H12G12447   6.033   6.416   7.890  2.6038 -0.7544  0.4948
  118OSM   C13F12448   6.136   6.270   7.991 -1.0000  0.1814  0.3902
  118OSM   H13F12449   6.213   6.247   7.914 -0.2287  1.2816  0.7941
  118OSM   H13G12450   6.119   6.179   8.052 -0.6223  0.3552  0.7559
  118OSM   C14F12451   6.206   6.377   8.079  0.0472 -0.2931  0.0075
  118OSM   H14F12452   6.149   6.389   8.174 -0.2077  2.3599 -0.4090
  118OSM   H14G12453   6.207   6.476   8.029 -0.1202  1.3380  3.0298
  118OSM   C15F12454   6.352   6.341   8.120  0.0883 -0.0754  1.1319
  118OSM   H15F12455   6.385   6.412   8.199  0.0956  0.9960  0.1872
  118OSM   H15G12456   6.418   6.354   8.031  0.8420 -2.1198  1.3308
  118OSM   C16F12457   6.387   6.194   8.156 -0.4459  0.0958  0.1311
  118OSM   H16F12458   6.356   6.136   8.067 -1.0323  0.6280 -0.0188
  118OSM   H16G12459   6.317   6.163   8.236 -3.2638  0.8386 -1.8966
  118OSM   C17F12460   6.535   6.160   8.178 -0.0141  0.2665 -0.0321
  118OSM   H17F12461   6.578   6.212   8.266 -0.6764 -0.7065  0.8958
  118OSM   H17G12462   6.596   6.192   8.091 -0.7914  0.1539 -0.6320
  118OSM   C18F12463   6.556   6.010   8.191  0.2495 -0.3896  0.2472
  118OSM   H18F12464   6.665   5.988   8.185  0.5268  1.0077 -0.1915
  118OSM   H18G12465   6.499   5.969   8.105 -4.8065  2.9871  1.4993
  118OSM   H18H12466   6.519   5.972   8.289  0.4517  0.8843  0.8431
  119OSM      N12467   6.105   0.131   5.881 -0.2401 -0.1661  0.2124
  119OSM    C1512468   6.089   0.003   5.792  1.2609 -0.2230  0.7470
  119OSM   H15A12469   6.121   0.019   5.690 -0.6086 -2.1302 -0.2224
  119OSM   H15B12470   5.985  -0.023   5.791  1.4840 -1.1750  1.1759
  119OSM   H15C12471   6.145  -0.084   5.822  0.1510 -1.1691  0.1204
  119OSM    C1412472   6.242   0.189   5.856 -0.2173  0.0984 -0.1117
  119OSM   H14A12473   6.276   0.277   5.908  0.3584 -0.8286  1.1296
  119OSM   H14B12474   6.254   0.200   5.749  0.6229  1.7111  0.1129
  119OSM   H14C12475   6.313   0.113   5.885 -1.9579 -0.8426  1.9718
  119OSM    C1312476   6.012   0.240   5.825 -0.3961  0.1593 -0.0835
  119OSM   H13A12477   6.014   0.243   5.717  0.7574  0.7241 -0.0530
  119OSM   H13B12478   6.044   0.335   5.865  0.4707 -1.1328  2.4998
  119OSM   H13C12479   5.911   0.222   5.859  0.2624  0.2796  2.0446
  119OSM    C1212480   6.073   0.108   6.029 -0.0169  0.0240 -0.3723
  119OSM   H12A12481   5.971   0.072   6.032 -0.0046  0.0469  1.0565
  119OSM   H12B12482   6.088   0.201   6.083  2.1759 -1.2003  1.3149
  119OSM    C1112483   6.161   0.001   6.093 -0.5627 -0.6304  0.3140
  119OSM   H11A12484   6.137  -0.004   6.202  0.7483  3.6818  0.9908
  119OSM   H11B12485   6.266   0.036   6.099 -1.7350  3.0273  2.4217
  119OSM      P12486   6.256  -0.232   6.041  0.1921 -0.5056 -0.1640
  119OSM    O1312487   6.204  -0.370   6.020  0.0931  0.2360  0.2920
  119OSM    O1412488   6.363  -0.185   5.955  0.4533 -0.4674  0.4837
  119OSM    O1112489   6.307  -0.217   6.184 -0.0667 -0.1197 -0.0352
  119OSM    O1212490   6.137  -0.127   6.036  0.4520  0.0777 -0.1249
  119OSM    C1S12491   6.236  -0.264   6.298 -0.1617 -0.3863 -0.4433
  119OSM    H1S12492   6.207  -0.371   6.290 -0.6515 -0.1454 -2.3817
  119OSM    H1T12493   6.141  -0.214   6.327 -0.7059 -1.3475 -0.5497
  119OSM     NF12494   6.244  -0.305   6.537 -0.1423 -0.5051 -0.2003
  119OSM    HNF12495   6.190  -0.247   6.597  0.5181 -1.2029  1.1040
  119OSM    C2S12496   6.319  -0.243   6.432 -0.1799  0.1307 -0.2481
  119OSM    H2S12497   6.421  -0.286   6.424 -0.3091  0.1339 -2.5369
  119OSM    C3S12498   6.348  -0.090   6.451  0.3468  0.1653 -0.0138
  119OSM    H3S12499   6.259  -0.028   6.428 -1.3941 -2.6423 -1.3040
  119OSM     O312500   6.453  -0.052   6.360  0.5175 -0.4860  0.5817
  119OSM    HO312501   6.420  -0.095   6.281 -0.0092 -1.3329  1.2396
  119OSM    C4S12502   6.392  -0.049   6.587  0.3461 -0.6472  0.7854
  119OSM    H4S12503   6.314  -0.002   6.649 -0.8453 -2.6454  0.8742
  119OSM    C5S12504   6.510  -0.073   6.652 -0.0759 -0.9067 -0.2391
  119OSM    H5S12505   6.589  -0.137   6.611 -0.5280 -0.5242 -1.7418
  119OSM    C6S12506   6.548  -0.020   6.791 -0.3199 -0.3440 -0.4318
  119OSM    H6S12507   6.631   0.054   6.783  0.1893 -1.0807 -2.7387
  119OSM    H6T12508   6.593  -0.104   6.848  1.8682 -0.1257 -1.7516
  119OSM    C7S12509   6.447   0.060   6.882 -0.1832 -0.0876 -0.0506
  119OSM    H7S12510   6.370  -0.009   6.923 -1.2292  0.4794 -0.9875
  119OSM    H7T12511   6.391   0.141   6.831 -0.5076  1.0081  1.9497
  119OSM    C8S12512   6.526   0.121   7.002 -0.0273 -0.3702  0.0887
  119OSM    H8S12513   6.592   0.203   6.966  0.2508 -1.0617 -1.0114
  119OSM    H8T12514   6.583   0.050   7.066  0.5131  1.1064  1.3008
  119OSM    C9S12515   6.418   0.190   7.096 -0.0134  0.2060 -1.2446
  119OSM    H9S12516   6.349   0.244   7.028 -1.4180  0.0492 -0.0040
  119OSM    H9T12517   6.465   0.268   7.160 -1.4304  0.4454 -0.4645
  119OSM   C10S12518   6.336   0.098   7.184  0.6814 -0.3862 -0.1333
  119OSM   H10S12519   6.401   0.036   7.249  0.9466 -0.1572 -0.1740
  119OSM   H10T12520   6.276   0.023   7.128  1.0786 -0.8659  0.0772
  119OSM   C11S12521   6.223   0.165   7.275 -0.1809 -0.1748  0.5329
  119OSM   H11S12522   6.188   0.087   7.347 -0.1528 -0.6555  0.0360
  119OSM   H11T12523   6.145   0.206   7.208 -0.6452 -0.4362  0.9057
  119OSM   C12S12524   6.290   0.263   7.373 -0.5294 -0.3211 -0.0998
  119OSM   H12S12525   6.312   0.359   7.322  0.3985 -0.2193  0.4626
  119OSM   H12T12526   6.386   0.214   7.402  0.5050  2.2129  1.0699
  119OSM   C13S12527   6.214   0.281   7.504  0.0764 -0.2784  0.5816
  119OSM   H13S12528   6.226   0.189   7.564  0.2866  0.9067  2.4245
  119OSM   H13T12529   6.107   0.292   7.478  0.3557  0.0340 -0.5117
  119OSM   C14S12530   6.257   0.396   7.589 -0.1349 -0.4491 -0.6648
  119OSM   H14S12531   6.261   0.492   7.534  1.2911  0.4528  0.8876
  119OSM   H14T12532   6.361   0.378   7.625 -0.9624 -1.2298  1.5151
  119OSM   C15S12533   6.170   0.420   7.712  0.2547 -0.0749 -0.3651
  119OSM   H15S12534   6.139   0.323   7.754 -1.3174  1.3044  1.8971
  119OSM   H15T12535   6.067   0.451   7.686  0.1849 -1.1860 -1.4847
  119OSM   C16S12536   6.224   0.508   7.826  0.0278 -0.2644  0.2007
  119OSM   H16S12537   6.227   0.617   7.805 -3.3882  0.3007  1.9787
  119OSM   H16T12538   6.328   0.474   7.846  0.6801  2.0547  1.0430
  119OSM   C17S12539   6.142   0.506   7.954 -0.7325  0.3650  0.1024
  119OSM   H17S12540   6.128   0.403   7.994 -1.5469  1.5281  3.0110
  119OSM   H17T12541   6.041   0.546   7.932 -0.5051 -0.3430 -2.6002
  119OSM   C18S12542   6.197   0.603   8.067 -0.8141 -0.5642 -0.2062
  119OSM   H18S12543   6.130   0.603   8.155  1.0156  0.6237  1.2693
  119OSM   H18T12544   6.203   0.708   8.033  1.7384 -0.0695  1.4580
  119OSM   H18U12545   6.299   0.562   8.086 -0.6053 -0.0043 -0.1072
  119OSM    C1F12546   6.244  -0.434   6.553  0.3322  0.2347  0.3677
  119OSM     OF12547   6.294  -0.508   6.473 -0.1397  0.0068  0.7908
  119OSM    C2F12548   6.159  -0.481   6.667  0.1419  0.0619 -0.7989
  119OSM    H2F12549   6.089  -0.557   6.626 -0.2734  0.7948 -1.4902
  119OSM    H2G12550   6.093  -0.400   6.706  2.4304  0.6545  2.2217
  119OSM    C3F12551   6.235  -0.549   6.782 -0.4929  0.6872  0.1644
  119OSM    H3F12552   6.287  -0.633   6.731  1.2957  0.7742  1.7448
  119OSM    H3G12553   6.153  -0.590   6.845  0.6506 -0.5441  0.8995
  119OSM    C4F12554   6.332  -0.454   6.862 -0.7095  0.5824  0.4209
  119OSM    H4F12555   6.415  -0.434   6.791  0.9662 -2.5973  1.3122
  119OSM    H4G12556   6.390  -0.509   6.939  1.7392  0.4424 -1.4083
  119OSM    C5F12557   6.271  -0.327   6.933 -0.8724 -0.4425 -0.0356
  119OSM    H5F12558   6.179  -0.370   6.979  0.5888 -1.1748  2.3852
  119OSM    H5G12559   6.242  -0.255   6.854 -0.1795  1.1752  1.1297
  119OSM    C6F12560   6.357  -0.277   7.042  0.2125 -0.3625  0.2296
  119OSM    H6F12561   6.311  -0.182   7.077  0.5935  1.6284 -4.0064
  119OSM    H6G12562   6.460  -0.248   7.012  0.6711  0.0757  2.0866
  119OSM    C7F12563   6.354  -0.366   7.173  0.2767 -0.5173  0.8503
  119OSM    H7F12564   6.401  -0.466   7.161  1.7193  0.2916 -0.7708
  119OSM    H7G12565   6.249  -0.373   7.208  0.4200  0.7754  1.5931
  119OSM    C8F12566   6.429  -0.289   7.287 -0.1988  0.2087  0.4310
  119OSM    H8F12567   6.390  -0.185   7.286  1.8139  1.0277 -1.0846
  119OSM    H8G12568   6.538  -0.277   7.266  0.6314  0.3698  4.0954
  119OSM    C9F12569   6.409  -0.344   7.424 -0.2953  0.8822 -0.4440
  119OSM    H9F12570   6.414  -0.453   7.442  0.7110  0.9952  0.0706
  119OSM   C10F12571   6.381  -0.265   7.535  0.3221  0.2300  0.1054
  119OSM   H10F12572   6.370  -0.315   7.633 -0.9967 -0.0363 -0.1513
  119OSM   C11F12573   6.366  -0.122   7.540 -0.0021 -0.1664 -0.2072
  119OSM   H11F12574   6.259  -0.097   7.524 -0.0426 -0.2764 -0.1088
  119OSM   H11G12575   6.430  -0.077   7.461  2.2616 -2.1890  0.3774
  119OSM   C12F12576   6.427  -0.055   7.664  0.3752 -0.1937 -0.0246
  119OSM   H12F12577   6.457   0.045   7.629  3.4966 -0.7720  0.7602
  119OSM   H12G12578   6.521  -0.111   7.684  0.0128 -0.2880  1.5452
  119OSM   C13F12579   6.344  -0.078   7.793  0.2576 -0.2989 -0.4626
  119OSM   H13F12580   6.267  -0.158   7.797  0.0137 -0.0517  2.2831
  119OSM   H13G12581   6.280   0.010   7.818  0.6903 -0.4647  1.4041
  119OSM   C14F12582   6.437  -0.099   7.915  0.4062 -0.2643 -0.1042
  119OSM   H14F12583   6.500  -0.189   7.897 -1.1772 -1.5799  0.6553
  119OSM   H14G12584   6.381  -0.133   8.004 -0.9397 -0.3156 -0.9435
  119OSM   C15F12585   6.527   0.023   7.955  0.0138 -0.5351 -0.8656
  119OSM   H15F12586   6.572   0.070   7.865  0.5073 -1.4841 -1.1282
  119OSM   H15G12587   6.599  -0.014   8.031 -0.6751  0.5407  0.3576
  119OSM   C16F12588   6.446   0.134   8.019  0.1909  0.0263  0.8105
  119OSM   H16F12589   6.383   0.089   8.098 -0.8262 -1.2409 -0.6498
  119OSM   H16G12590   6.369   0.168   7.946 -0.6884  0.5422  1.9437
  119OSM   C17F12591   6.524   0.262   8.058  0.1873  0.1661  0.1786
  119OSM   H17F12592   6.454   0.345   8.079  2.8102  2.7957 -0.7736
  119OSM   H17G12593   6.572   0.300   7.965 -0.6525  1.5788  0.2845
  119OSM   C18F12594   6.607   0.241   8.187  0.4086 -0.0007  0.0047
  119OSM   H18F12595   6.555   0.190   8.271 -0.6992  0.6904 -0.2389
  119OSM   H18G12596   6.645   0.338   8.226  1.0890 -0.4166  0.3883
  119OSM   H18H12597   6.691   0.173   8.161 -0.2081 -0.2269 -1.4713
  120OSM      N12598   6.002   4.111   6.271 -0.3399 -0.1232 -0.5501
  120OSM    C1512599   6.130   4.059   6.214 -0.3055 -0.2250 -0.1885
  120OSM   H15A12600   6.115   3.955   6.189 -0.3393  0.2426 -2.3543
  120OSM   H15B12601   6.213   4.091   6.275 -0.3544 -1.0762  0.3255
  120OSM   H15C12602   6.152   4.108   6.120  0.1944 -0.2931 -0.1089
  120OSM    C1412603   6.027   4.262   6.304  0.3743 -0.0811  0.4514
  120OSM   H14A12604   6.091   4.277   6.389  0.3508 -0.7038  0.5839
  120OSM   H14B12605   5.938   4.315   6.333  0.1804 -1.5726  2.9024
  120OSM   H14C12606   6.077   4.310   6.221 -1.3213  0.3208 -0.3765
  120OSM    C1312607   5.895   4.109   6.168  0.0385 -0.2131  0.5102
  120OSM   H13A12608   5.933   4.145   6.074  0.4981 -1.7137  0.0841
  120OSM   H13B12609   5.811   4.172   6.195  0.0998 -0.2995  0.9195
  120OSM   H13C12610   5.853   4.010   6.162  1.8009 -0.9926  0.3362
  120OSM    C1212611   5.952   4.038   6.400 -0.3438 -0.2872  0.3785
  120OSM   H12A12612   5.854   4.077   6.424 -0.7384 -0.7292 -0.4649
  120OSM   H12B12613   6.015   4.061   6.484 -0.4963 -3.1196  1.3633
  120OSM    C1112614   5.948   3.882   6.397 -0.3221 -0.0910 -0.2074
  120OSM   H11A12615   5.944   3.853   6.504 -0.4856  2.4720  0.5650
  120OSM   H11B12616   6.046   3.848   6.357 -0.0145 -0.4216  0.8026
  120OSM      P12617   5.689   3.815   6.381  0.3158 -0.3201  0.4231
  120OSM    O1312618   5.610   3.939   6.352 -0.5603  0.8894 -0.3702
  120OSM    O1412619   5.642   3.685   6.332 -0.5366 -0.0019  0.1591
  120OSM    O1112620   5.710   3.826   6.540 -0.2780  1.1206  0.5404
  120OSM    O1212621   5.836   3.828   6.323 -0.1513  0.1522  0.2167
  120OSM    C1S12622   5.670   3.708   6.612  0.0397 -0.4965  0.2059
  120OSM    H1S12623   5.758   3.640   6.612 -0.4493 -1.1526 -0.5839
  120OSM    H1T12624   5.582   3.657   6.568 -1.3946  2.2175 -0.3108
  120OSM     NF12625   5.623   3.639   6.853  0.4044 -0.8412 -0.5057
  120OSM    HNF12626   5.531   3.618   6.885 -0.0464 -0.9196 -1.7665
  120OSM    C2S12627   5.647   3.758   6.763  0.8949  0.2545  1.2058
  120OSM    H2S12628   5.742   3.801   6.801  2.4371 -0.9809 -1.0069
  120OSM    C3S12629   5.532   3.871   6.764  0.2548 -0.0923 -0.4171
  120OSM    H3S12630   5.439   3.831   6.719 -0.6322  0.3425  0.9608
  120OSM     O312631   5.564   3.983   6.679 -0.2418  0.0432 -0.0957
  120OSM    HO312632   5.645   3.957   6.635  0.0492 -0.0545  0.4896
  120OSM    C4S12633   5.515   3.919   6.898 -0.4210  0.2029  0.9716
  120OSM    H4S12634   5.433   3.867   6.950 -2.2534 -1.1987 -2.8976
  120OSM    C5S12635   5.601   3.997   6.961  0.5104  0.4928 -0.1098
  120OSM    H5S12636   5.693   4.025   6.907  0.4799 -0.2298 -0.5520
  120OSM    C6S12637   5.584   4.037   7.106 -0.0393  0.9770  0.2826
  120OSM    H6S12638   5.677   4.081   7.147 -0.9757 -0.0318  3.9197
  120OSM    H6T12639   5.562   3.949   7.171  0.6655  0.0848 -0.6488
  120OSM    C7S12640   5.474   4.138   7.116  0.2725  0.3133  0.1026
  120OSM    H7S12641   5.379   4.080   7.114 -1.0604  2.4232 -0.9878
  120OSM    H7T12642   5.468   4.212   7.034 -2.9331 -1.2927 -1.2942
  120OSM    C8S12643   5.485   4.219   7.246  0.3040  0.4310 -0.6028
  120OSM    H8S12644   5.417   4.306   7.233  1.5371  1.6891  0.9310
  120OSM    H8T12645   5.579   4.276   7.263  0.6431 -0.7483  2.0316
  120OSM    C9S12646   5.446   4.141   7.377  0.1301  0.3278 -0.1391
  120OSM    H9S12647   5.523   4.061   7.385 -0.0238 -0.1669 -2.6243
  120OSM    H9T12648   5.350   4.087   7.368 -0.0942  0.8456 -1.0576
  120OSM   C10S12649   5.445   4.240   7.494  0.5347  0.3324 -1.4577
  120OSM   H10S12650   5.369   4.318   7.473 -0.2853 -0.0626 -0.1245
  120OSM   H10T12651   5.548   4.280   7.503  0.4698  0.1102  1.3561
  120OSM   C11S12652   5.435   4.170   7.633 -0.1776 -0.3739 -0.3690
  120OSM   H11S12653   5.457   4.252   7.705  1.0017 -1.1233  0.1526
  120OSM   H11T12654   5.513   4.092   7.649  0.6087  0.6782  1.3219
  120OSM   C12S12655   5.298   4.110   7.664 -0.1418  0.9517  0.1621
  120OSM   H12S12656   5.278   4.037   7.583 -2.3445 -0.0980  1.5438
  120OSM   H12T12657   5.210   4.177   7.663  0.1808  1.3909  0.6987
  120OSM   C13S12658   5.297   4.029   7.798 -0.1492  0.2008  0.0605
  120OSM   H13S12659   5.372   3.947   7.789  0.3288  0.5135  1.1114
  120OSM   H13T12660   5.201   3.975   7.809  1.0120 -1.7726  1.0822
  120OSM   C14S12661   5.309   4.108   7.927  0.0236 -0.4639 -1.0014
  120OSM   H14S12662   5.267   4.211   7.925  0.5989 -0.1953  0.1398
  120OSM   H14T12663   5.420   4.115   7.930  0.2207 -2.8175 -1.0900
  120OSM   C15S12664   5.244   4.049   8.052  0.0235 -0.2001  0.5521
  120OSM   H15S12665   5.301   3.959   8.080  0.1824  0.2738  1.8393
  120OSM   H15T12666   5.144   4.013   8.019  0.5255 -1.4880  0.3917
  120OSM   C16S12667   5.224   4.146   8.171  0.3886  0.4612 -0.1720
  120OSM   H16S12668   5.167   4.235   8.136  0.0822 -0.2103 -1.4345
  120OSM   H16T12669   5.325   4.185   8.199  0.5454 -1.1658  1.7856
  120OSM   C17S12670   5.150   4.077   8.289 -0.4039  0.4163  0.0028
  120OSM   H17S12671   5.151   4.148   8.374  1.5442  0.3232  0.1064
  120OSM   H17T12672   5.213   3.993   8.326 -1.5879 -1.3106 -1.7058
  120OSM   C18S12673   5.007   4.031   8.261 -0.6041 -0.5518  0.0569
  120OSM   H18S12674   4.932   4.112   8.252  0.7374  0.7097 -0.2504
  120OSM   H18T12675   4.971   3.964   8.342  0.6641 -0.6071  0.6067
  120OSM   H18U12676   5.003   3.967   8.170  2.7518 -0.2165 -0.4668
  120OSM    C1F12677   5.718   3.554   6.882  0.1808  0.1393 -0.0343
  120OSM     OF12678   5.825   3.559   6.826  0.2025 -0.5921  0.0983
  120OSM    C2F12679   5.688   3.447   6.986 -0.6285 -0.1193 -0.2814
  120OSM    H2F12680   5.709   3.346   6.945  0.5314  0.1203 -0.3180
  120OSM    H2G12681   5.584   3.447   7.024 -0.1887  1.1979  1.0436
  120OSM    C3F12682   5.788   3.468   7.106 -0.2414 -0.0954 -0.9243
  120OSM    H3F12683   5.892   3.460   7.069 -0.3001 -2.0374 -0.7943
  120OSM    H3G12684   5.775   3.386   7.180  0.9256 -1.3670 -2.0619
  120OSM    C4F12685   5.763   3.609   7.165  0.0986 -0.2701 -0.4640
  120OSM    H4F12686   5.654   3.603   7.188  0.3841 -1.1591  0.7146
  120OSM    H4G12687   5.789   3.688   7.091  0.4771 -0.9955 -1.1187
  120OSM    C5F12688   5.847   3.645   7.289  0.2836  0.0819 -1.2133
  120OSM    H5F12689   5.790   3.733   7.326 -0.1031 -0.7129  0.1534
  120OSM    H5G12690   5.948   3.683   7.265  2.1524 -2.1324  2.3098
  120OSM    C6F12691   5.830   3.563   7.417  0.2408 -0.1980 -0.4738
  120OSM    H6F12692   5.862   3.457   7.401 -0.3041 -0.7025  1.5365
  120OSM    H6G12693   5.721   3.563   7.439 -0.1772  1.6351 -2.2578
  120OSM    C7F12694   5.909   3.618   7.540  0.2369 -0.3224  0.3028
  120OSM    H7F12695   5.884   3.727   7.541 -0.7695 -0.5174 -0.9230
  120OSM    H7G12696   6.018   3.614   7.522 -0.0010  2.7735 -3.0886
  120OSM    C8F12697   5.860   3.560   7.674 -0.0974  0.3092 -0.3243
  120OSM    H8F12698   5.902   3.459   7.694 -2.8830 -0.5416  1.7848
  120OSM    H8G12699   5.750   3.547   7.667 -0.0958  0.5017 -0.7316
  120OSM    C9F12700   5.897   3.648   7.792  0.4199 -0.6811 -0.6155
  120OSM    H9F12701   6.004   3.665   7.811  0.1482  0.0653  0.3588
  120OSM   C10F12702   5.815   3.731   7.862  0.5550  0.2737 -0.6385
  120OSM   H10F12703   5.857   3.785   7.947 -0.4535  0.2652 -0.1305
  120OSM   C11F12704   5.668   3.748   7.852  0.9937  0.1369 -0.6877
  120OSM   H11F12705   5.616   3.660   7.808  0.0199 -0.4380  1.4770
  120OSM   H11G12706   5.653   3.817   7.766  0.8471  1.9197  0.6911
  120OSM   C12F12707   5.589   3.786   7.981  0.2424 -0.0308  0.0420
  120OSM   H12F12708   5.492   3.837   7.968  0.8593  1.5946  1.3993
  120OSM   H12G12709   5.655   3.851   8.043  1.6945 -0.9296 -0.5071
  120OSM   C13F12710   5.558   3.670   8.082 -0.4431 -0.3451  0.4648
  120OSM   H13F12711   5.651   3.611   8.091 -1.5360 -2.5144 -1.3414
  120OSM   H13G12712   5.479   3.609   8.034 -0.4059 -0.3375  0.3922
  120OSM   C14F12713   5.503   3.722   8.219  0.6340 -0.6938 -0.1957
  120OSM   H14F12714   5.419   3.793   8.208 -0.0152 -1.4171 -0.0009
  120OSM   H14G12715   5.588   3.774   8.270  1.2622 -1.7641 -0.1196
  120OSM   C15F12716   5.459   3.606   8.306  0.1139 -0.0384 -0.2081
  120OSM   H15F12717   5.550   3.546   8.324  0.8400  0.5889 -1.5938
  120OSM   H15G12718   5.378   3.553   8.251 -1.4292  1.5071  0.4607
  120OSM   C16F12719   5.399   3.658   8.438  0.1284 -0.2660  0.2470
  120OSM   H16F12720   5.305   3.717   8.424  0.6964  0.3509 -1.1212
  120OSM   H16G12721   5.484   3.717   8.480  0.9176 -0.7446 -0.6521
  120OSM   C17F12722   5.377   3.539   8.532 -0.1368  0.2527 -0.1648
  120OSM   H17F12723   5.456   3.462   8.538  0.2242  0.7021  1.2279
  120OSM   H17G12724   5.283   3.501   8.486 -0.9246  0.6364  1.0802
  120OSM   C18F12725   5.344   3.585   8.675  0.2293  0.4057 -0.3070
  120OSM   H18F12726   5.281   3.676   8.681  1.4969  1.2629  0.4967
  120OSM   H18G12727   5.441   3.613   8.721 -0.1931 -0.6780  1.3171
  120OSM   H18H12728   5.320   3.492   8.730  2.8315  0.3897  0.9530
  121OSM      N12729   1.484   4.954   6.072 -0.4821 -0.1084  0.1658
  121OSM    C1512730   1.625   4.910   6.073  0.3557  0.6175  0.0083
  121OSM   H15A12731   1.630   4.804   6.095 -0.7023  0.5699  0.0654
  121OSM   H15B12732   1.690   4.954   6.147 -0.0087  0.8177  0.2087
  121OSM   H15C12733   1.674   4.931   5.979 -0.8186 -0.9637 -1.0080
  121OSM    C1412734   1.478   5.104   6.053 -0.0249 -0.3220  0.7803
  121OSM   H14A12735   1.495   5.148   5.956  1.2976  0.0243  1.1551
  121OSM   H14B12736   1.547   5.143   6.127 -0.2154 -0.9485  1.2947
  121OSM   H14C12737   1.383   5.142   6.088  0.7720  1.2521  1.3416
  121OSM    C1312738   1.414   4.887   5.959 -0.5945 -0.2059 -0.1365
  121OSM   H13A12739   1.422   4.781   5.976 -2.0258 -0.2491  0.3875
  121OSM   H13B12740   1.453   4.907   5.860 -0.6078  0.0387 -0.0934
  121OSM   H13C12741   1.307   4.896   5.961 -0.6728 -0.8411 -0.9827
  121OSM    C1212742   1.411   4.919   6.205  0.2182  0.0713  0.1856
  121OSM   H12A12743   1.418   4.812   6.216  1.2482  0.2181  1.1862
  121OSM   H12B12744   1.306   4.940   6.194  0.5592  1.5715 -0.5672
  121OSM    C1112745   1.451   4.981   6.341  0.1024  0.1032 -0.4136
  121OSM   H11A12746   1.562   4.981   6.343  0.1086  1.3571 -0.1888
  121OSM   H11B12747   1.409   4.919   6.423 -0.1451  1.0255  0.1723
  121OSM      P12748   1.246   5.144   6.371  0.1688 -0.2964 -0.2661
  121OSM    O1312749   1.222   5.271   6.431  0.5172 -0.2757 -0.0539
  121OSM    O1412750   1.177   5.129   6.246 -0.0271  0.3959  0.3007
  121OSM    O1112751   1.203   5.029   6.471  0.1266 -0.1555  0.4647
  121OSM    O1212752   1.400   5.117   6.357  0.1856 -0.5000  0.6413
  121OSM    C1S12753   1.247   5.050   6.609  0.1327  0.5091  0.1049
  121OSM    H1S12754   1.184   5.134   6.643 -1.2015 -0.2005 -0.5316
  121OSM    H1T12755   1.355   5.076   6.621  0.3850 -0.7265  0.7880
  121OSM     NF12756   1.277   4.951   6.831 -0.2150  0.3401  0.2440
  121OSM    HNF12757   1.355   4.894   6.857 -0.1065  0.1975 -0.3889
  121OSM    C2S12758   1.220   4.928   6.699 -0.2705 -0.6859 -0.3009
  121OSM    H2S12759   1.112   4.925   6.727  0.3924 -0.1084  2.7256
  121OSM    C3S12760   1.246   4.794   6.635  0.1461 -0.1202 -0.1977
  121OSM    H3S12761   1.353   4.774   6.612 -0.3622 -1.2327 -1.8237
  121OSM     O312762   1.171   4.762   6.517 -0.1469  0.1397  0.1616
  121OSM    HO312763   1.118   4.836   6.486 -0.5095  1.3169  3.2313
  121OSM    C4S12764   1.200   4.691   6.735  0.1500 -0.6100 -0.1879
  121OSM    H4S12765   1.096   4.696   6.769  0.1083  1.3849 -0.4752
  121OSM    C5S12766   1.277   4.599   6.792 -0.0163 -0.3384 -0.3724
  121OSM    H5S12767   1.383   4.604   6.765  0.0896 -0.5527 -0.0055
  121OSM    C6S12768   1.240   4.502   6.900  0.4067  0.7277 -0.6254
  121OSM    H6S12769   1.304   4.497   6.991  1.0773 -0.7170 -1.1537
  121OSM    H6T12770   1.256   4.401   6.858 -1.1318  0.6780 -1.1385
  121OSM    C7S12771   1.096   4.514   6.952  0.3510  0.2767  0.0935
  121OSM    H7S12772   1.036   4.468   6.871  0.9896 -1.0105  0.3201
  121OSM    H7T12773   1.065   4.619   6.970  1.8477  1.1979 -2.2657
  121OSM    C8S12774   1.072   4.434   7.083 -0.2739  0.2801  0.0589
  121OSM    H8S12775   1.101   4.332   7.052 -0.8355  0.4724 -1.1694
  121OSM    H8T12776   0.962   4.437   7.101 -0.2544 -0.5446  0.3462
  121OSM    C9S12777   1.148   4.483   7.210 -0.1827 -0.3343 -0.1585
  121OSM    H9S12778   1.135   4.594   7.207 -0.6103 -0.3923 -0.4166
  121OSM    H9T12779   1.256   4.460   7.223  0.0004  0.8688  0.6619
  121OSM   C10S12780   1.080   4.431   7.339  0.4869 -0.8730  0.5426
  121OSM   H10S12781   1.086   4.320   7.338 -0.4863 -0.9424 -0.7907
  121OSM   H10T12782   0.973   4.461   7.339  0.0405 -2.2036  2.7042
  121OSM   C11S12783   1.138   4.487   7.469  0.2959  0.5744  0.2233
  121OSM   H11S12784   1.149   4.595   7.443  2.1904 -0.2673 -3.0058
  121OSM   H11T12785   1.237   4.442   7.489 -0.3398 -0.9913  0.0487
  121OSM   C12S12786   1.049   4.494   7.598 -0.0382  0.4953  0.5664
  121OSM   H12S12787   1.069   4.398   7.649  0.2753 -0.3662 -1.1024
  121OSM   H12T12788   0.943   4.525   7.580  0.0287  0.9301  0.8979
  121OSM   C13S12789   1.110   4.600   7.696 -0.0492  0.4920 -0.2688
  121OSM   H13S12790   1.085   4.701   7.656  1.2086  0.4614 -1.1690
  121OSM   H13T12791   1.219   4.587   7.686 -0.2725 -1.6702 -0.2766
  121OSM   C14S12792   1.057   4.600   7.845 -0.4771 -0.1319 -0.5427
  121OSM   H14S12793   0.952   4.639   7.846  0.4627  2.6273  0.6756
  121OSM   H14T12794   1.104   4.686   7.897  0.1811 -1.3247  0.9234
  121OSM   C15S12795   1.094   4.473   7.927  0.1920 -0.1798  0.3469
  121OSM   H15S12796   1.203   4.471   7.948  0.1996  1.0761  0.4700
  121OSM   H15T12797   1.102   4.381   7.865  0.9429  0.3894 -0.4126
  121OSM   C16S12798   1.019   4.461   8.062 -0.0612  0.1116 -0.6442
  121OSM   H16S12799   0.912   4.492   8.072  0.2328  1.8064 -2.2153
  121OSM   H16T12800   1.064   4.535   8.131 -3.0757 -0.6678  2.4737
  121OSM   C17S12801   1.072   4.332   8.132 -0.5828 -0.1905 -0.7650
  121OSM   H17S12802   1.179   4.320   8.104 -0.5351  0.1279 -0.7257
  121OSM   H17T12803   1.021   4.249   8.079  0.1115 -0.7549 -0.5550
  121OSM   C18S12804   1.064   4.317   8.283  0.4081 -0.1489 -0.4457
  121OSM   H18S12805   1.131   4.235   8.317 -0.2294 -0.6057 -0.2495
  121OSM   H18T12806   0.961   4.283   8.309  1.2226 -2.2058  0.3006
  121OSM   H18U12807   1.091   4.415   8.327 -0.2823  0.2816 -0.9544
  121OSM    C1F12808   1.244   5.057   6.907 -0.0517 -0.3426  0.1152
  121OSM     OF12809   1.139   5.122   6.883 -0.3217 -0.1627  0.4036
  121OSM    C2F12810   1.342   5.110   7.011  0.1781  0.4906  0.0454
  121OSM    H2F12811   1.437   5.055   6.999 -0.4536 -1.0526  1.6556
  121OSM    H2G12812   1.305   5.088   7.114 -1.0799 -0.6046 -0.6125
  121OSM    C3F12813   1.345   5.259   7.008  0.3303 -0.4090 -0.5847
  121OSM    H3F12814   1.243   5.303   7.005  0.9252  1.2531  1.2597
  121OSM    H3G12815   1.407   5.282   6.918  2.3604 -1.3977  0.4856
  121OSM    C4F12816   1.414   5.329   7.122 -0.1847 -0.0981  0.0158
  121OSM    H4F12817   1.453   5.428   7.088 -0.4997  0.1477  0.3693
  121OSM    H4G12818   1.500   5.268   7.157 -0.2168  1.1387  2.4973
  121OSM    C5F12819   1.331   5.361   7.247 -0.1507 -0.5627 -0.6582
  121OSM    H5F12820   1.318   5.268   7.306  1.0600 -0.5829 -0.4077
  121OSM    H5G12821   1.232   5.402   7.217 -0.3878  0.8521  1.7262
  121OSM    C6F12822   1.406   5.455   7.337 -0.1338 -0.7660  0.3868
  121OSM    H6F12823   1.416   5.556   7.291  0.3606 -0.6946  0.6346
  121OSM    H6G12824   1.508   5.413   7.353  0.7766  2.0294  2.8614
  121OSM    C7F12825   1.341   5.448   7.479  0.2981  0.1004 -0.2826
  121OSM    H7F12826   1.340   5.343   7.513  1.1676 -0.1293 -0.9227
  121OSM    H7G12827   1.238   5.482   7.454 -0.0072 -0.1579  0.6162
  121OSM    C8F12828   1.417   5.551   7.573 -0.3021  0.3956  0.1131
  121OSM    H8F12829   1.412   5.649   7.522 -0.5461  0.9169  1.0977
  121OSM    H8G12830   1.523   5.528   7.595 -0.3626  0.8318  0.9143
  121OSM    C9F12831   1.343   5.553   7.702 -1.0233  0.0606  0.3551
  121OSM    H9F12832   1.362   5.468   7.770 -1.0063  1.5194  2.2357
  121OSM   C10F12833   1.260   5.651   7.744 -0.1594  0.7180  0.1801
  121OSM   H10F12834   1.232   5.659   7.850  2.1409  1.0762  0.8145
  121OSM   C11F12835   1.207   5.765   7.657 -0.2531 -0.6657  0.0374
  121OSM   H11F12836   1.116   5.725   7.607 -0.3042 -1.2702  0.5902
  121OSM   H11G12837   1.268   5.775   7.565 -0.6304  2.6958  0.0356
  121OSM   C12F12838   1.192   5.897   7.717  0.4464 -0.1615  0.1266
  121OSM   H12F12839   1.136   5.955   7.641 -0.7526 -3.5734 -1.7884
  121OSM   H12G12840   1.293   5.942   7.727  0.4731  1.0411 -3.9502
  121OSM   C13F12841   1.116   5.909   7.854 -0.2760  0.4066  0.4415
  121OSM   H13F12842   1.116   6.016   7.887  1.8109  0.9944 -1.2895
  121OSM   H13G12843   1.152   5.837   7.930 -2.0002 -0.6784  0.2977
  121OSM   C14F12844   0.962   5.867   7.841 -0.3160  0.0683  0.3517
  121OSM   H14F12845   0.958   5.757   7.826 -0.8278  0.3175 -1.6759
  121OSM   H14G12846   0.909   5.904   7.751  1.7715 -0.7099 -1.2745
  121OSM   C15F12847   0.879   5.897   7.964  0.5825  0.2294  0.0459
  121OSM   H15F12848   0.783   5.845   7.946  0.0007  1.4051 -0.3296
  121OSM   H15G12849   0.874   6.007   7.957  0.8969  0.1243 -3.1488
  121OSM   C16F12850   0.936   5.857   8.101 -0.2397 -0.0684 -0.1449
  121OSM   H16F12851   1.046   5.873   8.111 -0.0909 -2.1480  3.0938
  121OSM   H16G12852   0.923   5.747   8.101 -1.9112  0.1060 -0.0610
  121OSM   C17F12853   0.880   5.916   8.226  0.9076 -0.7616 -0.6519
  121OSM   H17F12854   0.769   5.908   8.224  0.6599  1.0563  1.4642
  121OSM   H17G12855   0.893   6.026   8.232 -0.3603 -0.5412 -1.5429
  121OSM   C18F12856   0.935   5.861   8.361  0.2549 -0.0482 -0.1110
  121OSM   H18F12857   1.045   5.857   8.377  0.1900 -0.8004  0.1880
  121OSM   H18G12858   0.918   5.751   8.363 -0.3803 -0.0394 -2.2114
  121OSM   H18H12859   0.878   5.902   8.447 -0.7569 -4.1873  1.4073
  122OSM      N12860   5.034   1.429   6.307  0.1883  0.1162 -0.0163
  122OSM    C1512861   5.032   1.470   6.158 -0.3647 -0.6621 -0.4300
  122OSM   H15A12862   5.115   1.539   6.144 -0.1613 -0.8564 -0.1930
  122OSM   H15B12863   4.940   1.524   6.140 -0.9564 -1.0154  1.3287
  122OSM   H15C12864   5.044   1.380   6.101  0.8720 -0.4669 -0.5083
  122OSM    C1412865   5.154   1.350   6.327  0.4881  0.3956  0.3615
  122OSM   H14A12866   5.241   1.384   6.273  2.1844 -2.8034  0.8138
  122OSM   H14B12867   5.129   1.252   6.287  0.9837  0.1612  0.6065
  122OSM   H14C12868   5.182   1.326   6.429 -3.2893 -1.3384  1.1686
  122OSM    C1312869   5.036   1.547   6.402  0.7492  0.0839 -0.1679
  122OSM   H13A12870   5.094   1.627   6.360 -1.2717  1.8088  0.1564
  122OSM   H13B12871   5.075   1.519   6.499 -0.3439  0.8680  0.5234
  122OSM   H13C12872   4.935   1.586   6.400  0.8321  0.2658 -1.6030
  122OSM    C1212873   4.913   1.341   6.339  0.7643 -0.1181  0.4985
  122OSM   H12A12874   4.823   1.401   6.341  0.3245 -0.6299 -1.4130
  122OSM   H12B12875   4.922   1.301   6.439 -1.5704 -0.4304  0.6405
  122OSM    C1112876   4.881   1.219   6.249 -0.3357 -0.2975  0.3089
  122OSM   H11A12877   4.844   1.251   6.149 -0.6029 -2.5563 -0.3769
  122OSM   H11B12878   4.793   1.169   6.295 -1.0637  0.6616 -0.0010
  122OSM      P12879   5.005   0.988   6.290  0.0035 -0.0958  0.1729
  122OSM    O1312880   4.903   0.907   6.227  0.2274  0.2362 -0.4243
  122OSM    O1412881   5.144   0.932   6.268  0.0809  0.0274  0.2229
  122OSM    O1112882   4.962   1.000   6.446 -0.4378  0.6406 -0.2291
  122OSM    O1212883   4.998   1.136   6.240 -0.0643 -0.2355 -0.0018
  122OSM    C1S12884   5.047   1.064   6.535  0.2402  0.1575 -0.0631
  122OSM    H1S12885   5.053   1.168   6.498  0.9147 -0.0485 -0.5577
  122OSM    H1T12886   5.152   1.027   6.529  0.5475  1.0983 -0.7961
  122OSM     NF12887   5.056   1.170   6.755 -0.6605  0.2102 -0.6199
  122OSM    HNF12888   5.148   1.155   6.790 -0.6811  1.2789 -0.0719
  122OSM    C2S12889   4.995   1.062   6.675  0.1690 -0.8637  0.4256
  122OSM    H2S12890   4.885   1.081   6.672 -0.0937 -2.3389 -0.1734
  122OSM    C3S12891   5.009   0.918   6.731  0.0386 -0.7549 -0.2225
  122OSM    H3S12892   5.114   0.884   6.732 -0.3066 -1.9074 -1.2531
  122OSM     O312893   4.945   0.820   6.644 -0.5413  0.3529  0.1414
  122OSM    HO312894   4.913   0.878   6.575 -0.7041 -0.4468 -0.4662
  122OSM    C4S12895   4.970   0.909   6.881  0.3255  0.5717  0.3910
  122OSM    H4S12896   5.058   0.919   6.946  0.3539  0.3724  0.3818
  122OSM    C5S12897   4.857   0.887   6.935  0.4264 -0.1684  0.3027
  122OSM    H5S12898   4.772   0.855   6.874  1.2337  0.2847 -1.0954
  122OSM    C6S12899   4.832   0.887   7.084 -1.2724 -0.1715 -1.2090
  122OSM    H6S12900   4.758   0.963   7.117  0.0254  0.1878  1.0662
  122OSM    H6T12901   4.915   0.940   7.137 -1.6541  0.4296 -1.2014
  122OSM    C7S12902   4.785   0.764   7.163  0.4735  0.5791 -0.3999
  122OSM    H7S12903   4.859   0.681   7.155 -0.3965 -0.2738  0.2274
  122OSM    H7T12904   4.699   0.724   7.105  1.2495  0.1462 -1.2780
  122OSM    C8S12905   4.739   0.783   7.312 -0.1723  0.2526  0.1424
  122OSM    H8S12906   4.669   0.698   7.329 -0.3550  0.6913  1.8325
  122OSM    H8T12907   4.684   0.877   7.332  1.1672  1.6558 -2.3842
  122OSM    C9S12908   4.849   0.772   7.420 -0.0435  0.1190 -0.0755
  122OSM    H9S12909   4.919   0.858   7.409 -1.2908  1.2336  0.4313
  122OSM    H9T12910   4.920   0.687   7.423 -0.0948  0.0908  0.3756
  122OSM   C10S12911   4.790   0.778   7.567  0.2416 -0.2916  0.3935
  122OSM   H10S12912   4.772   0.671   7.593 -0.1328 -0.0957  0.9448
  122OSM   H10T12913   4.698   0.839   7.563  0.4708  0.0139 -0.5086
  122OSM   C11S12914   4.890   0.828   7.677  0.4119 -0.7410 -0.0471
  122OSM   H11S12915   4.894   0.939   7.685  1.7000 -0.6959 -0.9872
  122OSM   H11T12916   4.990   0.802   7.636 -0.5238 -1.4957 -1.9987
  122OSM   C12S12917   4.864   0.756   7.811 -0.0175 -0.8906  0.5915
  122OSM   H12S12918   4.919   0.659   7.805  0.5697 -0.5352  0.1664
  122OSM   H12T12919   4.756   0.734   7.826  0.0782 -0.7638  1.5435
  122OSM   C13S12920   4.919   0.841   7.935 -0.3119  0.1159 -0.1894
  122OSM   H13S12921   4.868   0.940   7.931 -0.8993 -0.1738 -0.0388
  122OSM   H13T12922   5.027   0.864   7.929 -0.2669 -0.0839 -0.1510
  122OSM   C14S12923   4.869   0.797   8.068 -0.9805  0.3762 -0.1779
  122OSM   H14S12924   4.896   0.692   8.092 -1.4584 -0.1650 -1.8875
  122OSM   H14T12925   4.758   0.787   8.079 -0.9906  0.4880 -0.1736
  122OSM   C15S12926   4.922   0.894   8.178 -0.2361 -0.3572 -0.2335
  122OSM   H15S12927   4.884   0.996   8.156 -1.3505 -0.3344  1.6130
  122OSM   H15T12928   5.033   0.899   8.171 -0.3196  0.6801 -1.1234
  122OSM   C16S12929   4.894   0.847   8.319  0.1323 -0.1721 -0.3748
  122OSM   H16S12930   4.929   0.741   8.327  0.2671 -0.1458 -0.6130
  122OSM   H16T12931   4.787   0.850   8.349  0.2654  2.5626  0.0097
  122OSM   C17S12932   4.966   0.944   8.423  0.7646  0.2466 -0.4324
  122OSM   H17S12933   4.923   1.046   8.430  0.6835  0.2856 -1.3670
  122OSM   H17T12934   5.071   0.962   8.389  1.0135  0.4776  0.4237
  122OSM   C18S12935   4.971   0.883   8.568  0.3893  0.0243  0.4464
  122OSM   H18S12936   5.006   0.966   8.633 -0.7224  1.3398 -0.5722
  122OSM   H18T12937   5.049   0.803   8.567 -1.2853 -1.6621 -0.3435
  122OSM   H18U12938   4.876   0.829   8.586 -1.0425  1.1399 -2.9585
  122OSM    C1F12939   5.026   1.296   6.728 -0.0398  0.8394 -0.2444
  122OSM     OF12940   4.951   1.334   6.638 -0.6516  0.6024  0.2210
  122OSM    C2F12941   5.094   1.398   6.822 -0.1016 -0.4414 -0.6186
  122OSM    H2F12942   5.203   1.381   6.804 -0.3124 -2.7472 -0.0987
  122OSM    H2G12943   5.071   1.366   6.926  0.6281 -0.2518 -0.3951
  122OSM    C3F12944   5.043   1.537   6.797  0.8493  0.1788  0.4806
  122OSM    H3F12945   4.933   1.544   6.808  0.6482  1.0099 -1.6481
  122OSM    H3G12946   5.061   1.564   6.690  1.1861  0.2011  0.5409
  122OSM    C4F12947   5.108   1.647   6.885 -0.0374 -0.5864  0.0765
  122OSM    H4F12948   5.061   1.746   6.864  0.0420  0.3228  3.5416
  122OSM    H4G12949   5.219   1.652   6.876 -0.1928 -0.5183 -2.2065
  122OSM    C5F12950   5.077   1.638   7.035  0.3131  1.1389 -0.0162
  122OSM    H5F12951   5.131   1.549   7.076  1.0789  1.8550  0.5564
  122OSM    H5G12952   4.967   1.624   7.041  0.5879 -1.3576  0.2947
  122OSM    C6F12953   5.111   1.764   7.116 -0.5055 -0.0645 -0.2411
  122OSM    H6F12954   5.047   1.848   7.082  1.1402 -0.1694 -4.2422
  122OSM    H6G12955   5.215   1.794   7.092  0.0387 -1.2595  0.5057
  122OSM    C7F12956   5.108   1.739   7.264 -0.1881 -0.1672  0.4081
  122OSM    H7F12957   5.082   1.634   7.288  2.0461 -0.4610  1.8961
  122OSM    H7G12958   5.044   1.820   7.305 -1.0486 -0.9300  0.5830
  122OSM    C8F12959   5.248   1.759   7.331  0.0068 -0.1930  0.0087
  122OSM    H8F12960   5.229   1.773   7.440  0.4094 -1.2569  0.2305
  122OSM    H8G12961   5.286   1.858   7.299  4.4043 -1.5374  0.4419
  122OSM    C9F12962   5.349   1.655   7.308 -0.2348  0.0628  0.3184
  122OSM    H9F12963   5.365   1.631   7.202 -1.2534  0.7787 -0.0106
  122OSM   C10F12964   5.411   1.583   7.405 -0.5181 -0.0411 -0.0316
  122OSM   H10F12965   5.468   1.491   7.386 -3.2286 -2.4033  2.2427
  122OSM   C11F12966   5.401   1.610   7.553 -0.0578  0.1942 -0.6435
  122OSM   H11F12967   5.326   1.539   7.595 -0.3595  2.2613  2.6797
  122OSM   H11G12968   5.358   1.707   7.585 -0.8339 -0.6135  0.9308
  122OSM   C12F12969   5.536   1.597   7.625  0.2044  0.8611  0.3586
  122OSM   H12F12970   5.617   1.648   7.570  0.7535 -0.2304  0.1171
  122OSM   H12G12971   5.563   1.489   7.615 -1.3718  0.4075  0.5438
  122OSM   C13F12972   5.535   1.635   7.771  0.0906 -0.1870 -0.0391
  122OSM   H13F12973   5.474   1.559   7.825 -1.0043  0.1849 -0.7074
  122OSM   H13G12974   5.480   1.731   7.785  1.9444  0.7578  1.1418
  122OSM   C14F12975   5.675   1.653   7.818 -0.8878 -0.6891  0.0445
  122OSM   H14F12976   5.725   1.731   7.757 -0.3986 -1.7253 -0.9045
  122OSM   H14G12977   5.730   1.559   7.798 -0.6234 -0.1955 -1.6804
  122OSM   C15F12978   5.687   1.684   7.970  0.4988  0.6935 -0.0195
  122OSM   H15F12979   5.645   1.597   8.024 -0.4783  1.6433  0.8057
  122OSM   H15G12980   5.620   1.771   7.988 -0.5141  0.1323 -1.0114
  122OSM   C16F12981   5.831   1.724   8.022 -0.2326 -0.2622 -0.3905
  122OSM   H16F12982   5.866   1.822   7.983 -0.3255 -0.0662  0.0115
  122OSM   H16G12983   5.904   1.652   7.980  0.4991  0.9251 -1.1999
  122OSM   C17F12984   5.848   1.713   8.175 -0.4571 -0.0527  0.0775
  122OSM   H17F12985   5.764   1.763   8.227 -0.2014 -2.1147  2.7175
  122OSM   H17G12986   5.944   1.764   8.200 -1.0849  0.7815  0.8171
  122OSM   C18F12987   5.858   1.574   8.230 -0.3600  0.9579 -0.1920
  122OSM   H18F12988   5.951   1.525   8.195 -0.4568 -1.3916  2.4730
  122OSM   H18G12989   5.782   1.506   8.185  0.7096 -0.5137  0.1174
  122OSM   H18H12990   5.846   1.566   8.341 -0.7267  0.3442 -0.2670
  123OSM      N12991   4.583   2.724   6.876 -0.2136  0.2394 -0.0826
  123OSM    C1512992   4.450   2.744   6.946 -0.4609  0.2097  0.4350
  123OSM   H15A12993   4.454   2.718   7.051  0.3889  1.3149  0.6926
  123OSM   H15B12994   4.379   2.671   6.908  0.1349 -1.4595  2.3416
  123OSM   H15C12995   4.409   2.841   6.923  0.4229  0.2297 -1.1759
  123OSM    C1412996   4.662   2.841   6.918 -0.3712  0.2243  0.1707
  123OSM   H14A12997   4.623   2.934   6.878 -0.4621  1.1930  2.3668
  123OSM   H14B12998   4.764   2.839   6.883  0.3755 -2.0491  2.2267
  123OSM   H14C12999   4.670   2.843   7.026  2.0221 -0.7407  0.0627
  123OSM    C1313000   4.656   2.597   6.917 -0.1399 -0.1387  0.1995
  123OSM   H13A13001   4.590   2.516   6.890  0.4792 -0.9893  1.1301
  123OSM   H13B13002   4.674   2.581   7.023  0.0357  0.4468  0.2579
  123OSM   H13C13003   4.745   2.585   6.858 -1.3562 -0.7446 -1.5746
  123OSM    C1213004   4.564   2.716   6.720 -0.2585 -0.3622 -0.1536
  123OSM   H12A13005   4.525   2.617   6.701  1.2162 -0.6380 -1.9770
  123OSM   H12B13006   4.661   2.711   6.674 -1.2830  0.9323 -2.6593
  123OSM    C1113007   4.479   2.837   6.657  0.2471  0.4642  0.1380
  123OSM   H11A13008   4.498   2.842   6.548  0.2224  2.1285  0.1791
  123OSM   H11B13009   4.522   2.932   6.697 -1.4982  0.1239  3.1700
  123OSM      P13010   4.232   2.942   6.662 -0.1026 -0.1704  0.0664
  123OSM    O1313011   4.252   2.983   6.521 -0.2192 -0.2465 -0.3023
  123OSM    O1413012   4.095   2.912   6.700  0.0030 -0.2028  0.4405
  123OSM    O1113013   4.272   3.067   6.755  0.1375 -0.1321  0.2150
  123OSM    O1213014   4.341   2.824   6.695  0.5051  0.3414  0.3183
  123OSM    C1S13015   4.331   3.047   6.885 -0.2912  0.3304 -0.2491
  123OSM    H1S13016   4.439   3.020   6.877 -0.2203  0.0024  1.5103
  123OSM    H1T13017   4.288   2.954   6.925 -0.1563  0.9462  1.4040
  123OSM     NF13018   4.372   3.124   7.103  0.7706  0.1328  0.5650
  123OSM    HNF13019   4.323   3.090   7.183 -0.3942  0.5861  0.0635
  123OSM    C2S13020   4.299   3.158   6.982 -0.9208 -0.2089  0.2924
  123OSM    H2S13021   4.343   3.251   6.942 -1.7698  0.4721  0.9006
  123OSM    C3S13022   4.145   3.173   7.002 -0.4231 -0.3482  0.1293
  123OSM    H3S13023   4.111   3.076   7.045  1.2141 -0.1977  1.9377
  123OSM     O313024   4.067   3.203   6.890  0.2822  0.0466 -0.2891
  123OSM    HO313025   4.122   3.179   6.815 -0.7686 -0.8884 -0.7819
  123OSM    C4S13026   4.118   3.273   7.113 -0.0091 -1.2371 -0.2745
  123OSM    H4S13027   4.118   3.221   7.209 -0.3959 -0.2034  0.3090
  123OSM    C5S13028   4.083   3.404   7.118 -0.1893  0.2360  0.3201
  123OSM    H5S13029   4.078   3.464   7.026 -0.3186  0.2445  0.3325
  123OSM    C6S13030   4.059   3.472   7.250  0.2182  0.2044 -0.3793
  123OSM    H6S13031   4.095   3.412   7.336  1.1638  1.9932  0.5336
  123OSM    H6T13032   3.951   3.493   7.267  0.2012  0.7981 -1.1538
  123OSM    C7S13033   4.131   3.604   7.245  0.2646  0.2353 -0.0927
  123OSM    H7S13034   4.093   3.675   7.169 -1.0257  1.2947  1.4747
  123OSM    H7T13035   4.236   3.583   7.216  0.7917 -2.0901  2.9880
  123OSM    C8S13036   4.140   3.675   7.379 -0.7066  0.6010 -0.3464
  123OSM    H8S13037   4.203   3.619   7.452  0.7769  2.0259 -0.4754
  123OSM    H8T13038   4.035   3.690   7.415 -0.2606  0.2699  1.1938
  123OSM    C9S13039   4.210   3.809   7.376 -0.3452  0.3746 -0.3813
  123OSM    H9S13040   4.169   3.879   7.300 -1.3936 -1.3200 -1.4608
  123OSM    H9T13041   4.320   3.799   7.364 -0.4447 -0.6143 -0.6130
  123OSM   C10S13042   4.196   3.879   7.513 -0.6385 -0.6424  0.2057
  123OSM   H10S13043   4.088   3.889   7.537 -0.6430 -1.2148  0.4332
  123OSM   H10T13044   4.236   3.982   7.506 -2.6095  0.4661  3.4662
  123OSM   C11S13045   4.267   3.819   7.629 -0.4202  0.0602 -0.7268
  123OSM   H11S13046   4.375   3.813   7.603 -0.3530 -1.9436 -0.1720
  123OSM   H11T13047   4.232   3.717   7.655  1.3259 -0.1296  1.1630
  123OSM   C12S13048   4.249   3.912   7.754  0.2169 -0.2358  0.3042
  123OSM   H12S13049   4.140   3.906   7.772  0.1616 -3.4059 -0.5568
  123OSM   H12T13050   4.276   4.015   7.720 -0.3079 -0.0718  0.3683
  123OSM   C13S13051   4.334   3.872   7.874 -0.1679 -0.2589  0.4320
  123OSM   H13S13052   4.352   3.967   7.928 -0.7044 -1.0537  2.0738
  123OSM   H13T13053   4.434   3.838   7.839 -0.6058  0.9908 -2.3255
  123OSM   C14S13054   4.273   3.770   7.968 -0.6074 -0.0818  0.6271
  123OSM   H14S13055   4.354   3.724   8.029  0.8459  0.7509 -0.6083
  123OSM   H14T13056   4.243   3.695   7.891  3.1587  0.4212 -1.5865
  123OSM   C15S13057   4.163   3.824   8.060  0.0744  0.2067 -0.3195
  123OSM   H15S13058   4.075   3.851   7.998 -1.2395  0.6702  1.6760
  123OSM   H15T13059   4.200   3.915   8.112 -0.3017  1.1452 -1.6459
  123OSM   C16S13060   4.120   3.725   8.167  0.4460  0.7624  0.5365
  123OSM   H16S13061   4.204   3.676   8.221 -0.3601  1.7071  2.7352
  123OSM   H16T13062   4.075   3.634   8.121  1.4724  0.3355  0.3338
  123OSM   C17S13063   4.023   3.787   8.269 -0.0983 -0.2688 -0.1672
  123OSM   H17S13064   4.078   3.873   8.313 -2.3017  1.2942 -0.2862
  123OSM   H17T13065   4.007   3.709   8.347 -1.1456  0.1069  0.0079
  123OSM   C18S13066   3.895   3.839   8.204 -0.2510 -0.2045  0.5689
  123OSM   H18S13067   3.833   3.888   8.282 -1.8862  0.0550 -0.8388
  123OSM   H18T13068   3.843   3.758   8.148  0.4397 -0.0784 -0.2885
  123OSM   H18U13069   3.911   3.917   8.126 -0.0252 -2.3488 -1.6798
  123OSM    C1F13070   4.499   3.146   7.115 -0.2590 -0.1893  0.3606
  123OSM     OF13071   4.565   3.185   7.016 -0.4051 -0.1940 -0.0489
  123OSM    C2F13072   4.570   3.137   7.245 -0.1957  0.5156  0.2636
  123OSM    H2F13073   4.607   3.241   7.259  1.0196  0.0690  0.4707
  123OSM    H2G13074   4.658   3.070   7.236 -0.9536 -0.4704  0.0916
  123OSM    C3F13075   4.485   3.090   7.356 -0.0894 -0.4990  0.4009
  123OSM    H3F13076   4.443   2.987   7.351 -1.1839 -0.0710  0.4163
  123OSM    H3G13077   4.396   3.156   7.361 -0.1242 -0.5133 -0.0145
  123OSM    C4F13078   4.539   3.105   7.498 -0.3754 -0.3967 -0.5457
  123OSM    H4F13079   4.573   3.210   7.508  0.2417 -0.7047  0.7574
  123OSM    H4G13080   4.624   3.036   7.510 -0.2607 -0.3545 -1.0852
  123OSM    C5F13081   4.434   3.067   7.608 -0.1492  1.3224 -0.3439
  123OSM    H5F13082   4.498   3.069   7.699 -0.0282 -2.2501 -0.2351
  123OSM    H5G13083   4.405   2.962   7.589  0.2016  1.0587  0.5235
  123OSM    C6F13084   4.315   3.157   7.640 -0.0062  0.5563 -0.6267
  123OSM    H6F13085   4.274   3.133   7.741  0.1783  1.9823 -0.1888
  123OSM    H6G13086   4.246   3.130   7.558 -1.0756 -0.5417  0.5879
  123OSM    C7F13087   4.336   3.308   7.629 -0.0799 -0.3392 -0.0839
  123OSM    H7F13088   4.345   3.329   7.520 -2.5346 -1.1652 -0.5098
  123OSM    H7G13089   4.423   3.342   7.688  0.1583 -0.3495 -0.4308
  123OSM    C8F13090   4.215   3.398   7.668  0.0242  1.0160  0.2419
  123OSM    H8F13091   4.233   3.506   7.651 -1.5915  1.2853  0.0548
  123OSM    H8G13092   4.203   3.387   7.778  0.6640  0.5295  0.2676
  123OSM    C9F13093   4.081   3.346   7.620 -0.4895 -0.4189  0.3015
  123OSM    H9F13094   4.081   3.274   7.536 -2.8426 -0.0096 -0.1081
  123OSM   C10F13095   3.959   3.379   7.673 -0.1369  0.2984  0.7316
  123OSM   H10F13096   3.871   3.333   7.626  0.0364 -1.3285  1.9385
  123OSM   C11F13097   3.945   3.486   7.785  0.0609 -0.0351 -0.1381
  123OSM   H11F13098   3.866   3.558   7.756 -1.0760 -1.5867 -1.0377
  123OSM   H11G13099   4.044   3.534   7.797 -0.2638  0.1754  2.0154
  123OSM   C12F13100   3.900   3.403   7.907 -0.5706  0.1797 -0.7643
  123OSM   H12F13101   3.811   3.341   7.886 -1.4263  0.8208  0.7427
  123OSM   H12G13102   3.870   3.485   7.976  2.8330 -0.9554  2.3879
  123OSM   C13F13103   4.010   3.322   7.977 -0.2400 -0.3871  0.3123
  123OSM   H13F13104   4.089   3.395   8.006 -0.6184 -0.3425  1.2746
  123OSM   H13G13105   4.060   3.246   7.913  1.8507  0.3037  1.0529
  123OSM   C14F13106   3.963   3.253   8.109 -0.5382  0.2845  0.4566
  123OSM   H14F13107   4.057   3.210   8.150 -0.3082 -0.5724 -0.9122
  123OSM   H14G13108   3.901   3.164   8.086  1.8578 -0.9478 -1.7075
  123OSM   C15F13109   3.898   3.347   8.200 -0.0215 -0.0253 -0.1384
  123OSM   H15F13110   3.808   3.387   8.147 -0.9856 -2.3730 -0.4066
  123OSM   H15G13111   3.960   3.439   8.198  0.4191 -0.3216 -1.1363
  123OSM   C16F13112   3.868   3.300   8.345  0.5478  0.6131  0.7720
  123OSM   H16F13113   3.969   3.294   8.392  0.9138  0.5412 -0.0118
  123OSM   H16G13114   3.835   3.194   8.355 -0.1563  0.6411 -0.9722
  123OSM   C17F13115   3.782   3.392   8.424  0.0166 -0.3365 -1.0937
  123OSM   H17F13116   3.676   3.392   8.391 -1.3938 -0.5583  2.8482
  123OSM   H17G13117   3.821   3.491   8.395  1.4416  0.4520  2.8175
  123OSM   C18F13118   3.794   3.396   8.574  0.0888  0.2582 -0.5176
  123OSM   H18F13119   3.726   3.455   8.639  1.5144  1.3369  0.0438
  123OSM   H18G13120   3.897   3.431   8.598 -0.7389  1.9574  0.8120
  123OSM   H18H13121   3.796   3.291   8.609  1.0351  0.4584  0.0686
  124OSM      N13122   4.071   0.448   6.084  0.4278  0.1464 -0.5412
  124OSM    C1513123   4.039   0.535   5.963  0.3887 -0.1831 -1.7393
  124OSM   H15A13124   3.939   0.510   5.931 -0.3867 -0.2602  0.5619
  124OSM   H15B13125   4.117   0.518   5.890  0.1747  0.6609 -2.1720
  124OSM   H15C13126   4.042   0.639   5.990 -0.4940 -0.8353  1.3392
  124OSM    C1413127   4.039   0.308   6.050 -0.1410  0.1889 -0.1725
  124OSM   H14A13128   3.932   0.294   6.043 -0.1959  0.6925 -0.3634
  124OSM   H14B13129   4.084   0.243   6.123 -1.9682 -3.0738 -1.7069
  124OSM   H14C13130   4.057   0.291   5.945  0.3513 -2.3168  0.2464
  124OSM    C1313131   4.219   0.462   6.122 -0.6008  0.0119  0.3532
  124OSM   H13A13132   4.249   0.396   6.202 -1.1623 -0.1497  0.4298
  124OSM   H13B13133   4.241   0.565   6.149  1.4808 -0.3738  0.2910
  124OSM   H13C13134   4.277   0.428   6.037 -0.2029  1.4667  0.0023
  124OSM    C1213135   3.976   0.495   6.202  0.0697  0.2149  0.6430
  124OSM   H12A13136   3.875   0.493   6.165  1.1277 -2.7941 -2.7600
  124OSM   H12B13137   3.992   0.598   6.228 -0.8829 -0.0228  2.3041
  124OSM    C1113138   3.979   0.405   6.322  0.7126 -0.6945 -0.2607
  124OSM   H11A13139   3.943   0.303   6.295 -1.3672 -0.2656  0.6475
  124OSM   H11B13140   3.896   0.445   6.385  1.3508 -2.5911  1.9561
  124OSM      P13141   4.171   0.270   6.437  0.0908  0.0049  0.0441
  124OSM    O1313142   4.171   0.182   6.314  0.3683 -0.2936 -0.5070
  124OSM    O1413143   4.302   0.309   6.488  0.1853  0.3276 -0.2676
  124OSM    O1113144   4.077   0.201   6.541 -0.2588 -0.1888 -0.2240
  124OSM    O1213145   4.095   0.405   6.398  0.1774 -0.0130 -0.2140
  124OSM    C1S13146   4.128   0.172   6.670 -1.2702 -0.4734 -0.0956
  124OSM    H1S13147   4.236   0.149   6.658 -1.3309 -0.7921 -0.0566
  124OSM    H1T13148   4.087   0.074   6.703  0.3398 -0.5376  1.8968
  124OSM     NF13149   4.161   0.235   6.900  0.1327 -0.0348 -0.2031
  124OSM    HNF13150   4.103   0.223   6.980 -2.0587  1.7628 -1.4313
  124OSM    C2S13151   4.105   0.281   6.780 -1.0043  0.2910 -0.3042
  124OSM    H2S13152   4.159   0.373   6.751 -0.7400  0.3378  0.3243
  124OSM    C3S13153   3.952   0.326   6.792 -0.5038  0.4418  0.5911
  124OSM    H3S13154   3.890   0.237   6.817  2.3330 -1.8510 -0.0357
  124OSM     O313155   3.896   0.372   6.666 -0.1281 -0.6166  0.5703
  124OSM    HO313156   3.942   0.333   6.592 -1.3804  0.8814 -1.0946
  124OSM    C4S13157   3.945   0.440   6.892 -0.2348 -0.2290 -0.4806
  124OSM    H4S13158   3.982   0.536   6.854 -0.1323 -0.7384 -1.7467
  124OSM    C5S13159   3.897   0.422   7.013  0.5356 -0.1699 -0.1765
  124OSM    H5S13160   3.864   0.325   7.054 -0.2762 -0.3965 -1.3087
  124OSM    C6S13161   3.883   0.526   7.121 -0.1019  0.3357 -0.4642
  124OSM    H6S13162   3.774   0.545   7.129 -0.8163 -3.1104 -0.4413
  124OSM    H6T13163   3.936   0.619   7.091  0.4341 -0.3295 -1.6817
  124OSM    C7S13164   3.925   0.477   7.262 -0.1015 -0.0344 -0.1316
  124OSM    H7S13165   4.031   0.444   7.263 -0.6243 -1.8953  1.4575
  124OSM    H7T13166   3.875   0.385   7.301  1.0174 -0.2224  0.9439
  124OSM    C8S13167   3.906   0.589   7.366  0.2992 -0.9673 -0.3326
  124OSM    H8S13168   3.799   0.612   7.385  0.6537  0.5115  0.0022
  124OSM    H8T13169   3.934   0.688   7.325  0.1113 -0.3482  0.9986
  124OSM    C9S13170   3.965   0.569   7.507 -0.2869 -0.2134  0.1709
  124OSM    H9S13171   4.075   0.573   7.497 -0.3408 -1.2610 -1.0098
  124OSM    H9T13172   3.938   0.463   7.527  0.6851 -0.7318 -1.1627
  124OSM   C10S13173   3.901   0.673   7.608  0.0490  0.5181 -0.2361
  124OSM   H10S13174   3.794   0.646   7.625  0.3165  0.0663  0.8278
  124OSM   H10T13175   3.898   0.776   7.565 -0.3545 -0.2691 -2.1715
  124OSM   C11S13176   3.992   0.684   7.730  0.3149  0.3450 -0.0976
  124OSM   H11S13177   4.101   0.689   7.711  0.4243 -0.5238  0.2499
  124OSM   H11T13178   3.955   0.602   7.794  1.1218 -1.0615 -1.3844
  124OSM   C12S13179   3.946   0.807   7.812  0.0539 -0.3880 -0.5836
  124OSM   H12S13180   3.837   0.796   7.827  0.0320  0.2183 -0.2745
  124OSM   H12T13181   3.962   0.895   7.746  1.9247  0.1253  0.4767
  124OSM   C13S13182   4.023   0.806   7.941  0.1592  0.0374 -0.3299
  124OSM   H13S13183   4.128   0.834   7.919  0.1735 -1.0736 -1.8281
  124OSM   H13T13184   4.027   0.703   7.983  1.4051  0.1707 -0.0753
  124OSM   C14S13185   3.968   0.893   8.059 -0.1259  0.4864  0.7253
  124OSM   H14S13186   3.858   0.880   8.060 -0.3104  1.9390  1.6594
  124OSM   H14T13187   3.978   0.999   8.027 -4.6841  0.5117 -1.4096
  124OSM   C15S13188   4.035   0.855   8.192 -0.4204 -0.1864 -0.6394
  124OSM   H15S13189   4.141   0.879   8.166 -1.8493  3.9589 -3.7272
  124OSM   H15T13190   4.014   0.753   8.231  1.7799 -0.8197 -0.9797
  124OSM   C16S13191   3.988   0.952   8.307  0.2323 -0.2943  0.7978
  124OSM   H16S13192   3.878   0.958   8.320  0.2133  0.3509  0.3450
  124OSM   H16T13193   4.020   1.054   8.278 -0.3050 -0.3116  0.1061
  124OSM   C17S13194   4.049   0.935   8.445  0.0802 -0.1842 -1.1111
  124OSM   H17S13195   4.012   0.844   8.496  1.6124  0.4345  1.2283
  124OSM   H17T13196   4.020   1.020   8.511  2.6676 -1.3188  1.6843
  124OSM   C18S13197   4.198   0.954   8.455  0.3344  0.0630  0.1886
  124OSM   H18S13198   4.246   0.870   8.400 -1.7975  0.1675 -2.0510
  124OSM   H18T13199   4.224   0.962   8.562 -0.4663 -3.2311  0.7494
  124OSM   H18U13200   4.216   1.047   8.397  1.1614 -0.8963 -1.1560
  124OSM    C1F13201   4.290   0.195   6.905 -0.2520 -0.1410 -0.2351
  124OSM     OF13202   4.378   0.243   6.831 -0.4233  0.2777  0.8762
  124OSM    C2F13203   4.333   0.113   7.022  0.0823  0.3165  0.1427
  124OSM    H2F13204   4.439   0.139   7.045  0.0271  1.3865 -0.7276
  124OSM    H2G13205   4.329   0.011   6.978  2.4754 -0.4318  1.4749
  124OSM    C3F13206   4.262   0.124   7.157  0.1815 -0.1086 -0.0467
  124OSM    H3F13207   4.307   0.045   7.221  2.7207  1.7723  0.6827
  124OSM    H3G13208   4.156   0.098   7.139  0.6887 -1.2834 -1.5040
  124OSM    C4F13209   4.284   0.237   7.249  0.3298  0.6972  0.2840
  124OSM    H4F13210   4.227   0.328   7.221 -1.1215  0.6605  2.8248
  124OSM    H4G13211   4.395   0.248   7.256  0.9814 -3.8292 -0.2046
  124OSM    C5F13212   4.213   0.211   7.385  0.1329  0.0037 -0.2512
  124OSM    H5F13213   4.241   0.117   7.436 -0.6684  0.4016  0.9648
  124OSM    H5G13214   4.107   0.195   7.354 -0.0716 -0.1379  0.4998
  124OSM    C6F13215   4.222   0.331   7.482 -0.2300  0.0905 -0.0057
  124OSM    H6F13216   4.139   0.340   7.556  1.5278  0.5986  2.0185
  124OSM    H6G13217   4.218   0.418   7.414  3.7065 -1.4640 -2.6300
  124OSM    C7F13218   4.344   0.334   7.567 -0.8536 -0.2547  0.1891
  124OSM    H7F13219   4.438   0.328   7.508 -0.1648 -1.4991  1.3717
  124OSM    H7G13220   4.338   0.246   7.633  2.3381 -0.6326  0.1193
  124OSM    C8F13221   4.365   0.469   7.647  0.0404  1.0174  0.1360
  124OSM    H8F13222   4.284   0.477   7.722  0.7927 -1.2461  1.2610
  124OSM    H8G13223   4.376   0.553   7.575  0.5492  1.0657  0.2720
  124OSM    C9F13224   4.500   0.467   7.724 -0.3589 -0.4264 -0.3520
  124OSM    H9F13225   4.580   0.397   7.696 -0.2175 -0.8145  0.9407
  124OSM   C10F13226   4.529   0.540   7.834 -0.5006 -0.2227  0.1898
  124OSM   H10F13227   4.630   0.525   7.875 -0.5462  1.9297  1.2159
  124OSM   C11F13228   4.447   0.645   7.908  0.7865 -0.1740  0.1189
  124OSM   H11F13229   4.380   0.688   7.831 -1.3966  0.2628  2.1544
  124OSM   H11G13230   4.511   0.732   7.936  0.9980 -0.4369  0.4639
  124OSM   C12F13231   4.368   0.593   8.029 -0.4131 -0.2328  0.3230
  124OSM   H12F13232   4.308   0.500   8.013 -0.1845 -0.7175  2.0244
  124OSM   H12G13233   4.286   0.665   8.051  0.3787  1.2069 -1.2359
  124OSM   C13F13234   4.449   0.597   8.155 -0.6057 -0.1585  0.0621
  124OSM   H13F13235   4.460   0.697   8.203 -0.4607  1.5104 -3.1285
  124OSM   H13G13236   4.551   0.557   8.140  0.0813  0.5886  2.3752
  124OSM   C14F13237   4.379   0.522   8.270  0.6707 -0.3041  0.1812
  124OSM   H14F13238   4.353   0.420   8.236  0.4250 -0.3732  0.5682
  124OSM   H14G13239   4.287   0.579   8.295  2.0947  2.9526 -1.4795
  124OSM   C15F13240   4.471   0.505   8.392 -0.1182  0.6636 -0.5095
  124OSM   H15F13241   4.496   0.608   8.425  0.0615  0.0168  1.4807
  124OSM   H15G13242   4.566   0.470   8.347  0.4386  1.0490  0.3439
  124OSM   C16F13243   4.419   0.411   8.495  0.1229  0.7408  0.1026
  124OSM   H16F13244   4.510   0.379   8.551 -0.0607 -3.3946 -1.5950
  124OSM   H16G13245   4.382   0.319   8.445 -0.8299  1.0874  0.1612
  124OSM   C17F13246   4.304   0.466   8.578  0.0914  0.1940  0.2923
  124OSM   H17F13247   4.235   0.518   8.508  1.3456  0.8091 -0.5142
  124OSM   H17G13248   4.326   0.550   8.648 -1.1339  2.3342 -1.7115
  124OSM   C18F13249   4.240   0.351   8.666  0.0162  0.6768  0.5488
  124OSM   H18F13250   4.317   0.295   8.724 -0.5900 -0.1424  0.5843
  124OSM   H18G13251   4.188   0.274   8.606  0.0462 -3.6968  5.4324
  124OSM   H18H13252   4.172   0.402   8.738  0.4229  1.5093  0.3467
  125OSM      N13253   1.855   4.355   6.054  0.0302 -0.2156 -0.6030
  125OSM    C1513254   1.713   4.361   6.041 -0.1383 -0.3885  0.4132
  125OSM   H15A13255   1.680   4.315   5.950 -0.6569 -2.7338  1.7205
  125OSM   H15B13256   1.678   4.463   6.042 -0.3763 -0.4475 -1.0012
  125OSM   H15C13257   1.657   4.325   6.126 -1.5353  2.7473  0.9707
  125OSM    C1413258   1.888   4.210   6.057  0.2332  0.2790 -0.3098
  125OSM   H14A13259   1.859   4.157   6.146  2.2744 -0.0940  0.1818
  125OSM   H14B13260   1.995   4.203   6.057  0.2262 -0.0623  1.1870
  125OSM   H14C13261   1.844   4.156   5.974 -1.5732  0.0483  0.7424
  125OSM    C1313262   1.916   4.424   5.938 -0.2564 -0.5016  0.3169
  125OSM   H13A13263   1.877   4.525   5.935 -0.0161 -0.4201 -0.3114
  125OSM   H13B13264   1.913   4.368   5.845 -0.5490  0.3591 -0.2085
  125OSM   H13C13265   2.022   4.431   5.957 -0.4437 -2.1537  2.2702
  125OSM    C1213266   1.905   4.431   6.176 -0.5658 -0.5353 -0.5124
  125OSM   H12A13267   2.013   4.423   6.172 -0.5098 -0.6159  0.7150
  125OSM   H12B13268   1.880   4.384   6.270  2.0152 -1.3051 -0.1292
  125OSM    C1113269   1.881   4.593   6.179  0.4490  1.0656 -0.1456
  125OSM   H11A13270   1.927   4.630   6.085  0.4485 -0.0366 -0.5942
  125OSM   H11B13271   1.948   4.623   6.263  1.0288 -1.4167  0.3594
  125OSM      P13272   1.690   4.617   6.352 -0.1667 -0.1349  0.8975
  125OSM    O1313273   1.543   4.614   6.352 -0.1008  0.1123  0.6017
  125OSM    O1413274   1.757   4.509   6.427  0.4436 -0.0376 -0.4157
  125OSM    O1113275   1.746   4.744   6.417  0.1351 -0.4894 -0.3151
  125OSM    O1213276   1.741   4.618   6.204  0.2546 -0.7198  0.5192
  125OSM    C1S13277   1.720   4.794   6.547  0.1699 -0.1998 -0.0445
  125OSM    H1S13278   1.612   4.780   6.568 -0.5571  2.0202 -1.8823
  125OSM    H1T13279   1.716   4.905   6.538 -1.6734 -0.3614 -1.7114
  125OSM     NF13280   1.776   4.790   6.789 -0.4567 -0.2232  0.0254
  125OSM    HNF13281   1.828   4.863   6.832  0.9624 -1.0613 -0.2015
  125OSM    C2S13282   1.818   4.741   6.660  0.8767 -0.0474 -0.1925
  125OSM    H2S13283   1.805   4.631   6.669 -1.9042  0.3712  2.5027
  125OSM    C3S13284   1.964   4.787   6.629  0.0540  0.0253  0.2923
  125OSM    H3S13285   1.960   4.897   6.614  2.0711  0.3487  1.6956
  125OSM     O313286   2.026   4.739   6.507  0.3620  0.9815 -0.0746
  125OSM    HO313287   1.951   4.718   6.451 -0.7983  1.3256  1.2846
  125OSM    C4S13288   2.063   4.768   6.743  0.2078  0.0151 -0.3397
  125OSM    H4S13289   2.066   4.851   6.815  0.0844 -0.7304  0.5404
  125OSM    C5S13290   2.141   4.660   6.762  0.5918  0.2235  0.3231
  125OSM    H5S13291   2.136   4.575   6.693  0.8666  0.1537  0.3880
  125OSM    C6S13292   2.249   4.663   6.866  1.0144 -0.1428  0.1000
  125OSM    H6S13293   2.339   4.718   6.833  0.6675 -0.5008 -1.5084
  125OSM    H6T13294   2.261   4.555   6.891  0.1503 -0.9018 -2.4399
  125OSM    C7S13295   2.229   4.756   6.989 -0.0673 -0.3241  0.1861
  125OSM    H7S13296   2.147   4.726   7.058 -2.4109  4.0808 -0.3446
  125OSM    H7T13297   2.205   4.861   6.962  1.1395 -0.1543 -0.2761
  125OSM    C8S13298   2.362   4.753   7.077  0.6742  0.2627  0.4055
  125OSM    H8S13299   2.445   4.794   7.014 -0.0949 -0.0259 -0.8265
  125OSM    H8T13300   2.392   4.648   7.097 -0.0787 -0.5180 -2.1786
  125OSM    C9S13301   2.358   4.861   7.192 -0.2519  0.5862  0.2512
  125OSM    H9S13302   2.305   4.944   7.141  2.4346  1.1665 -1.8290
  125OSM    H9T13303   2.466   4.887   7.199 -0.0807 -0.0300 -0.0132
  125OSM   C10S13304   2.290   4.822   7.326 -0.5009  0.5174 -0.5962
  125OSM   H10S13305   2.183   4.803   7.305 -0.9872 -2.0716  3.0798
  125OSM   H10T13306   2.305   4.895   7.408  0.9264 -0.9826  0.5637
  125OSM   C11S13307   2.350   4.690   7.392 -0.0564  0.4688  0.0850
  125OSM   H11S13308   2.342   4.608   7.318  3.5731  0.0705 -0.0472
  125OSM   H11T13309   2.298   4.664   7.487  0.0367  0.3486  0.1037
  125OSM   C12S13310   2.496   4.710   7.425  0.5931  0.8115  0.8777
  125OSM   H12S13311   2.543   4.769   7.344 -0.4366  1.0956  0.4631
  125OSM   H12T13312   2.537   4.608   7.415 -0.7054  0.3511 -0.1181
  125OSM   C13S13313   2.533   4.772   7.556 -0.2685 -0.3909 -0.0652
  125OSM   H13S13314   2.465   4.858   7.576 -0.3064 -0.5223  0.3904
  125OSM   H13T13315   2.629   4.826   7.542 -1.5767  2.0206 -0.3032
  125OSM   C14S13316   2.542   4.672   7.669  0.1835 -0.5066  0.9834
  125OSM   H14S13317   2.621   4.605   7.628  1.7179  1.7326  0.0955
  125OSM   H14T13318   2.446   4.617   7.674  0.4746 -1.2346 -0.7532
  125OSM   C15S13319   2.581   4.722   7.811  0.2852 -0.1199 -0.0997
  125OSM   H15S13320   2.529   4.814   7.846  0.9587 -0.5688  2.2098
  125OSM   H15T13321   2.688   4.752   7.805 -0.5583  3.1546 -1.0736
  125OSM   C16S13322   2.557   4.610   7.921  0.3424 -0.6590 -0.4475
  125OSM   H16S13323   2.606   4.516   7.888  0.2022 -1.6600  2.0340
  125OSM   H16T13324   2.449   4.598   7.945  0.9697 -0.7140  2.7676
  125OSM   C17S13325   2.629   4.641   8.048 -0.0304 -0.5319 -0.5280
  125OSM   H17S13326   2.731   4.679   8.026 -0.1238  0.2856  0.3895
  125OSM   H17T13327   2.635   4.549   8.109 -0.8688  0.2994  0.8606
  125OSM   C18S13328   2.568   4.743   8.143  0.0203 -0.2526 -0.2181
  125OSM   H18S13329   2.556   4.845   8.100 -1.8830 -0.3093  0.0749
  125OSM   H18T13330   2.617   4.742   8.243  0.4473  1.0545 -0.3886
  125OSM   H18U13331   2.464   4.711   8.164 -0.0687  0.8358  1.1365
  125OSM    C1F13332   1.661   4.742   6.845  0.3596  0.5293  0.0889
  125OSM     OF13333   1.582   4.667   6.788 -0.1824 -0.3095 -0.9147
  125OSM    C2F13334   1.642   4.791   6.991  0.6047  0.3418  0.3633
  125OSM    H2F13335   1.631   4.902   6.991 -0.2215  0.2708  0.3649
  125OSM    H2G13336   1.735   4.761   7.042  0.3963 -0.3227  0.3567
  125OSM    C3F13337   1.522   4.724   7.072  0.3700 -0.0548 -0.6759
  125OSM    H3F13338   1.533   4.614   7.080  1.6900 -0.0538 -1.9563
  125OSM    H3G13339   1.435   4.747   7.006  1.0757  1.8311 -1.0272
  125OSM    C4F13340   1.470   4.787   7.201  0.4342  0.5364  0.1253
  125OSM    H4F13341   1.363   4.758   7.210  1.4605 -4.3551 -0.3898
  125OSM    H4G13342   1.478   4.897   7.195  0.8653  0.4775 -0.4841
  125OSM    C5F13343   1.558   4.739   7.323  0.3981  0.1584  0.4233
  125OSM    H5F13344   1.665   4.763   7.304  0.2245  0.3823 -0.2883
  125OSM    H5G13345   1.550   4.629   7.324 -0.3404  0.1804 -0.7548
  125OSM    C6F13346   1.501   4.795   7.450 -0.0214 -0.8178 -0.3245
  125OSM    H6F13347   1.392   4.775   7.448 -0.6908  1.4203  3.3483
  125OSM    H6G13348   1.509   4.905   7.464  1.4448 -1.1506  2.1034
  125OSM    C7F13349   1.558   4.734   7.583 -0.2501  0.8354 -0.2564
  125OSM    H7F13350   1.669   4.726   7.580 -0.4047 -2.1388 -0.4383
  125OSM    H7G13351   1.518   4.631   7.588 -3.0251  1.8889  1.9659
  125OSM    C8F13352   1.504   4.800   7.712  0.4472  0.0250  0.5506
  125OSM    H8F13353   1.404   4.752   7.725  0.9179 -1.2906 -0.4781
  125OSM    H8G13354   1.499   4.911   7.706  1.0601  0.2467  2.9882
  125OSM    C9F13355   1.578   4.756   7.839 -0.4539 -0.4736 -0.1878
  125OSM    H9F13356   1.686   4.763   7.820 -0.5152  1.5629 -0.0461
  125OSM   C10F13357   1.522   4.728   7.960 -0.0410  0.0782 -0.4906
  125OSM   H10F13358   1.590   4.713   8.045 -2.1838 -0.7254  1.1829
  125OSM   C11F13359   1.382   4.727   7.998  0.7047 -0.6203  0.8516
  125OSM   H11F13360   1.344   4.625   8.018  2.3170 -0.6589  4.6783
  125OSM   H11G13361   1.318   4.767   7.916  0.9386  0.1341  1.0263
  125OSM   C12F13362   1.340   4.813   8.122 -0.1657 -0.0666 -0.1567
  125OSM   H12F13363   1.400   4.904   8.100  1.3076 -0.8807  0.3544
  125OSM   H12G13364   1.383   4.773   8.216 -0.0662  1.2497  0.3652
  125OSM   C13F13365   1.187   4.824   8.137  0.2121  0.6248 -0.4713
  125OSM   H13F13366   1.173   4.798   8.244  0.5846  0.3599 -0.4887
  125OSM   H13G13367   1.132   4.755   8.070 -0.2560  0.7960 -0.2676
  125OSM   C14F13368   1.146   4.967   8.112  0.8937 -0.4488  0.3765
  125OSM   H14F13369   1.162   4.983   8.003  2.5390  1.6220  0.8500
  125OSM   H14G13370   1.209   5.029   8.180 -0.1326  0.1205  0.8284
  125OSM   C15F13371   0.999   4.991   8.150 -0.0183 -0.5225  0.0157
  125OSM   H15F13372   0.968   5.096   8.133 -2.7252 -1.5859 -2.3542
  125OSM   H15G13373   0.997   4.980   8.260  0.3547  0.4051  0.1191
  125OSM   C16F13374   0.887   4.908   8.078 -0.1616 -0.8528  0.5639
  125OSM   H16F13375   0.793   4.948   8.122 -0.5831 -1.1328 -0.0661
  125OSM   H16G13376   0.905   4.806   8.119 -0.6034 -0.9995  0.3916
  125OSM   C17F13377   0.890   4.908   7.931 -1.1039 -0.7550  0.6425
  125OSM   H17F13378   0.983   4.861   7.891  0.5056  2.2022  0.6422
  125OSM   H17G13379   0.900   5.011   7.892 -0.1994 -0.2066  2.2177
  125OSM   C18F13380   0.763   4.841   7.869 -0.3452  0.2127 -0.4520
  125OSM   H18F13381   0.676   4.900   7.905  1.6392  1.5658  2.5376
  125OSM   H18G13382   0.766   4.736   7.904 -0.8374  0.2819 -0.1979
  125OSM   H18H13383   0.770   4.845   7.758  0.1961  1.0402 -0.3938
  126OSM      N13384   5.249   2.562   6.389  0.5455  0.5706  0.5200
  126OSM    C1513385   5.257   2.450   6.292 -0.1012  0.4131 -0.6156
  126OSM   H15A13386   5.347   2.390   6.291 -0.6431 -0.4041 -1.3567
  126OSM   H15B13387   5.233   2.471   6.189 -2.1029  1.4452  0.0156
  126OSM   H15C13388   5.178   2.381   6.317  0.9458 -0.6229 -0.0306
  126OSM    C1413389   5.357   2.658   6.369 -0.1640  0.5817 -0.5235
  126OSM   H14A13390   5.360   2.695   6.268 -2.1663  1.1097 -0.4469
  126OSM   H14B13391   5.449   2.617   6.406 -1.3796 -1.4052  0.4758
  126OSM   H14C13392   5.349   2.740   6.439 -0.2589  0.6494 -0.6124
  126OSM    C1313393   5.119   2.634   6.364 -0.3242  0.1961  0.2921
  126OSM   H13A13394   5.112   2.647   6.257 -0.1758 -1.1908  0.0955
  126OSM   H13B13395   5.108   2.728   6.416  1.1338  0.3211  0.4152
  126OSM   H13C13396   5.037   2.567   6.386 -0.2634  0.6970  2.1658
  126OSM    C1213397   5.256   2.512   6.534  0.4340 -0.2904 -0.5439
  126OSM   H12A13398   5.229   2.594   6.598 -2.9686 -1.7079  0.0219
  126OSM   H12B13399   5.358   2.482   6.556  0.4648  1.2215  1.7226
  126OSM    C1113400   5.150   2.394   6.572  0.0738 -0.1076 -0.3459
  126OSM   H11A13401   5.178   2.346   6.668  3.4798 -1.3723 -1.7891
  126OSM   H11B13402   5.167   2.307   6.504  0.4971 -2.2771  2.3716
  126OSM      P13403   4.954   2.548   6.682  0.1582  0.3508 -0.1045
  126OSM    O1313404   4.849   2.634   6.620  0.2160 -0.5301  0.7156
  126OSM    O1413405   4.917   2.467   6.797  0.1588  0.9773 -0.1632
  126OSM    O1113406   5.085   2.627   6.722  0.1983 -0.2056 -0.0465
  126OSM    O1213407   5.021   2.444   6.578  0.6836  0.2187  0.4728
  126OSM    C1S13408   5.092   2.724   6.828  0.1135  0.2636  0.1094
  126OSM    H1S13409   4.988   2.755   6.852 -0.3469 -1.4748  0.4854
  126OSM    H1T13410   5.137   2.818   6.789  2.9896 -1.2263 -0.4204
  126OSM     NF13411   5.142   2.752   7.065 -0.3659  0.3927 -0.3397
  126OSM    HNF13412   5.175   2.845   7.073  0.9248 -0.0807  0.1587
  126OSM    C2S13413   5.180   2.672   6.948 -0.4069 -0.2452 -0.1696
  126OSM    H2S13414   5.166   2.563   6.965 -2.3197 -0.1499 -0.9076
  126OSM    C3S13415   5.334   2.687   6.904 -0.5468 -0.0914  0.3222
  126OSM    H3S13416   5.349   2.792   6.874  0.5024 -0.1575  0.5587
  126OSM     O313417   5.371   2.599   6.801 -0.1322 -0.1832 -0.2947
  126OSM    HO313418   5.285   2.580   6.762  0.5017 -2.7820 -0.5859
  126OSM    C4S13419   5.423   2.655   7.017  0.1165 -0.2920  0.0011
  126OSM    H4S13420   5.465   2.553   7.016 -1.9070 -1.1578 -0.9134
  126OSM    C5S13421   5.460   2.744   7.118  0.6139 -0.0130 -0.0567
  126OSM    H5S13422   5.416   2.844   7.128  2.2309  0.7756 -0.4443
  126OSM    C6S13423   5.547   2.714   7.237 -0.0671  0.1162  0.1322
  126OSM    H6S13424   5.649   2.756   7.224  0.0523 -0.3750 -0.6376
  126OSM    H6T13425   5.571   2.605   7.244 -1.4530 -0.1212  1.9521
  126OSM    C7S13426   5.485   2.769   7.366 -0.5125 -0.0551 -0.6271
  126OSM    H7S13427   5.386   2.721   7.379  0.1156 -1.6406 -1.4984
  126OSM    H7T13428   5.469   2.877   7.344  1.3812 -0.2026 -3.2140
  126OSM    C8S13429   5.568   2.750   7.489 -0.4359 -0.3846 -0.1954
  126OSM    H8S13430   5.667   2.797   7.475 -0.8378  0.9204  1.1131
  126OSM    H8T13431   5.587   2.642   7.509 -3.1221 -0.3615  3.4988
  126OSM    C9S13432   5.487   2.801   7.610  0.5482  0.2681  0.5010
  126OSM    H9S13433   5.397   2.737   7.621 -0.3930  1.5313  0.3513
  126OSM    H9T13434   5.450   2.905   7.597  1.1264  0.8291  2.9333
  126OSM   C10S13435   5.565   2.798   7.733 -0.2751 -0.1664 -1.0988
  126OSM   H10S13436   5.650   2.870   7.744 -1.8216  1.4989  0.7122
  126OSM   H10T13437   5.588   2.690   7.737 -2.6479 -0.7164 -0.8448
  126OSM   C11S13438   5.486   2.812   7.864 -0.0852  0.5712 -0.4839
  126OSM   H11S13439   5.388   2.760   7.863  1.1649 -2.0565  1.4070
  126OSM   H11T13440   5.457   2.920   7.870 -3.1121 -0.1704  0.0358
  126OSM   C12S13441   5.562   2.753   7.984  0.6193  1.1135 -0.7303
  126OSM   H12S13442   5.632   2.830   8.024  0.8780  0.6664 -0.3139
  126OSM   H12T13443   5.614   2.662   7.947 -1.8808 -0.3640 -0.8384
  126OSM   C13S13444   5.469   2.722   8.106  0.0092  0.0627  0.1244
  126OSM   H13S13445   5.385   2.663   8.065  1.9634 -2.3665 -0.6538
  126OSM   H13T13446   5.434   2.818   8.149 -2.8045 -0.5115 -0.6863
  126OSM   C14S13447   5.541   2.631   8.203  0.1927 -0.7575 -0.0422
  126OSM   H14S13448   5.593   2.549   8.148  1.3725 -0.0500 -0.0090
  126OSM   H14T13449   5.470   2.587   8.277  0.6629 -2.0029 -0.3078
  126OSM   C15S13450   5.648   2.698   8.292 -0.0662 -0.1781  0.9537
  126OSM   H15S13451   5.719   2.760   8.233 -2.0345  1.0297 -0.2538
  126OSM   H15T13452   5.698   2.608   8.336  0.5112 -0.2467  0.1708
  126OSM   C16S13453   5.599   2.775   8.414  0.7284  0.4067  0.2500
  126OSM   H16S13454   5.513   2.728   8.466  1.4032 -0.4986  0.5667
  126OSM   H16T13455   5.574   2.874   8.370  1.8967  0.1874 -0.9501
  126OSM   C17S13456   5.715   2.797   8.509  0.5624 -0.3052  0.0515
  126OSM   H17S13457   5.799   2.835   8.447  0.6803 -0.6448  0.0028
  126OSM   H17T13458   5.743   2.697   8.549  0.7271 -1.6634 -3.1461
  126OSM   C18S13459   5.681   2.889   8.631  0.1778  0.6432  0.3216
  126OSM   H18S13460   5.579   2.857   8.662 -0.0160  0.0011 -0.9110
  126OSM   H18T13461   5.684   2.996   8.603 -1.9637  1.0049  1.2564
  126OSM   H18U13462   5.750   2.871   8.716  1.1228 -0.7293 -0.6877
  126OSM    C1F13463   5.023   2.718   7.120  0.1415  0.0237 -0.8957
  126OSM     OF13464   4.981   2.600   7.117  0.7280 -0.7669  0.2929
  126OSM    C2F13465   4.946   2.826   7.184 -0.4991  0.3075 -0.1296
  126OSM    H2F13466   4.862   2.779   7.239  1.4085 -2.0506  0.9929
  126OSM    H2G13467   4.920   2.895   7.101  1.6785  0.9697 -0.3339
  126OSM    C3F13468   5.035   2.907   7.279  0.0149 -0.2757 -0.0585
  126OSM    H3F13469   4.970   2.979   7.335  0.5823  1.0030 -0.9868
  126OSM    H3G13470   5.105   2.962   7.212 -0.7621 -0.8267 -1.3586
  126OSM    C4F13471   5.109   2.840   7.398  0.7639  0.2665  0.0954
  126OSM    H4F13472   5.165   2.917   7.455 -0.4039  0.6650  0.7417
  126OSM    H4G13473   5.170   2.751   7.371 -0.2788 -1.5440  3.2011
  126OSM    C5F13474   4.997   2.787   7.495 -0.1493 -0.4564  0.5020
  126OSM    H5F13475   4.933   2.721   7.431 -0.9156  0.9708 -0.2711
  126OSM    H5G13476   4.933   2.871   7.530  1.4003  1.4818 -1.1090
  126OSM    C6F13477   5.056   2.707   7.611 -0.5811  0.0559 -0.2301
  126OSM    H6F13478   5.142   2.765   7.649  1.2025 -0.6985 -2.8107
  126OSM    H6G13479   5.090   2.610   7.567  1.3515  0.1061  1.0647
  126OSM    C7F13480   4.959   2.686   7.738  0.0664  0.4524 -0.1811
  126OSM    H7F13481   4.891   2.602   7.711  0.7030 -0.2858  0.4903
  126OSM    H7G13482   4.886   2.770   7.732 -2.4335 -1.5423  0.8442
  126OSM    C8F13483   5.012   2.684   7.882 -0.1008  0.4613  0.2448
  126OSM    H8F13484   5.089   2.604   7.888 -1.8552 -1.5023 -1.4640
  126OSM    H8G13485   4.929   2.649   7.947  0.4903 -1.3310  0.0960
  126OSM    C9F13486   5.068   2.814   7.925 -0.2075 -0.6450 -0.6105
  126OSM    H9F13487   5.119   2.865   7.842  2.3305 -1.6738  0.2417
  126OSM   C10F13488   5.077   2.858   8.056  0.5742  0.1851 -0.0247
  126OSM   H10F13489   5.134   2.952   8.070  0.1239  0.3919  0.4445
  126OSM   C11F13490   5.030   2.795   8.181  0.4743 -0.1777 -0.8735
  126OSM   H11F13491   4.986   2.695   8.160 -1.9487  0.5914  0.2012
  126OSM   H11G13492   4.952   2.855   8.232  2.0660  1.9359 -0.7711
  126OSM   C12F13493   5.148   2.777   8.286 -0.2283  0.4767  0.0822
  126OSM   H12F13494   5.165   2.882   8.320 -3.2381  1.1707 -0.2661
  126OSM   H12G13495   5.246   2.757   8.240  0.2997  1.0620  0.9084
  126OSM   C13F13496   5.105   2.666   8.392  0.1283 -0.3518 -0.8931
  126OSM   H13F13497   5.075   2.573   8.339  0.2309 -0.0601 -1.4788
  126OSM   H13G13498   5.018   2.704   8.449  0.8537  1.2836 -0.8251
  126OSM   C14F13499   5.221   2.642   8.483 -0.2687  0.1670  1.4484
  126OSM   H14F13500   5.216   2.734   8.544 -3.5232  2.2120 -1.5233
  126OSM   H14G13501   5.318   2.649   8.430 -1.2511 -0.1025 -0.4974
  126OSM   C15F13502   5.208   2.515   8.568  0.6267  0.9310  0.3232
  126OSM   H15F13503   5.189   2.438   8.490  1.1203  1.9304 -0.8217
  126OSM   H15G13504   5.124   2.509   8.640 -2.2126 -1.7424 -2.8536
  126OSM   C16F13505   5.332   2.476   8.650 -0.3041 -0.5645  0.6085
  126OSM   H16F13506   5.411   2.474   8.572  0.1040 -2.5040  1.0009
  126OSM   H16G13507   5.317   2.371   8.685 -0.3955 -0.5992  0.4670
  126OSM   C17F13508   5.365   2.563   8.770  0.8866  0.5032  0.6047
  126OSM   H17F13509   5.277   2.576   8.837  0.4651  1.3755 -0.0917
  126OSM   H17G13510   5.371   2.669   8.738  0.0783  0.0516 -1.2124
  126OSM   C18F13511   5.491   2.525   8.837 -0.0809  0.6194 -0.0846
  126OSM   H18F13512   5.495   2.558   8.943  0.0847 -2.7829  1.0949
  126OSM   H18G13513   5.576   2.560   8.774  0.4928  0.3766  0.5501
  126OSM   H18H13514   5.498   2.415   8.846 -1.1303  0.4184 -1.3688
  127OSM      N13515   3.889   3.129   6.468 -0.4839 -0.2821  0.4196
  127OSM    C1513516   3.772   3.211   6.424 -0.1896 -0.1800 -0.4204
  127OSM   H15A13517   3.779   3.313   6.460 -1.7387  0.4550 -1.7960
  127OSM   H15B13518   3.680   3.157   6.440 -1.0937  1.4443  0.1639
  127OSM   H15C13519   3.782   3.221   6.317  1.0532 -1.8060 -0.4897
  127OSM    C1413520   3.856   3.106   6.612 -0.6256  0.7237  0.0635
  127OSM   H14A13521   3.854   3.193   6.677 -0.9137  0.8046 -0.0525
  127OSM   H14B13522   3.919   3.028   6.651 -1.5928 -1.8108 -3.0648
  127OSM   H14C13523   3.754   3.072   6.620 -1.2712  2.5744  0.3937
  127OSM    C1313524   3.882   2.995   6.395  0.1831  0.3478 -0.5363
  127OSM   H13A13525   3.783   2.957   6.417 -0.6612  2.4224 -0.4693
  127OSM   H13B13526   3.967   2.939   6.430  1.4499  4.0369  3.1184
  127OSM   H13C13527   3.892   3.013   6.289 -2.0927  0.3638 -0.8005
  127OSM    C1213528   4.020   3.202   6.443  0.2397 -0.0981 -0.1809
  127OSM   H12A13529   4.023   3.241   6.342 -0.0479 -2.8093 -1.3178
  127OSM   H12B13530   4.098   3.127   6.441  1.9647  1.4418  2.8219
  127OSM    C1113531   4.069   3.306   6.547  0.4621 -0.1609 -0.2213
  127OSM   H11A13532   4.176   3.332   6.531  0.4966  0.3160  0.7190
  127OSM   H11B13533   4.062   3.252   6.644 -3.1439 -1.3123 -0.9739
  127OSM      P13534   3.995   3.511   6.407  0.3195  0.6474  0.0776
  127OSM    O1313535   4.113   3.471   6.334 -0.0688 -0.3012 -0.1293
  127OSM    O1413536   3.867   3.520   6.331 -0.4363  0.4448  0.1628
  127OSM    O1113537   4.027   3.646   6.474 -0.1364 -0.5940  0.3809
  127OSM    O1213538   3.978   3.415   6.538  0.0570  0.2450  0.1399
  127OSM    C1S13539   3.976   3.679   6.603  0.4424 -0.4019  0.3282
  127OSM    H1S13540   3.874   3.637   6.612 -0.1013  0.4477 -1.4087
  127OSM    H1T13541   3.971   3.790   6.600  1.3961 -0.3630 -2.3200
  127OSM     NF13542   3.998   3.705   6.841 -0.3979 -0.2825 -0.0963
  127OSM    HNF13543   4.036   3.787   6.883  0.0964 -1.1610  1.2438
  127OSM    C2S13544   4.060   3.635   6.722  0.1831  0.7626 -0.2201
  127OSM    H2S13545   4.047   3.525   6.735 -1.1772  1.0169  0.7513
  127OSM    C3S13546   4.205   3.676   6.694 -0.0799  0.6451  0.0943
  127OSM    H3S13547   4.206   3.787   6.685 -1.8622  0.5797 -1.4649
  127OSM     O313548   4.265   3.637   6.568 -0.0023 -0.0121  0.2886
  127OSM    HO313549   4.186   3.612   6.519 -0.9502 -2.4467  2.7545
  127OSM    C4S13550   4.293   3.648   6.819 -0.3826 -0.1440 -0.3332
  127OSM    H4S13551   4.261   3.705   6.908 -0.9976 -2.2030  0.8196
  127OSM    C5S13552   4.392   3.562   6.840 -0.3286  0.0599 -0.4818
  127OSM    H5S13553   4.408   3.480   6.769 -0.9880 -1.2180  0.8096
  127OSM    C6S13554   4.462   3.552   6.968 -0.0937 -0.0716 -0.3887
  127OSM    H6S13555   4.520   3.458   6.978  0.6225  0.3272 -0.7180
  127OSM    H6T13556   4.383   3.548   7.046  0.9531 -1.0307  0.6628
  127OSM    C7S13557   4.553   3.670   7.003  0.4509 -0.2081 -0.2926
  127OSM    H7S13558   4.514   3.774   7.009 -0.5247 -0.5896  0.2717
  127OSM    H7T13559   4.634   3.670   6.927  1.4187  0.6529  0.7151
  127OSM    C8S13560   4.624   3.629   7.137 -0.7218  0.3204 -0.2149
  127OSM    H8S13561   4.725   3.674   7.152 -0.1680 -0.9187 -0.1206
  127OSM    H8T13562   4.638   3.519   7.148  0.2329  0.5112  0.6751
  127OSM    C9S13563   4.543   3.658   7.264  0.2044  0.6981 -0.4922
  127OSM    H9S13564   4.433   3.648   7.253  0.4006 -0.1310 -1.8212
  127OSM    H9T13565   4.552   3.768   7.279 -1.7612  0.7874  0.3680
  127OSM   C10S13566   4.590   3.573   7.390  0.1501 -0.1919  0.3291
  127OSM   H10S13567   4.701   3.573   7.380  0.2117 -2.7022  0.4384
  127OSM   H10T13568   4.544   3.472   7.389 -2.2886  0.7910  2.4215
  127OSM   C11S13569   4.545   3.632   7.525  0.2095 -0.1799  0.3194
  127OSM   H11S13570   4.437   3.609   7.527  0.3985 -1.1064  0.3188
  127OSM   H11T13571   4.559   3.742   7.529 -1.1085 -0.0342  1.9843
  127OSM   C12S13572   4.613   3.572   7.641 -0.8072  0.1020  0.0300
  127OSM   H12S13573   4.720   3.574   7.609 -0.5903 -0.6471  0.6950
  127OSM   H12T13574   4.594   3.462   7.638 -1.7677  0.2372 -3.7913
  127OSM   C13S13575   4.591   3.643   7.768  0.8778 -0.0160 -0.1995
  127OSM   H13S13576   4.481   3.639   7.787  1.3571 -0.9509  2.9379
  127OSM   H13T13577   4.616   3.751   7.761  0.7027  0.0873  0.6223
  127OSM   C14S13578   4.663   3.569   7.887  0.0688 -0.0757  0.0768
  127OSM   H14S13579   4.663   3.634   7.977  1.3221  1.5718 -1.0498
  127OSM   H14T13580   4.767   3.545   7.855  0.4705  0.8862  0.6170
  127OSM   C15S13581   4.595   3.435   7.935 -0.2099  0.3724 -0.8861
  127OSM   H15S13582   4.676   3.368   7.972  2.1308  1.0261 -4.3379
  127OSM   H15T13583   4.557   3.393   7.840 -2.1489 -1.7283  0.6887
  127OSM   C16S13584   4.471   3.454   8.028  0.0709 -0.3310  0.0108
  127OSM   H16S13585   4.388   3.470   7.956 -2.1464 -1.9529  2.0569
  127OSM   H16T13586   4.495   3.544   8.089 -0.1116  0.0384 -0.4543
  127OSM   C17S13587   4.439   3.326   8.114 -0.0048 -0.4177  0.3559
  127OSM   H17S13588   4.534   3.288   8.157  0.9090  0.0192 -1.1836
  127OSM   H17T13589   4.401   3.246   8.046 -2.1904 -0.0468  1.0727
  127OSM   C18S13590   4.345   3.362   8.219  0.1259 -0.5750  0.1595
  127OSM   H18S13591   4.244   3.386   8.179 -0.6469  0.0248  2.3660
  127OSM   H18T13592   4.384   3.450   8.275  1.0155 -0.7491 -0.1717
  127OSM   H18U13593   4.318   3.276   8.283 -0.1420 -1.3574 -0.9785
  127OSM    C1F13594   3.876   3.667   6.889  0.1766 -0.2505 -0.0950
  127OSM     OF13595   3.818   3.565   6.849 -0.3162 -0.2756 -0.3570
  127OSM    C2F13596   3.823   3.750   6.994 -0.1184 -0.1758 -0.4523
  127OSM    H2F13597   3.775   3.845   6.962  1.0818  0.0703 -1.5940
  127OSM    H2G13598   3.901   3.783   7.065  0.0730 -2.5926  0.5850
  127OSM    C3F13599   3.734   3.664   7.085 -0.6934 -0.6479 -0.1447
  127OSM    H3F13600   3.798   3.595   7.144 -0.1955  1.1946  1.5700
  127OSM    H3G13601   3.646   3.626   7.027  0.4443 -1.4766 -1.3779
  127OSM    C4F13602   3.683   3.767   7.188 -0.1068  0.0741 -0.4941
  127OSM    H4F13603   3.623   3.846   7.139 -0.4540  0.2058  0.1355
  127OSM    H4G13604   3.771   3.805   7.244 -1.1423 -0.9032  1.9460
  127OSM    C5F13605   3.591   3.693   7.291 -0.6811 -0.3284  0.7167
  127OSM    H5F13606   3.658   3.614   7.332 -0.8844  0.1032  1.9147
  127OSM    H5G13607   3.514   3.636   7.234 -1.4098  3.3204 -2.3714
  127OSM    C6F13608   3.520   3.774   7.399  0.5070  0.3784  0.6196
  127OSM    H6F13609   3.457   3.710   7.464  0.4338  0.7969  0.9644
  127OSM    H6G13610   3.460   3.845   7.337  1.0072 -0.0855 -0.4083
  127OSM    C7F13611   3.611   3.846   7.491  0.5795 -0.7981 -0.4142
  127OSM    H7F13612   3.555   3.915   7.558 -0.3238 -0.4197 -1.5253
  127OSM    H7G13613   3.675   3.916   7.432 -0.0404 -1.9960 -2.6213
  127OSM    C8F13614   3.703   3.748   7.571 -0.6814  0.2965  0.0313
  127OSM    H8F13615   3.763   3.702   7.490 -0.6283  0.3784  0.0239
  127OSM    H8G13616   3.657   3.670   7.636 -0.3512  0.8608  0.9640
  127OSM    C9F13617   3.792   3.837   7.654  0.0169 -0.5174 -0.5212
  127OSM    H9F13618   3.868   3.900   7.605 -1.8796  0.9989 -1.6737
  127OSM   C10F13619   3.773   3.867   7.784  0.1200  0.3592 -0.6785
  127OSM   H10F13620   3.838   3.950   7.817 -0.3572 -0.0174  1.3401
  127OSM   C11F13621   3.662   3.815   7.874 -0.0713 -0.0123  0.2607
  127OSM   H11F13622   3.700   3.721   7.919  3.0024  0.7911 -0.3811
  127OSM   H11G13623   3.568   3.791   7.820 -0.6244  1.8042  0.3505
  127OSM   C12F13624   3.624   3.924   7.977 -0.3562  0.2316 -0.0258
  127OSM   H12F13625   3.619   4.022   7.926 -0.9629  0.8447  1.1614
  127OSM   H12G13626   3.703   3.932   8.056 -0.1738  1.2890 -0.2934
  127OSM   C13F13627   3.490   3.886   8.041 -1.0692 -0.3763  0.2517
  127OSM   H13F13628   3.498   3.782   8.077  2.2994 -0.3651 -0.1933
  127OSM   H13G13629   3.416   3.875   7.958 -1.5900  0.9360  0.5024
  127OSM   C14F13630   3.426   3.972   8.151 -0.2404  0.0138 -0.3935
  127OSM   H14F13631   3.325   3.928   8.165  0.5158 -2.4212 -1.8808
  127OSM   H14G13632   3.404   4.073   8.110  0.9521 -0.7464 -3.1397
  127OSM   C15F13633   3.501   3.966   8.283  0.6262 -0.5576 -0.2317
  127OSM   H15F13634   3.607   3.987   8.255  1.0928 -1.8951  0.4096
  127OSM   H15G13635   3.507   3.857   8.308  3.8113 -0.5852 -0.6227
  127OSM   C16F13636   3.435   4.045   8.393  0.1275 -0.2769  0.6126
  127OSM   H16F13637   3.451   3.995   8.491  3.4592 -0.9655 -0.1529
  127OSM   H16G13638   3.327   4.051   8.371  0.6453  3.4687 -1.6622
  127OSM   C17F13639   3.481   4.194   8.389 -0.1204  0.0042 -0.2172
  127OSM   H17F13640   3.454   4.233   8.289  0.7970 -2.6857 -1.6331
  127OSM   H17G13641   3.591   4.208   8.386 -0.2929  1.4632 -3.6089
  127OSM   C18F13642   3.424   4.265   8.505  0.0998 -0.3986 -0.4815
  127OSM   H18F13643   3.467   4.365   8.523  0.6436 -0.8710  0.9590
  127OSM   H18G13644   3.454   4.216   8.599 -3.2351  0.2126  1.0723
  127OSM   H18H13645   3.313   4.270   8.511  0.1484  2.8809 -0.5244
  128OSM      N13646   1.437   0.573   6.197 -0.1950 -0.5724  0.1116
  128OSM    C1513647   1.516   0.614   6.077 -0.0855 -0.4791  0.3596
  128OSM   H15A13648   1.472   0.569   5.990 -0.0455  0.1412  0.0087
  128OSM   H15B13649   1.620   0.587   6.088 -0.2018 -0.5646  1.3840
  128OSM   H15C13650   1.493   0.719   6.067  0.4518 -0.2252  1.5837
  128OSM    C1413651   1.489   0.652   6.315 -0.5518 -0.1506  0.3616
  128OSM   H14A13652   1.458   0.756   6.313  0.1197  0.0698  0.9835
  128OSM   H14B13653   1.594   0.643   6.338 -1.1260 -2.5039  2.4826
  128OSM   H14C13654   1.453   0.617   6.410 -1.0146  2.3810  1.2012
  128OSM    C1313655   1.289   0.602   6.166  0.3216  0.3834  0.6797
  128OSM   H13A13656   1.225   0.583   6.251 -0.4825  1.9052  0.4526
  128OSM   H13B13657   1.255   0.536   6.088 -1.5170  1.3871  0.5924
  128OSM   H13C13658   1.263   0.704   6.140 -0.0742  0.3968  1.1070
  128OSM    C1213659   1.448   0.422   6.201 -0.1685  0.2272 -0.4757
  128OSM   H12A13660   1.554   0.405   6.201  0.1395  1.6377  1.8031
  128OSM   H12B13661   1.406   0.378   6.112  1.1846 -0.8006 -0.6353
  128OSM    C1113662   1.387   0.347   6.327  0.4141  0.3409 -0.0933
  128OSM   H11A13663   1.458   0.381   6.405  0.8590 -0.3920 -0.1675
  128OSM   H11B13664   1.405   0.237   6.327 -3.7402 -0.5298 -0.4594
  128OSM      P13665   1.134   0.283   6.293 -0.3560  0.3868 -0.4589
  128OSM    O1313666   1.020   0.367   6.259 -0.4772 -0.4189  0.1292
  128OSM    O1413667   1.187   0.212   6.172  0.5334 -0.2930  0.6662
  128OSM    O1113668   1.094   0.191   6.419 -0.0473 -0.2742  0.1535
  128OSM    O1213669   1.250   0.386   6.348  0.2522  0.3422 -0.3041
  128OSM    C1S13670   1.128   0.225   6.552 -0.1222  0.0098  0.3766
  128OSM    H1S13671   1.100   0.330   6.573  1.2179  0.5340 -0.3286
  128OSM    H1T13672   1.239   0.227   6.565 -0.0732  0.2339 -0.0810
  128OSM     NF13673   1.126   0.140   6.786 -0.0492 -0.2110  0.5270
  128OSM    HNF13674   1.206   0.096   6.827  0.7295 -1.0484 -1.7505
  128OSM    C2S13675   1.080   0.109   6.646 -0.5159 -0.2622 -0.7822
  128OSM    H2S13676   0.969   0.103   6.636 -0.4726  0.9301 -2.3453
  128OSM    C3S13677   1.122  -0.031   6.600 -0.3007  0.8135 -0.7124
  128OSM    H3S13678   1.233  -0.032   6.610 -0.4572  2.6721  3.4830
  128OSM     O313679   1.086  -0.068   6.466 -0.2065  0.1377 -1.0351
  128OSM    HO313680   1.051   0.008   6.418 -1.6829 -1.4626 -2.6291
  128OSM    C4S13681   1.071  -0.131   6.695  0.2840  0.9273  0.2756
  128OSM    H4S13682   1.142  -0.145   6.777  0.3554  1.6968  0.3486
  128OSM    C5S13683   0.950  -0.192   6.697 -0.2374  0.0268 -0.0247
  128OSM    H5S13684   0.873  -0.162   6.624  0.4879 -1.8815 -1.6463
  128OSM    C6S13685   0.909  -0.289   6.805 -0.2520  0.1748  0.2078
  128OSM    H6S13686   0.919  -0.391   6.762 -1.4547  0.3840 -0.6292
  128OSM    H6T13687   0.802  -0.278   6.832 -0.1216  0.0682  0.7806
  128OSM    C7S13688   0.991  -0.288   6.939 -0.0893 -0.6828 -0.6615
  128OSM    H7S13689   1.093  -0.316   6.906  0.9738  2.7000 -0.6480
  128OSM    H7T13690   0.943  -0.361   7.008 -2.1326  1.1483 -0.0403
  128OSM    C8S13691   0.996  -0.152   7.028  0.0789 -0.3039  0.4202
  128OSM    H8S13692   0.892  -0.132   7.061  0.1011  0.0641  0.2649
  128OSM    H8T13693   1.033  -0.073   6.959  4.8095 -0.4475  2.4153
  128OSM    C9S13694   1.102  -0.159   7.146  0.4939 -0.0090  0.0160
  128OSM    H9S13695   1.183  -0.085   7.125  0.0193  0.1330 -1.3850
  128OSM    H9T13696   1.143  -0.262   7.156 -0.6726 -0.5014 -0.0669
  128OSM   C10S13697   1.040  -0.121   7.279  0.8925 -0.3434 -0.0282
  128OSM   H10S13698   0.962  -0.043   7.266  0.0266 -1.0690  0.6866
  128OSM   H10T13699   1.119  -0.085   7.348 -0.2214 -1.1047  1.7191
  128OSM   C11S13700   0.986  -0.243   7.360 -0.3510 -0.4231  0.5565
  128OSM   H11S13701   0.915  -0.308   7.304 -0.7575  0.3912  0.1049
  128OSM   H11T13702   0.916  -0.197   7.433 -1.2952  0.3832 -0.8158
  128OSM   C12S13703   1.091  -0.335   7.415  0.0067  0.0011 -0.3454
  128OSM   H12S13704   1.180  -0.280   7.453 -1.3688  1.1246  1.4618
  128OSM   H12T13705   1.120  -0.408   7.336  2.8237  0.4409  0.1826
  128OSM   C13S13706   1.032  -0.422   7.531 -0.5212 -0.2701  0.8461
  128OSM   H13S13707   1.075  -0.525   7.522  0.3683  0.1445  0.2434
  128OSM   H13T13708   0.921  -0.415   7.535 -0.5919  1.0476 -1.6808
  128OSM   C14S13709   1.082  -0.357   7.662  0.8627  0.5452  0.7315
  128OSM   H14S13710   1.050  -0.251   7.654  0.4332  0.4045  0.5448
  128OSM   H14T13711   1.192  -0.369   7.669  0.5959 -2.3332  1.3092
  128OSM   C15S13712   1.013  -0.415   7.787 -0.2426 -0.2490 -0.3931
  128OSM   H15S13713   1.052  -0.516   7.813  1.6494  0.0921 -1.7578
  128OSM   H15T13714   0.903  -0.424   7.772 -0.6154 -0.1143  1.9883
  128OSM   C16S13715   1.039  -0.331   7.910  0.1068  0.4195 -0.0774
  128OSM   H16S13716   1.043  -0.229   7.866 -1.5622  0.1407 -0.9821
  128OSM   H16T13717   1.144  -0.348   7.942  1.0892 -0.1118 -3.1671
  128OSM   C17S13718   0.936  -0.342   8.022 -0.0546  0.4962  0.3173
  128OSM   H17S13719   0.843  -0.287   7.996  1.2821  2.5239 -0.4065
  128OSM   H17T13720   0.983  -0.281   8.102 -0.8515  0.8739  0.5037
  128OSM   C18S13721   0.911  -0.483   8.068  0.0074  0.4316  0.4811
  128OSM   H18S13722   0.834  -0.488   8.148  0.1914  0.7661  0.6816
  128OSM   H18T13723   1.007  -0.529   8.100  0.3751  0.4145 -0.6153
  128OSM   H18U13724   0.868  -0.549   7.989  2.4074 -1.7587  0.9013
  128OSM    C1F13725   1.085   0.246   6.851  0.0315 -0.1578  0.6589
  128OSM     OF13726   1.008   0.319   6.794  0.0663 -0.0514  0.1213
  128OSM    C2F13727   1.130   0.269   6.992  0.1168 -0.0503  0.2885
  128OSM    H2F13728   1.230   0.317   6.996  0.7099 -1.2270  0.0710
  128OSM    H2G13729   1.145   0.173   7.046 -0.4991 -0.3126  0.0058
  128OSM    C3F13730   1.030   0.354   7.075 -0.0582  0.2639 -0.4290
  128OSM    H3F13731   0.935   0.296   7.083 -0.1060  0.5629  1.7720
  128OSM    H3G13732   1.013   0.455   7.031  1.8176 -0.0536 -2.0287
  128OSM    C4F13733   1.096   0.360   7.216  0.8136 -0.2134  0.0128
  128OSM    H4F13734   1.186   0.425   7.210  0.0681  0.8668  0.1765
  128OSM    H4G13735   1.128   0.259   7.247 -0.7890 -0.3649  1.3168
  128OSM    C5F13736   0.999   0.406   7.323  0.0257 -0.2721 -0.6990
  128OSM    H5F13737   0.903   0.357   7.298  0.8659 -2.4915  0.1933
  128OSM    H5G13738   0.976   0.513   7.303  1.3533 -0.3543 -3.1423
  128OSM    C6F13739   1.043   0.375   7.469  0.0316  0.1564  0.4793
  128OSM    H6F13740   0.988   0.439   7.541  0.0705 -0.3723  0.9840
  128OSM    H6G13741   1.152   0.399   7.468  0.1700 -0.4299 -1.0383
  128OSM    C7F13742   1.006   0.232   7.508 -0.8467 -0.0105 -0.2026
  128OSM    H7F13743   1.032   0.158   7.429 -0.3068  0.1090 -0.1378
  128OSM    H7G13744   0.895   0.233   7.508 -0.8778 -0.4250 -1.6816
  128OSM    C8F13745   1.049   0.203   7.652 -0.5314 -0.3478  0.4010
  128OSM    H8F13746   1.022   0.280   7.727  0.4347 -0.9902  1.4390
  128OSM    H8G13747   1.160   0.202   7.647 -0.3884  0.3384  2.5913
  128OSM    C9F13748   1.007   0.064   7.678 -0.3806 -0.8637  0.5889
  128OSM    H9F13749   1.026  -0.007   7.597 -2.2932  0.5401 -1.2035
  128OSM   C10F13750   0.925   0.027   7.779  0.0734  0.9330  0.2835
  128OSM   H10F13751   0.912  -0.080   7.802 -0.1177  0.8706 -0.1081
  128OSM   C11F13752   0.862   0.115   7.885 -0.2935  0.2034 -0.0415
  128OSM   H11F13753   0.752   0.104   7.873 -0.4466  1.5625 -0.0640
  128OSM   H11G13754   0.870   0.225   7.871 -0.7538  0.3811  0.9549
  128OSM   C12F13755   0.890   0.060   8.028 -0.2375  0.0541  0.7478
  128OSM   H12F13756   0.999   0.084   8.036 -0.1871  0.5388 -1.0714
  128OSM   H12G13757   0.876  -0.050   8.033  1.1609 -0.1889 -0.2091
  128OSM   C13F13758   0.804   0.129   8.144  0.2772 -0.6811 -0.4625
  128OSM   H13F13759   0.710   0.072   8.157 -0.8184  1.6432  3.3396
  128OSM   H13G13760   0.784   0.233   8.111 -0.4268 -0.5398  0.3935
  128OSM   C14F13761   0.877   0.121   8.281 -0.1926  0.2958 -0.1977
  128OSM   H14F13762   0.959   0.195   8.271  0.4085 -0.5566 -2.1511
  128OSM   H14G13763   0.930   0.023   8.288  0.5768  0.8112  2.3813
  128OSM   C15F13764   0.777   0.148   8.386  0.5239 -0.2225 -0.0435
  128OSM   H15F13765   0.698   0.072   8.370  1.0829 -0.5923 -1.1128
  128OSM   H15G13766   0.727   0.245   8.367 -0.5179 -0.5207  1.0207
  128OSM   C16F13767   0.849   0.143   8.520 -0.7008 -0.7840 -0.1588
  128OSM   H16F13768   0.778   0.189   8.592  0.8474  1.7571 -0.1543
  128OSM   H16G13769   0.937   0.210   8.513 -1.9472  0.9979  0.4933
  128OSM   C17F13770   0.890   0.008   8.567  0.0615  0.4654  0.0444
  128OSM   H17F13771   0.946  -0.051   8.491 -0.5384  2.8304 -2.3971
  128OSM   H17G13772   0.807  -0.059   8.597 -0.8513  1.8028  0.6086
  128OSM   C18F13773   0.972   0.001   8.700 -0.2308  0.1513  0.3931
  128OSM   H18F13774   0.913   0.045   8.783 -0.8073 -0.1412  0.1403
  128OSM   H18G13775   1.066   0.060   8.689 -0.1682 -0.0978 -0.4375
  128OSM   H18H13776   1.003  -0.102   8.728  2.6015  0.0775 -2.4442
  129OSM      N13777   1.744   1.841   5.987  0.4430  0.8043 -0.0773
  129OSM    C1513778   1.854   1.863   5.887  0.0039 -0.0056  0.0165
  129OSM   H15A13779   1.880   1.968   5.886 -0.1436  0.0314 -1.1375
  129OSM   H15B13780   1.804   1.841   5.793 -1.0230 -1.5661  0.8779
  129OSM   H15C13781   1.949   1.818   5.915  0.2587  1.2577  1.2966
  129OSM    C1413782   1.638   1.957   5.976 -0.4715  0.5904  0.2349
  129OSM   H14A13783   1.608   1.971   5.873  1.2712  3.5774  0.0286
  129OSM   H14B13784   1.662   2.050   6.024 -0.5255  0.6234  0.1990
  129OSM   H14C13785   1.550   1.928   6.032 -0.7789  2.4199  0.7584
  129OSM    C1313786   1.675   1.716   5.951 -0.9329 -0.0586 -0.9154
  129OSM   H13A13787   1.637   1.741   5.853 -0.7679  5.3037  0.1076
  129OSM   H13B13788   1.600   1.685   6.022  0.4938 -2.9479 -0.5341
  129OSM   H13C13789   1.745   1.634   5.940 -2.0970 -1.0096 -1.3645
  129OSM    C1213790   1.791   1.840   6.135  0.0392 -0.3296  0.7768
  129OSM   H12A13791   1.812   1.945   6.150  0.4218  0.1682 -2.6141
  129OSM   H12B13792   1.874   1.770   6.140  0.6288  0.1669 -1.1719
  129OSM    C1113793   1.682   1.808   6.237  0.3482  0.7199  0.5728
  129OSM   H11A13794   1.608   1.891   6.236  0.4843  0.9425  3.0819
  129OSM   H11B13795   1.740   1.825   6.330 -0.8473  0.4961  1.3818
  129OSM      P13796   1.687   1.546   6.269 -0.0664  0.0243  0.3606
  129OSM    O1313797   1.587   1.441   6.284  0.2323 -0.0640  0.3447
  129OSM    O1413798   1.806   1.512   6.183 -0.4888  0.0132 -0.7984
  129OSM    O1113799   1.731   1.583   6.413  0.1108 -0.1093  0.5949
  129OSM    O1213800   1.615   1.683   6.221  0.1454  0.3050 -0.1312
  129OSM    C1S13801   1.630   1.601   6.512 -0.2372 -0.9134  0.6394
  129OSM    H1S13802   1.575   1.506   6.527 -1.7599 -0.4048 -1.2953
  129OSM    H1T13803   1.569   1.687   6.478  1.5641  0.5449  0.9351
  129OSM     NF13804   1.576   1.636   6.750 -0.0307  0.2418  0.1282
  129OSM    HNF13805   1.547   1.724   6.786 -0.7566 -0.9527  2.7597
  129OSM    C2S13806   1.690   1.645   6.656  0.3662  0.0633  0.6605
  129OSM    H2S13807   1.764   1.567   6.684  0.8570 -0.1577 -1.1213
  129OSM    C3S13808   1.769   1.766   6.652 -0.1357 -0.8821 -0.2098
  129OSM    H3S13809   1.698   1.851   6.645 -0.7215 -1.4602 -1.5952
  129OSM     O313810   1.860   1.780   6.542 -0.7121 -0.2557 -0.0685
  129OSM    HO313811   1.848   1.697   6.495  0.6665 -0.1636 -0.6434
  129OSM    C4S13812   1.826   1.795   6.791  0.2548 -0.7063 -0.7481
  129OSM    H4S13813   1.747   1.845   6.850 -0.2483 -0.4090 -1.6448
  129OSM    C5S13814   1.934   1.734   6.848  0.6521  0.0382 -0.2224
  129OSM    H5S13815   1.989   1.674   6.774  2.0780 -0.9884  1.5762
  129OSM    C6S13816   1.988   1.746   6.987 -0.2859 -0.1620 -0.2563
  129OSM    H6S13817   1.922   1.797   7.060  1.0685 -0.5614  1.3136
  129OSM    H6T13818   2.086   1.800   6.991 -1.1050  1.3244  0.8862
  129OSM    C7S13819   2.014   1.599   7.033  0.1774 -0.4740  1.1187
  129OSM    H7S13820   2.090   1.558   6.963 -0.5055  0.4531 -0.1865
  129OSM    H7T13821   1.918   1.543   7.035 -0.1565  0.0865  0.8796
  129OSM    C8S13822   2.076   1.587   7.175 -0.1048 -0.1225  0.1842
  129OSM    H8S13823   2.083   1.686   7.225 -0.0505  0.0127 -0.0856
  129OSM    H8T13824   2.180   1.563   7.144  0.5923  3.0649 -0.3425
  129OSM    C9S13825   2.009   1.484   7.268 -0.1469 -0.1095  0.0500
  129OSM    H9S13826   1.981   1.384   7.230  1.6706 -0.6302  0.0043
  129OSM    H9T13827   1.916   1.538   7.295  0.5664  2.6365 -2.4949
  129OSM   C10S13828   2.093   1.459   7.391  0.3697 -0.1052 -0.1270
  129OSM   H10S13829   2.154   1.548   7.417 -2.5464  1.7770  0.8086
  129OSM   H10T13830   2.164   1.376   7.373  1.0183  0.0603  1.4568
  129OSM   C11S13831   2.015   1.414   7.519 -0.7834  0.4271  0.0299
  129OSM   H11S13832   1.969   1.313   7.507  3.4262 -1.6478 -0.3831
  129OSM   H11T13833   1.936   1.492   7.531  0.3497  1.5099  0.6311
  129OSM   C12S13834   2.099   1.417   7.649 -0.4554 -0.0213  0.1042
  129OSM   H12S13835   2.139   1.516   7.680 -1.4583  1.4670 -2.9194
  129OSM   H12T13836   2.187   1.353   7.632 -0.3721 -0.2989  1.4592
  129OSM   C13S13837   2.019   1.361   7.763 -0.2228  0.1612 -0.2437
  129OSM   H13S13838   2.006   1.252   7.746  1.3699 -0.2608  1.0570
  129OSM   H13T13839   1.913   1.391   7.749 -1.2142 -2.1281  1.6413
  129OSM   C14S13840   2.062   1.393   7.903 -0.3201  0.5161  0.0053
  129OSM   H14S13841   2.057   1.502   7.924 -0.8541  0.5180 -0.1311
  129OSM   H14T13842   2.170   1.368   7.910 -0.3553  0.4771  0.5008
  129OSM   C15S13843   1.989   1.317   8.008  0.0476  0.0313 -0.5862
  129OSM   H15S13844   1.972   1.212   7.975  0.4455  0.3977 -2.0380
  129OSM   H15T13845   1.891   1.366   8.029  0.4039  0.4677  0.0838
  129OSM   C16S13846   2.066   1.321   8.140 -1.0546  0.3127 -0.1225
  129OSM   H16S13847   2.087   1.427   8.167 -0.9700  0.3550 -0.3567
  129OSM   H16T13848   2.166   1.273   8.130 -0.2955  1.7001  0.5165
  129OSM   C17S13849   1.990   1.282   8.262 -0.4618  0.1842 -0.0675
  129OSM   H17S13850   1.957   1.177   8.248 -2.4799  0.7613  0.1436
  129OSM   H17T13851   1.898   1.343   8.272 -0.4710  0.2445 -0.5036
  129OSM   C18S13852   2.066   1.284   8.396 -0.4176  0.1802  0.6863
  129OSM   H18S13853   1.981   1.257   8.462 -2.0508 -0.5777 -1.6413
  129OSM   H18T13854   2.109   1.385   8.415  0.4591 -0.4599  2.4545
  129OSM   H18U13855   2.135   1.196   8.397 -0.2412  0.3150  1.2389
  129OSM    C1F13856   1.507   1.532   6.800  0.0675 -0.5400  0.4207
  129OSM     OF13857   1.551   1.420   6.796  0.2238 -0.3414  0.1983
  129OSM    C2F13858   1.376   1.563   6.867 -0.0874  0.2549  0.1764
  129OSM    H2F13859   1.313   1.471   6.869 -1.7177  1.3141  2.5648
  129OSM    H2G13860   1.322   1.642   6.812  0.1554 -0.6231 -1.3872
  129OSM    C3F13861   1.397   1.601   7.006 -0.1519  0.5594 -0.0314
  129OSM    H3F13862   1.432   1.706   7.005 -0.6172  0.7280  0.6112
  129OSM    H3G13863   1.463   1.524   7.053 -1.6934 -1.8131 -1.5349
  129OSM    C4F13864   1.269   1.600   7.094  0.0032  0.2580  0.5310
  129OSM    H4F13865   1.215   1.504   7.079  0.1325  0.1475  0.7574
  129OSM    H4G13866   1.194   1.668   7.049  1.9413  2.3831  0.3027
  129OSM    C5F13867   1.274   1.624   7.243 -0.6367 -0.2860 -0.8165
  129OSM    H5F13868   1.363   1.689   7.255  0.6954 -2.0966 -0.3239
  129OSM    H5G13869   1.302   1.531   7.298  3.6878 -0.4461 -2.9417
  129OSM    C6F13870   1.147   1.692   7.311 -0.4287  0.6335  1.1955
  129OSM    H6F13871   1.062   1.634   7.269  1.4875 -1.8384  0.4577
  129OSM    H6G13872   1.133   1.799   7.285 -1.9157  0.6774  2.0690
  129OSM    C7F13873   1.144   1.688   7.466 -0.0905  0.1846 -0.0331
  129OSM    H7F13874   1.051   1.743   7.493 -0.3587 -0.2861  0.0239
  129OSM    H7G13875   1.231   1.748   7.501 -0.7087  1.5214 -0.7321
  129OSM    C8F13876   1.146   1.554   7.529  0.1339  0.1249 -0.2844
  129OSM    H8F13877   1.231   1.574   7.599 -0.4692 -0.7093  0.7090
  129OSM    H8G13878   1.154   1.468   7.460 -2.1708 -0.4916  0.1319
  129OSM    C9F13879   1.026   1.526   7.611 -0.1749  0.3594 -0.0378
  129OSM    H9F13880   0.933   1.562   7.565 -1.0482  0.3449  1.6254
  129OSM   C10F13881   1.020   1.462   7.731  0.4216  0.6572 -0.1355
  129OSM   H10F13882   0.926   1.443   7.783  1.4975 -0.0363  1.6317
  129OSM   C11F13883   1.141   1.410   7.807  0.4772  0.8030 -0.4745
  129OSM   H11F13884   1.239   1.459   7.789  2.2537 -0.7860  3.5167
  129OSM   H11G13885   1.160   1.300   7.797  0.4871  0.7156  0.3842
  129OSM   C12F13886   1.119   1.427   7.954  0.1679  0.2626  0.1469
  129OSM   H12F13887   1.030   1.367   7.983 -0.9379  0.3199 -2.7457
  129OSM   H12G13888   1.099   1.536   7.962 -0.2216  0.3791 -1.9252
  129OSM   C13F13889   1.251   1.390   8.030  0.8690  0.6125  0.1588
  129OSM   H13F13890   1.319   1.477   8.014  1.1664  0.6738  1.6457
  129OSM   H13G13891   1.290   1.294   7.992 -0.8976  0.7528 -2.2135
  129OSM   C14F13892   1.235   1.378   8.186  0.3992  0.2105 -0.4444
  129OSM   H14F13893   1.144   1.320   8.210  0.6338  0.7431  2.0648
  129OSM   H14G13894   1.211   1.481   8.220 -1.3489 -0.5356  0.7209
  129OSM   C15F13895   1.359   1.321   8.265  0.0092 -0.1826 -0.3033
  129OSM   H15F13896   1.372   1.216   8.233 -1.8587 -0.4727 -0.2412
  129OSM   H15G13897   1.334   1.314   8.373 -0.6711 -0.5467 -0.4771
  129OSM   C16F13898   1.478   1.409   8.235  0.0334 -0.0591 -0.2111
  129OSM   H16F13899   1.456   1.512   8.268 -0.1760 -0.0698 -0.3173
  129OSM   H16G13900   1.498   1.420   8.126 -1.6442  0.6100 -0.4791
  129OSM   C17F13901   1.611   1.364   8.304  0.4955  0.0423 -0.0482
  129OSM   H17F13902   1.680   1.415   8.234  0.7204 -0.8122 -0.4649
  129OSM   H17G13903   1.612   1.253   8.298 -0.0330  0.0395 -0.1494
  129OSM   C18F13904   1.655   1.420   8.434  0.4771 -0.4916  0.2081
  129OSM   H18F13905   1.654   1.531   8.433 -0.1719 -0.4804 -1.6011
  129OSM   H18G13906   1.763   1.398   8.450  0.7109 -0.7425 -1.5319
  129OSM   H18H13907   1.591   1.390   8.520 -1.4813  0.1130 -0.9781
  130OSM      N13908   3.090   5.251   6.034 -0.1268  0.0811  0.8129
  130OSM    C1513909   2.945   5.236   6.028  0.3233 -0.6220 -0.8145
  130OSM   H15A13910   2.906   5.139   6.003 -1.8017 -0.1881  0.5215
  130OSM   H15B13911   2.905   5.310   5.960  1.9573 -0.4783 -1.6671
  130OSM   H15C13912   2.914   5.242   6.131 -1.4392 -1.3689 -1.2699
  130OSM    C1413913   3.136   5.139   6.119  0.2611 -0.3691 -0.7372
  130OSM   H14A13914   3.096   5.044   6.085 -0.9534  0.1183 -0.7349
  130OSM   H14B13915   3.105   5.158   6.220  2.7634  2.3073 -0.3229
  130OSM   H14C13916   3.243   5.136   6.104  0.1075  1.8992 -3.0131
  130OSM    C1313917   3.141   5.247   5.893 -0.5423 -0.3436 -0.1317
  130OSM   H13A13918   3.100   5.333   5.841  1.0246  2.4311  2.8505
  130OSM   H13B13919   3.114   5.165   5.829  1.9080 -0.6266 -0.9180
  130OSM   H13C13920   3.249   5.242   5.889 -0.5641 -2.2764  0.6199
  130OSM    C1213921   3.122   5.393   6.089  0.2679  0.7650 -0.2282
  130OSM   H12A13922   3.091   5.464   6.013  0.9427  0.8428 -0.4421
  130OSM   H12B13923   3.226   5.417   6.104  0.0545  1.0775  0.8214
  130OSM    C1113924   3.048   5.448   6.207  0.5371  0.8517 -0.4864
  130OSM   H11A13925   2.941   5.430   6.185  0.7722  1.4518 -2.3595
  130OSM   H11B13926   3.058   5.558   6.214 -0.7728  0.8753  1.8721
  130OSM      P13927   3.013   5.381   6.460 -0.0101  0.1332  0.1482
  130OSM    O1313928   2.874   5.422   6.443 -0.3912  0.2881  0.3498
  130OSM    O1413929   3.036   5.255   6.532 -0.5537  0.1391  0.0821
  130OSM    O1113930   3.093   5.484   6.552 -0.1010  0.2151  0.2042
  130OSM    O1213931   3.094   5.380   6.325 -0.0161  0.0889  0.5182
  130OSM    C1S13932   3.032   5.579   6.633 -0.0708  0.1676 -0.2537
  130OSM    H1S13933   2.926   5.599   6.607 -0.8649 -1.3011  1.6777
  130OSM    H1T13934   3.090   5.674   6.621 -0.9275  0.6395 -0.7470
  130OSM     NF13935   2.967   5.623   6.862 -0.1227 -0.0354  0.2284
  130OSM    HNF13936   3.021   5.694   6.907 -1.9123 -0.9857  4.3925
  130OSM    C2S13937   3.046   5.532   6.776 -0.5062 -0.9329 -0.0473
  130OSM    H2S13938   3.003   5.431   6.792 -1.8205 -0.8852 -2.8017
  130OSM    C3S13939   3.199   5.531   6.825 -0.3436 -0.1357  0.5531
  130OSM    H3S13940   3.232   5.637   6.828 -0.4686  0.1338 -3.0222
  130OSM     O313941   3.304   5.469   6.752 -0.2077  0.3458  0.0210
  130OSM    HO313942   3.256   5.440   6.674  0.6422  2.1431 -1.2355
  130OSM    C4S13943   3.205   5.479   6.967  0.0659 -0.1212  0.3808
  130OSM    H4S13944   3.192   5.556   7.044  0.4366  2.0625 -1.6175
  130OSM    C5S13945   3.212   5.348   7.007 -0.1249  0.0112 -0.2690
  130OSM    H5S13946   3.208   5.264   6.936  0.1966  0.8554 -1.3140
  130OSM    C6S13947   3.225   5.297   7.148 -0.1293  0.4836 -0.4390
  130OSM    H6S13948   3.283   5.363   7.215  2.3983 -1.0704 -0.9559
  130OSM    H6T13949   3.300   5.216   7.136  1.6284  1.3168  3.4604
  130OSM    C7S13950   3.090   5.255   7.210  0.4539 -0.1265 -0.2670
  130OSM    H7S13951   3.033   5.194   7.137 -1.5956  1.4447 -0.0600
  130OSM    H7T13952   3.021   5.339   7.229 -1.2455 -1.8502  1.7038
  130OSM    C8S13953   3.106   5.191   7.347  0.3388 -0.3595 -0.5260
  130OSM    H8S13954   3.167   5.247   7.421  1.3626 -1.1755 -0.7185
  130OSM    H8T13955   3.167   5.098   7.345  0.1503 -0.5228  0.6585
  130OSM    C9S13956   2.969   5.159   7.409  1.0539 -0.4128  0.8849
  130OSM    H9S13957   2.928   5.078   7.346  5.1031 -2.0193 -0.0196
  130OSM    H9T13958   2.909   5.252   7.403  1.6549 -0.0847 -0.2956
  130OSM   C10S13959   2.979   5.125   7.556  0.4659  0.0269 -0.0809
  130OSM   H10S13960   2.985   5.215   7.622  1.1210 -0.3993  0.4569
  130OSM   H10T13961   3.067   5.062   7.579 -0.1962 -0.7181  0.4644
  130OSM   C11S13962   2.850   5.054   7.606  0.3043  0.5180 -0.2384
  130OSM   H11S13963   2.831   4.966   7.541  0.4849 -0.4161  0.9368
  130OSM   H11T13964   2.763   5.121   7.589  1.3533  1.5578 -1.7650
  130OSM   C12S13965   2.835   5.028   7.764 -0.4188  0.5696 -0.2750
  130OSM   H12S13966   2.756   4.952   7.780 -0.0056  0.0190 -0.8002
  130OSM   H12T13967   2.819   5.126   7.813  0.7925  0.5863  0.1302
  130OSM   C13S13968   2.955   4.959   7.816 -0.9452 -0.1265 -0.3317
  130OSM   H13S13969   3.044   5.020   7.789 -1.8268  1.9190  1.0896
  130OSM   H13T13970   2.963   4.861   7.763  0.1286 -0.9159  1.2089
  130OSM   C14S13971   2.949   4.938   7.967 -0.0075 -0.0820 -0.1212
  130OSM   H14S13972   3.025   4.862   7.997  0.0889  0.6776  1.7129
  130OSM   H14T13973   2.849   4.895   7.989  0.7141 -0.8091  2.0118
  130OSM   C15S13974   2.964   5.067   8.044  0.0161 -0.1260  0.0700
  130OSM   H15S13975   2.919   5.153   7.991 -1.1517 -1.1913 -0.7364
  130OSM   H15T13976   3.074   5.084   8.048  0.4735 -2.8141  0.8795
  130OSM   C16S13977   2.903   5.060   8.187 -0.0786 -0.4602 -0.9167
  130OSM   H16S13978   2.793   5.056   8.167  0.0609  0.3709 -1.8829
  130OSM   H16T13979   2.933   5.151   8.242  1.1311 -1.3061 -0.1300
  130OSM   C17S13980   2.930   4.935   8.270 -0.1487  0.2235  0.9334
  130OSM   H17S13981   3.040   4.925   8.277 -0.2408  0.1800  2.6101
  130OSM   H17T13982   2.897   4.844   8.215 -0.8557  1.4779 -0.8243
  130OSM   C18S13983   2.862   4.946   8.404 -0.5556  0.6584  0.4076
  130OSM   H18S13984   2.758   4.949   8.365  0.5745 -0.2873 -2.9416
  130OSM   H18T13985   2.847   5.042   8.459 -0.1795  0.2073  1.3135
  130OSM   H18U13986   2.878   4.853   8.462 -1.4801 -3.0013 -4.5622
  130OSM    C1F13987   2.832   5.629   6.856  0.0347 -0.2848  0.3015
  130OSM     OF13988   2.762   5.539   6.811  0.3675 -0.7021  0.4964
  130OSM    C2F13989   2.774   5.751   6.925  0.4625 -0.5088 -0.0077
  130OSM    H2F13990   2.707   5.794   6.847  1.4599 -1.4512 -1.4395
  130OSM    H2G13991   2.858   5.821   6.943 -1.0473  1.1868  0.8650
  130OSM    C3F13992   2.693   5.720   7.049  0.0204  0.3565  0.2916
  130OSM    H3F13993   2.633   5.627   7.036  0.6623  0.0394 -0.5102
  130OSM    H3G13994   2.620   5.802   7.070 -2.2563 -1.2008 -1.0412
  130OSM    C4F13995   2.778   5.682   7.172  0.1791  0.2661 -0.4547
  130OSM    H4F13996   2.821   5.778   7.207  2.6002 -1.4711  1.6628
  130OSM    H4G13997   2.859   5.609   7.152  0.6188  0.4014  0.7513
  130OSM    C5F13998   2.703   5.624   7.293  0.2194  0.0049 -0.1593
  130OSM    H5F13999   2.654   5.533   7.252 -0.8639  0.1579  0.7335
  130OSM    H5G14000   2.623   5.693   7.329  2.1018  2.6817 -0.7775
  130OSM    C6F14001   2.786   5.591   7.416 -0.1943 -0.3536  0.6381
  130OSM    H6F14002   2.820   5.682   7.471 -1.6563  1.7366 -1.6983
  130OSM    H6G14003   2.884   5.554   7.379 -0.4786  1.4209 -2.2335
  130OSM    C7F14004   2.714   5.498   7.507 -0.3113 -0.2788  0.4431
  130OSM    H7F14005   2.684   5.412   7.443  1.6511 -0.0437 -0.8783
  130OSM    H7G14006   2.627   5.545   7.558  0.5034  2.6433 -0.6481
  130OSM    C8F14007   2.808   5.448   7.628  0.7410 -0.3702  0.1240
  130OSM    H8F14008   2.900   5.418   7.574  0.0470  0.9970 -1.9284
  130OSM    H8G14009   2.755   5.358   7.666 -1.6381 -0.0615 -2.1736
  130OSM    C9F14010   2.842   5.557   7.726 -0.9385 -0.3519 -0.9226
  130OSM    H9F14011   2.896   5.643   7.684  0.4741 -0.6865  0.1246
  130OSM   C10F14012   2.814   5.555   7.859  0.0161 -0.2752 -0.1312
  130OSM   H10F14013   2.837   5.640   7.924 -2.7570 -0.2887  0.9800
  130OSM   C11F14014   2.743   5.452   7.947 -0.5297 -0.7601  0.5777
  130OSM   H11F14015   2.786   5.357   7.908 -0.8179 -0.7655  0.2634
  130OSM   H11G14016   2.633   5.450   7.934 -0.7730 -1.7395  2.4362
  130OSM   C12F14017   2.766   5.471   8.096  0.1553 -0.4152  0.3087
  130OSM   H12F14018   2.746   5.576   8.126 -2.1415  0.4354 -3.4327
  130OSM   H12G14019   2.872   5.443   8.118  0.3572 -0.5771 -0.8034
  130OSM   C13F14020   2.695   5.373   8.185  0.1815 -0.3911  0.3071
  130OSM   H13F14021   2.737   5.390   8.286 -1.0129  2.2181  0.4600
  130OSM   H13G14022   2.732   5.270   8.168 -0.9739 -0.5452 -1.6192
  130OSM   C14F14023   2.539   5.378   8.189  0.1000 -0.4407  0.2414
  130OSM   H14F14024   2.484   5.379   8.092 -0.7655 -0.7383  0.7161
  130OSM   H14G14025   2.518   5.468   8.250 -1.4267 -0.1565 -0.6423
  130OSM   C15F14026   2.472   5.263   8.260  0.4650 -0.6422 -0.1801
  130OSM   H15F14027   2.512   5.163   8.229  0.6649 -1.3958  2.2607
  130OSM   H15G14028   2.362   5.276   8.257  0.4455  0.0245  2.0273
  130OSM   C16F14029   2.514   5.257   8.409 -0.2566  0.0695 -0.3276
  130OSM   H16F14030   2.482   5.350   8.462 -1.0006  1.0909 -2.4750
  130OSM   H16G14031   2.625   5.253   8.409 -0.1042  2.2363 -2.1454
  130OSM   C17F14032   2.450   5.144   8.478 -0.6914  0.6598  0.2799
  130OSM   H17F14033   2.454   5.059   8.408 -2.7061  0.0397  0.8574
  130OSM   H17G14034   2.340   5.152   8.488 -0.9129 -2.0884  0.7904
  130OSM   C18F14035   2.513   5.089   8.606  0.4239 -0.1530 -0.2731
  130OSM   H18F14036   2.485   4.988   8.643 -0.1745  0.8268  2.1409
  130OSM   H18G14037   2.483   5.152   8.693 -1.0244  1.5509 -1.9138
  130OSM   H18H14038   2.623   5.092   8.593  0.5005 -1.9328 -0.2893
  131OSM      N14039   3.266   6.301   6.204 -0.2563 -0.3727 -0.2173
  131OSM    C1514040   3.298   6.275   6.056  0.0020  0.1000 -0.0031
  131OSM   H15A14041   3.278   6.173   6.027  0.4153 -0.0834  0.3477
  131OSM   H15B14042   3.404   6.290   6.044 -0.3157  0.8986 -2.3314
  131OSM   H15C14043   3.247   6.346   5.993 -1.1961  0.1964  1.0326
  131OSM    C1414044   3.299   6.440   6.242  0.5609 -0.4249 -0.7083
  131OSM   H14A14045   3.271   6.462   6.344  0.0089  1.3846 -1.2119
  131OSM   H14B14046   3.239   6.504   6.179 -0.6702 -1.1606 -0.3171
  131OSM   H14C14047   3.400   6.471   6.221  0.8332  0.3969  1.6141
  131OSM    C1314048   3.116   6.298   6.225 -0.1203  0.4538 -0.5273
  131OSM   H13A14049   3.090   6.295   6.330 -2.0743  1.5761 -0.9308
  131OSM   H13B14050   3.075   6.213   6.173  0.7545 -0.5815  0.4071
  131OSM   H13C14051   3.067   6.388   6.191  0.8731  0.6546 -1.4538
  131OSM    C1214052   3.335   6.208   6.295  0.2621  0.6324  0.1149
  131OSM   H12A14053   3.441   6.215   6.275 -0.0672 -0.6349 -2.4142
  131OSM   H12B14054   3.313   6.105   6.270  2.5616 -0.0742  0.7939
  131OSM    C1114055   3.313   6.215   6.451 -0.6516 -0.3509  0.2869
  131OSM   H11A14056   3.312   6.324   6.476  1.5517  0.1197 -1.3614
  131OSM   H11B14057   3.397   6.170   6.508  0.9819 -1.0799 -2.4811
  131OSM      P14058   3.164   5.997   6.480 -0.1459 -0.2178  0.0228
  131OSM    O1314059   3.017   5.973   6.505 -0.2232 -0.3956 -0.1987
  131OSM    O1414060   3.222   5.946   6.350  0.8162 -0.1951 -0.9147
  131OSM    O1114061   3.250   5.945   6.602 -0.3744 -0.5762  0.9154
  131OSM    O1214062   3.189   6.158   6.485  0.3542  0.1820  0.0381
  131OSM    C1S14063   3.223   6.010   6.730  0.0092  0.7880 -0.5682
  131OSM    H1S14064   3.122   5.985   6.770  1.9944 -2.7007  2.8896
  131OSM    H1T14065   3.254   6.117   6.725  3.1425 -0.0457 -0.8049
  131OSM     NF14066   3.278   5.988   6.966  0.1998 -0.5340 -0.1137
  131OSM    HNF14067   3.335   6.053   7.016 -0.5275  1.8039 -2.1076
  131OSM    C2S14068   3.317   5.942   6.837  0.3556 -0.0381 -0.2044
  131OSM    H2S14069   3.306   5.833   6.820  1.0316 -0.0413 -0.6675
  131OSM    C3S14070   3.465   5.975   6.804 -0.9147  0.2077 -0.6701
  131OSM    H3S14071   3.495   6.079   6.827 -0.8478  0.4949 -1.9907
  131OSM     O314072   3.502   5.949   6.670  0.2548  0.0944 -0.2824
  131OSM    HO314073   3.420   5.936   6.623  0.0093 -0.8018  0.3788
  131OSM    C4S14074   3.542   5.892   6.904  0.0175  0.4137 -1.3233
  131OSM    H4S14075   3.570   5.943   6.997  1.8232 -2.0204 -0.4240
  131OSM    C5S14076   3.565   5.762   6.918  0.2992  0.5462 -0.3048
  131OSM    H5S14077   3.525   5.690   6.845  0.1543 -1.1158  1.3190
  131OSM    C6S14078   3.644   5.696   7.023  0.1879 -0.0628 -0.3808
  131OSM    H6S14079   3.677   5.776   7.093 -0.4355  0.1215 -0.2881
  131OSM    H6T14080   3.727   5.635   6.981  1.2795 -0.2394  1.8588
  131OSM    C7S14081   3.551   5.591   7.097  0.8897 -0.0167 -0.0203
  131OSM    H7S14082   3.618   5.521   7.151  1.3519 -0.1487 -0.7428
  131OSM    H7T14083   3.493   5.543   7.015  0.4017 -0.0927  0.3697
  131OSM    C8S14084   3.463   5.654   7.200  0.7454 -0.4226 -0.6860
  131OSM    H8S14085   3.399   5.572   7.239 -0.3882  1.3047  1.2645
  131OSM    H8T14086   3.404   5.739   7.160  0.4795  0.5268  1.6115
  131OSM    C9S14087   3.548   5.722   7.312  0.3470 -0.2233  0.4021
  131OSM    H9S14088   3.598   5.817   7.285  0.6197 -0.2668  0.7437
  131OSM    H9T14089   3.634   5.655   7.335  0.6842  0.8018  2.3938
  131OSM   C10S14090   3.468   5.739   7.442 -0.3344  0.3739  0.3395
  131OSM   H10S14091   3.408   5.647   7.463  0.0501 -0.3789 -1.6467
  131OSM   H10T14092   3.403   5.829   7.439 -0.3441  0.3542 -1.9607
  131OSM   C11S14093   3.558   5.737   7.570  0.3451  0.5335  0.3742
  131OSM   H11S14094   3.636   5.815   7.560  0.0202  0.6061 -2.7208
  131OSM   H11T14095   3.597   5.635   7.590 -1.3887 -1.4669 -4.7369
  131OSM   C12S14096   3.471   5.763   7.695 -0.2862  0.7711 -0.0093
  131OSM   H12S14097   3.377   5.703   7.690 -0.4371  0.9063  1.0685
  131OSM   H12T14098   3.436   5.868   7.700  1.4189  1.3753 -0.3435
  131OSM   C13S14099   3.543   5.747   7.834  0.5278 -0.1087  0.5064
  131OSM   H13S14100   3.630   5.812   7.855 -0.7000  2.0536 -0.7786
  131OSM   H13T14101   3.580   5.642   7.840  0.5992 -0.1394 -0.3636
  131OSM   C14S14102   3.433   5.773   7.942 -0.6635  0.3696  0.2178
  131OSM   H14S14103   3.353   5.701   7.915  0.3637 -0.1602 -1.5580
  131OSM   H14T14104   3.391   5.876   7.940  0.5098  0.8698  0.6070
  131OSM   C15S14105   3.492   5.750   8.073  0.1582 -0.2985  0.6588
  131OSM   H15S14106   3.422   5.797   8.146  0.2209 -0.1852  0.6457
  131OSM   H15T14107   3.583   5.814   8.082 -1.5767  2.6260 -0.9120
  131OSM   C16S14108   3.516   5.600   8.104  0.6464 -0.1020  0.4158
  131OSM   H16S14109   3.579   5.543   8.033  0.8716 -1.5795  1.7414
  131OSM   H16T14110   3.420   5.544   8.103  1.9791 -2.4577 -0.0183
  131OSM   C17S14111   3.572   5.565   8.240  0.1425  0.5199  0.0281
  131OSM   H17S14112   3.505   5.600   8.321 -2.1614 -1.3959 -0.8927
  131OSM   H17T14113   3.672   5.610   8.254 -1.1609  3.5146  0.5378
  131OSM   C18S14114   3.597   5.413   8.250 -0.3263 -0.6251 -0.4077
  131OSM   H18S14115   3.669   5.394   8.167  0.3139 -1.1944  0.2659
  131OSM   H18T14116   3.510   5.346   8.232  0.7696 -2.5744  1.0607
  131OSM   H18U14117   3.644   5.376   8.344 -0.0935 -2.0094 -1.0380
  131OSM    C1F14118   3.161   5.945   7.015 -0.1410  0.0818  0.0111
  131OSM     OF14119   3.118   5.845   6.968  0.0994  0.0775 -0.0656
  131OSM    C2F14120   3.106   6.015   7.132 -0.4255 -0.0318  0.0807
  131OSM    H2F14121   3.001   6.046   7.111  0.1482  1.4897 -0.7163
  131OSM    H2G14122   3.161   6.111   7.130  1.2543 -0.9304 -2.9475
  131OSM    C3F14123   3.126   5.933   7.264 -0.6071 -0.2863  0.3373
  131OSM    H3F14124   3.226   5.885   7.256 -0.4161  0.3261 -1.5248
  131OSM    H3G14125   3.058   5.845   7.259 -0.8279 -0.1580  1.0140
  131OSM    C4F14126   3.103   6.009   7.393  0.2042  0.4448  0.1145
  131OSM    H4F14127   3.017   6.076   7.372  1.0671  2.3679  2.2685
  131OSM    H4G14128   3.189   6.079   7.402  0.3942  0.7150 -2.7202
  131OSM    C5F14129   3.074   5.919   7.514  0.2300  0.1426 -0.4409
  131OSM    H5F14130   3.140   5.830   7.522 -1.4855 -1.2053 -0.6246
  131OSM    H5G14131   2.969   5.885   7.504  0.7176 -0.9469 -2.4651
  131OSM    C6F14132   3.071   6.002   7.635 -0.6916 -0.5684 -0.0994
  131OSM    H6F14133   2.987   6.074   7.635 -0.9099 -0.8098  0.9624
  131OSM    H6G14134   3.159   6.069   7.649 -1.0329 -0.0256 -0.4941
  131OSM    C7F14135   3.062   5.921   7.765 -0.0187 -0.8831 -0.6382
  131OSM    H7F14136   3.159   5.876   7.796  0.9145  0.4539 -1.4740
  131OSM    H7G14137   2.984   5.842   7.758 -2.1664  1.2253 -1.9438
  131OSM    C8F14138   3.001   6.000   7.884 -0.0049  0.4641  0.1788
  131OSM    H8F14139   2.962   5.926   7.958 -0.9639  0.2743 -0.4947
  131OSM    H8G14140   2.911   6.051   7.843  0.0548 -0.6349 -1.4159
  131OSM    C9F14141   3.103   6.095   7.943  1.1876 -0.6081 -0.4409
  131OSM    H9F14142   3.107   6.185   7.881 -1.4990 -1.6684 -2.3448
  131OSM   C10F14143   3.177   6.077   8.056 -0.5626  1.0559 -0.3418
  131OSM   H10F14144   3.243   6.159   8.085  2.1219 -0.6842 -1.1934
  131OSM   C11F14145   3.176   5.948   8.144  0.0703 -0.0589 -0.6330
  131OSM   H11F14146   3.274   5.930   8.193 -0.4716 -0.0528  0.4843
  131OSM   H11G14147   3.161   5.862   8.075 -1.5000 -0.0664 -0.3033
  131OSM   C12F14148   3.062   5.939   8.244  0.0658 -0.1604  0.0796
  131OSM   H12F14149   2.965   5.945   8.191 -0.1488  0.0463  0.4919
  131OSM   H12G14150   3.067   6.012   8.328  0.8140  0.5007 -0.5313
  131OSM   C13F14151   3.047   5.801   8.318  0.3227 -0.3137 -0.8462
  131OSM   H13F14152   2.939   5.790   8.343  0.4454 -0.4215 -0.3626
  131OSM   H13G14153   3.092   5.808   8.419 -1.2606 -0.5535 -0.0888
  131OSM   C14F14154   3.105   5.673   8.256 -0.2559  0.8087  0.1089
  131OSM   H14F14155   3.214   5.690   8.244 -0.4030  1.1770 -0.7787
  131OSM   H14G14156   3.063   5.644   8.157  0.2248  1.4043 -0.2767
  131OSM   C15F14157   3.080   5.559   8.356  0.5338  0.0719  0.0825
  131OSM   H15F14158   2.972   5.538   8.369  0.8131 -1.9166 -0.4352
  131OSM   H15G14159   3.120   5.579   8.457  1.1536 -2.2358  0.3686
  131OSM   C16F14160   3.135   5.413   8.325  0.1926  0.4801  0.2219
  131OSM   H16F14161   3.245   5.420   8.317  0.0286  2.7107 -0.6820
  131OSM   H16G14162   3.100   5.377   8.225 -1.1894 -1.5338  1.3589
  131OSM   C17F14163   3.114   5.306   8.434 -0.2492  0.0195 -0.5348
  131OSM   H17F14164   3.010   5.269   8.428  0.1005 -0.9024 -1.3432
  131OSM   H17G14165   3.124   5.348   8.536 -0.0411 -1.6951  0.1802
  131OSM   C18F14166   3.201   5.179   8.427  0.6660 -0.5060 -0.2794
  131OSM   H18F14167   3.175   5.121   8.335  1.5062 -0.0926 -0.7922
  131OSM   H18G14168   3.192   5.120   8.520 -3.0169  0.3998  0.0826
  131OSM   H18H14169   3.307   5.212   8.429  0.4638  0.5426 -2.5661
  132OSM      N14170   2.849   0.366   6.132  0.8103 -0.6045  0.4310
  132OSM    C1514171   2.887   0.225   6.159  0.3411  0.3000 -0.3795
  132OSM   H15A14172   2.891   0.193   6.262  0.5305 -0.5049 -0.6277
  132OSM   H15B14173   2.979   0.201   6.108  0.6813  0.7044  0.0332
  132OSM   H15C14174   2.806   0.163   6.125 -1.3847  1.1894  1.8292
  132OSM    C1414175   2.966   0.454   6.176  0.0597 -0.6246 -0.4171
  132OSM   H14A14176   2.992   0.442   6.280 -0.1089  0.0049 -0.2980
  132OSM   H14B14177   2.939   0.556   6.157  1.0518 -0.2897 -0.1136
  132OSM   H14C14178   3.056   0.435   6.118 -0.0101 -0.9736 -0.4132
  132OSM    C1314179   2.827   0.381   5.983  0.4809  0.2863  0.2614
  132OSM   H13A14180   2.746   0.318   5.951 -1.7807  3.0465  0.1148
  132OSM   H13B14181   2.909   0.345   5.923 -0.0829  1.1136 -1.0500
  132OSM   H13C14182   2.811   0.487   5.968 -0.7285 -0.0979 -1.4539
  132OSM    C1214183   2.731   0.411   6.216  0.6033  0.5124  0.1942
  132OSM   H12A14184   2.732   0.518   6.230  1.8706  0.3383  1.6200
  132OSM   H12B14185   2.746   0.371   6.315  0.8705 -1.3211 -0.5495
  132OSM    C1114186   2.589   0.357   6.174 -0.1970  0.1238  0.4361
  132OSM   H11A14187   2.577   0.348   6.064  2.5928 -0.1124  0.0763
  132OSM   H11B14188   2.511   0.428   6.207  0.1070 -0.1485  1.8170
  132OSM      P14189   2.481   0.209   6.354  0.1789 -0.0996 -0.2963
  132OSM    O1314190   2.350   0.275   6.347  0.7508 -0.0879 -0.2913
  132OSM    O1414191   2.483   0.065   6.381  0.2055 -0.2898  0.0672
  132OSM    O1114192   2.572   0.291   6.452 -0.1148 -0.0415 -0.0422
  132OSM    O1214193   2.565   0.228   6.220  0.0821 -0.6457  0.2695
  132OSM    C1S14194   2.519   0.357   6.562  0.6906  0.3447 -0.5854
  132OSM    H1S14195   2.435   0.310   6.618  0.2671 -0.3694 -1.8027
  132OSM    H1T14196   2.489   0.463   6.546 -3.8588 -0.5886  0.2470
  132OSM     NF14197   2.559   0.431   6.790  0.1808 -0.0205  0.5278
  132OSM    HNF14198   2.569   0.531   6.790 -1.7346  0.3616 -3.3068
  132OSM    C2S14199   2.619   0.362   6.678 -0.5552  0.8355 -0.2356
  132OSM    H2S14200   2.637   0.256   6.705  0.7406  1.6140  2.2862
  132OSM    C3S14201   2.751   0.429   6.633  0.0919  0.5946  0.8505
  132OSM    H3S14202   2.732   0.535   6.607  1.9221  1.3575  2.3931
  132OSM     O314203   2.816   0.368   6.525  0.0273 -0.0489 -0.2334
  132OSM    HO314204   2.745   0.318   6.484  0.7052 -0.4644 -0.9367
  132OSM    C4S14205   2.832   0.446   6.761 -0.3053 -0.0241  0.2138
  132OSM    H4S14206   2.792   0.525   6.826 -2.1867  1.7392 -2.8375
  132OSM    C5S14207   2.947   0.382   6.798  1.1216  0.0320 -0.3070
  132OSM    H5S14208   2.969   0.295   6.735 -0.6666 -1.1924  0.6564
  132OSM    C6S14209   3.021   0.400   6.926 -0.2024 -0.4401 -0.4727
  132OSM    H6S14210   3.124   0.439   6.916  0.7686 -1.4206  3.7997
  132OSM    H6T14211   3.048   0.305   6.976  2.3431  0.9065  0.9005
  132OSM    C7S14212   2.951   0.478   7.038 -0.1471  0.1388 -0.2455
  132OSM    H7S14213   2.873   0.415   7.085  1.4900 -0.5874  1.6416
  132OSM    H7T14214   2.903   0.569   6.997  0.0977  0.1965 -0.4078
  132OSM    C8S14215   3.039   0.527   7.163 -0.4549  0.9581  0.2494
  132OSM    H8S14216   3.119   0.592   7.121  1.1767 -2.0457 -1.5923
  132OSM    H8T14217   3.076   0.435   7.213 -2.6370 -0.6443 -0.9183
  132OSM    C9S14218   2.961   0.593   7.278  0.3975 -0.5261 -0.3359
  132OSM    H9S14219   2.866   0.535   7.289  0.7525 -1.5478 -2.2364
  132OSM    H9T14220   2.928   0.694   7.246  0.7230 -0.8066 -1.6235
  132OSM   C10S14221   3.042   0.606   7.409  0.1719  0.3164 -0.2156
  132OSM   H10S14222   3.115   0.690   7.409  0.2867  0.3233  3.0802
  132OSM   H10T14223   3.095   0.510   7.427 -2.9053 -1.2733  1.0501
  132OSM   C11S14224   2.954   0.652   7.530 -0.1959  0.3655  0.3058
  132OSM   H11S14225   2.869   0.580   7.533  0.8370 -0.8834  2.3774
  132OSM   H11T14226   2.917   0.755   7.514  1.2218  0.7152 -0.9260
  132OSM   C12S14227   3.030   0.637   7.664 -0.1862  0.9132 -0.7038
  132OSM   H12S14228   3.098   0.723   7.680 -0.1305  1.1006 -1.8331
  132OSM   H12T14229   3.082   0.539   7.658 -1.1692  0.4757 -2.8947
  132OSM   C13S14230   2.926   0.654   7.776  0.2185 -0.6813  1.0795
  132OSM   H13S14231   2.848   0.575   7.767 -1.0191  0.3836  2.1946
  132OSM   H13T14232   2.874   0.751   7.767  1.5792  0.0176  0.5265
  132OSM   C14S14233   2.985   0.642   7.912 -0.8343 -0.0711 -0.4338
  132OSM   H14S14234   3.057   0.721   7.943  2.6979 -2.6053 -1.5437
  132OSM   H14T14235   3.039   0.545   7.923  0.8466  0.9301  0.5651
  132OSM   C15S14236   2.872   0.631   8.015 -0.2852  0.2066  0.2258
  132OSM   H15S14237   2.800   0.559   7.971 -1.3342  1.0461  0.5167
  132OSM   H15T14238   2.825   0.731   8.024 -0.5285  0.4654 -2.9012
  132OSM   C16S14239   2.944   0.582   8.149  0.4813  0.7838  0.3448
  132OSM   H16S14240   3.031   0.642   8.184 -0.5385  1.3189  2.1092
  132OSM   H16T14241   2.982   0.478   8.140  0.7566  0.9773 -0.8479
  132OSM   C17S14242   2.835   0.580   8.263 -0.2437 -0.2139 -0.1931
  132OSM   H17S14243   2.752   0.511   8.235 -0.9041  1.7453 -3.6947
  132OSM   H17T14244   2.786   0.679   8.266 -1.6287 -0.8669 -0.5947
  132OSM   C18S14245   2.874   0.530   8.407  0.2864 -0.6159 -0.3009
  132OSM   H18S14246   2.954   0.454   8.397  1.7567  0.5983  1.5055
  132OSM   H18T14247   2.786   0.488   8.459 -0.0519  0.2988 -0.1071
  132OSM   H18U14248   2.916   0.607   8.475 -0.6945 -0.8654  0.6080
  132OSM    C1F14249   2.458   0.388   6.853 -0.6396  0.4218 -0.2673
  132OSM     OF14250   2.415   0.270   6.845  0.2768  0.2469  0.3879
  132OSM    C2F14251   2.398   0.476   6.947  0.1158 -0.5324 -1.0520
  132OSM    H2F14252   2.290   0.456   6.961  0.1043 -1.8344 -2.6204
  132OSM    H2G14253   2.407   0.580   6.910 -1.1200 -0.0544 -0.0760
  132OSM    C3F14254   2.469   0.475   7.085 -0.3534 -0.2393 -0.6530
  132OSM    H3F14255   2.576   0.494   7.064  0.5547 -0.9010  2.8334
  132OSM    H3G14256   2.460   0.372   7.125  0.7750 -0.1894 -0.2430
  132OSM    C4F14257   2.430   0.575   7.185 -0.0979 -0.3941 -0.6471
  132OSM    H4F14258   2.320   0.571   7.195 -0.1470  1.4000 -0.1738
  132OSM    H4G14259   2.455   0.678   7.154 -0.7623 -0.1670 -0.4304
  132OSM    C5F14260   2.501   0.556   7.319  0.1669  0.7460 -0.0425
  132OSM    H5F14261   2.611   0.570   7.316 -0.0907  2.9393 -1.2326
  132OSM    H5G14262   2.472   0.453   7.348  0.4212  0.5446 -0.4986
  132OSM    C6F14263   2.453   0.641   7.441  0.1093 -0.3829  0.0603
  132OSM    H6F14264   2.346   0.624   7.466 -0.0325  2.1184  1.5807
  132OSM    H6G14265   2.469   0.746   7.409  0.4755 -0.3626  0.3055
  132OSM    C7F14266   2.539   0.630   7.564  0.0468  0.0770 -0.6676
  132OSM    H7F14267   2.529   0.722   7.626  0.7567 -0.7753  0.7479
  132OSM    H7G14268   2.643   0.638   7.523  1.5387 -1.3275  2.4995
  132OSM    C8F14269   2.515   0.502   7.647  0.3961 -0.4755 -0.4517
  132OSM    H8F14270   2.604   0.492   7.713  0.6672  0.8197 -0.5899
  132OSM    H8G14271   2.520   0.410   7.584 -1.9216 -1.6164  0.8858
  132OSM    C9F14272   2.374   0.500   7.705  0.3434  0.1179  0.0302
  132OSM    H9F14273   2.302   0.442   7.646  1.7966 -2.8996  1.0541
  132OSM   C10F14274   2.336   0.549   7.827  0.5387  0.4755  0.2029
  132OSM   H10F14275   2.227   0.538   7.836  0.7615 -2.6139 -0.0143
  132OSM   C11F14276   2.412   0.612   7.935  0.2236 -0.3794 -0.5243
  132OSM   H11F14277   2.382   0.715   7.962 -1.1696 -0.9612  0.2735
  132OSM   H11G14278   2.518   0.624   7.905  0.4015 -0.3764  0.0786
  132OSM   C12F14279   2.423   0.536   8.075 -0.4728 -0.7278  0.4499
  132OSM   H12F14280   2.506   0.462   8.069  1.7097  1.5413  0.9845
  132OSM   H12G14281   2.324   0.486   8.080 -0.5661 -0.5532  0.3739
  132OSM   C13F14282   2.461   0.620   8.191  0.7458 -0.7103  0.0833
  132OSM   H13F14283   2.380   0.694   8.211 -0.2179 -2.2523  2.2784
  132OSM   H13G14284   2.551   0.682   8.170 -0.6135  1.2088 -0.3505
  132OSM   C14F14285   2.475   0.542   8.316 -0.2936  0.0745  0.4988
  132OSM   H14F14286   2.525   0.597   8.398 -0.0344 -1.4956  1.4352
  132OSM   H14G14287   2.553   0.464   8.298  0.7083  1.2411 -0.3772
  132OSM   C15F14288   2.346   0.478   8.365  0.0140 -0.1390 -0.3927
  132OSM   H15F14289   2.320   0.404   8.286  0.9066 -1.3176  0.3842
  132OSM   H15G14290   2.266   0.552   8.385  0.1420 -0.0652 -0.1497
  132OSM   C16F14291   2.358   0.382   8.487  1.4553 -0.6556  0.3209
  132OSM   H16F14292   2.393   0.438   8.576 -0.1917  0.3596  0.3819
  132OSM   H16G14293   2.438   0.314   8.452  2.1137  0.1150  0.3033
  132OSM   C17F14294   2.226   0.292   8.498 -0.3953  1.2026  0.5109
  132OSM   H17F14295   2.185   0.267   8.397 -1.7250  0.5150  1.1923
  132OSM   H17G14296   2.153   0.359   8.547 -0.9085  0.7701  0.3598
  132OSM   C18F14297   2.260   0.163   8.580 -0.4948  0.4470  0.6219
  132OSM   H18F14298   2.324   0.098   8.516 -1.4049  1.5536 -1.4964
  132OSM   H18G14299   2.178   0.089   8.590  0.8138 -1.0417  0.7187
  132OSM   H18H14300   2.314   0.181   8.675 -1.5672 -1.3872  1.6256
  133SAPE     N14301   5.887   0.926  11.150  0.5746 -0.1964  0.3831
  133SAPE   HN114302   5.887   1.028  11.172 -1.8177 -0.4063  1.6661
  133SAPE   HN214303   5.974   0.885  11.111  1.3106  1.2161  0.4683
  133SAPE   HN314304   5.817   0.914  11.075  1.9459 -2.3020 -0.6296
  133SAPE   C1214305   5.856   0.865  11.282 -0.3952  0.3203 -0.1751
  133SAPE  H12A14306   5.754   0.897  11.314  0.0699  1.3728  0.2842
  133SAPE  H12B14307   5.933   0.900  11.353  0.1958 -2.2205  0.5507
  133SAPE   C1114308   5.851   0.704  11.267 -0.0208  0.2092 -0.0498
  133SAPE  H11A14309   5.759   0.688  11.206  0.5901  0.3835 -1.0511
  133SAPE  H11B14310   5.831   0.671  11.371 -0.2549  0.2775 -0.0747
  133SAPE     P14311   6.009   0.503  11.181 -0.2198 -0.6661 -0.1141
  133SAPE   O1314312   6.140   0.501  11.113 -0.1435 -0.1121 -0.5209
  133SAPE   O1414313   5.989   0.424  11.301  0.6913  0.2346 -0.0154
  133SAPE   O1214314   5.975   0.664  11.212  0.2468  0.4250 -0.2616
  133SAPE   O1114315   5.903   0.462  11.072 -1.2048 -0.5724 -1.1153
  133SAPE    C114316   5.850   0.552  10.978  0.3664  0.0466 -0.1907
  133SAPE    HA14317   5.751   0.514  10.944  0.7343  1.3128 -2.9587
  133SAPE    HB14318   5.826   0.653  11.017 -3.5871 -0.0462 -1.8980
  133SAPE    C214319   5.930   0.572  10.847 -0.0176 -0.1841 -0.3665
  133SAPE    HS14320   6.029   0.616  10.869  1.3605 -1.3433 -3.5609
  133SAPE   O2114321   5.852   0.656  10.761  0.1776 -0.3851  0.5997
  133SAPE   C2114322   5.858   0.792  10.785 -0.5595 -0.4858 -0.4917
  133SAPE   O2214323   5.922   0.836  10.881 -0.2393  0.0096  0.1507
  133SAPE   C2214324   5.783   0.865  10.677  0.4561  0.4219  0.1130
  133SAPE   H2R14325   5.690   0.817  10.642 -0.0120 -0.4052  2.3350
  133SAPE   H2S14326   5.749   0.959  10.725  3.0156  0.4432  2.1342
  133SAPE    C314327   5.958   0.436  10.768 -0.0979 -0.4668 -0.0343
  133SAPE    HX14328   5.860   0.383  10.775 -0.1975 -0.0964  1.9525
  133SAPE    HY14329   6.025   0.375  10.834  1.9225  1.1931 -0.4529
  133SAPE   O3114330   6.004   0.453  10.629 -0.1483  0.0081  0.0617
  133SAPE   C3114331   6.135   0.488  10.621  0.0023 -0.2264  0.5999
  133SAPE   O3214332   6.206   0.513  10.718 -0.6005  0.2997  0.0199
  133SAPE   C3214333   6.186   0.476  10.479  0.4119  0.0748 -0.2185
  133SAPE   H2X14334   6.199   0.369  10.452  1.1579 -0.2178  1.1936
  133SAPE   H2Y14335   6.280   0.535  10.472 -0.3625  1.2954 -0.6069
  133SAPE   C2314336   5.870   0.887  10.548  0.3319 -0.1311  0.1451
  133SAPE   H3R14337   5.884   0.788  10.498  1.0917 -1.4952  2.8734
  133SAPE   H3S14338   5.968   0.934  10.569 -0.5405  1.2365  1.3912
  133SAPE   C2414339   5.795   0.981  10.448 -0.0344  0.4814  0.0127
  133SAPE   H4R14340   5.870   0.975  10.366 -0.2966 -0.0822 -0.1962
  133SAPE   H4S14341   5.795   1.082  10.493  2.4973  1.3634 -1.7591
  133SAPE   C2514342   5.652   0.948  10.407  0.0046  0.3796 -0.2968
  133SAPE   H5R14343   5.583   0.929  10.491  0.4213  1.1342  0.2178
  133SAPE   C2614344   5.596   0.960  10.286 -0.0995 -0.1028 -0.1321
  133SAPE   H6R14345   5.488   0.946  10.276 -0.0738  0.1047 -0.7729
  133SAPE   C2714346   5.675   1.001  10.158  0.2917 -0.3366 -0.2665
  133SAPE   H7R14347   5.736   1.093  10.174 -2.4478  1.5136  0.0933
  133SAPE   H7S14348   5.607   1.027  10.074  2.0910  2.8976 -0.9031
  133SAPE   C2814349   5.758   0.881  10.119  0.9499  0.3324 -0.3784
  133SAPE   H8R14350   5.761   0.797  10.191 -0.5023 -1.1576 -1.9619
  133SAPE   C2914351   5.845   0.872  10.019  0.1701 -0.2377 -0.2219
  133SAPE   H9R14352   5.891   0.772  10.013  1.2764 -0.0170  2.7694
  133SAPE  C21014353   5.857   0.982   9.914 -0.4619  0.5478 -0.0376
  133SAPE  H10R14354   5.961   1.021   9.908  0.2191 -1.3319 -1.5503
  133SAPE  H10S14355   5.798   1.072   9.942 -0.9374  1.0356 -2.3462
  133SAPE  C21114356   5.807   0.930   9.780  0.0856 -0.2967 -0.6170
  133SAPE  H11R14357   5.742   0.841   9.786 -2.0097  1.2071  0.1325
  133SAPE  C21214358   5.825   0.989   9.658  0.2733 -0.1735 -0.3627
  133SAPE  H12R14359   5.766   0.950   9.574 -1.0464  0.5980  0.1890
  133SAPE  C21314360   5.902   1.116   9.624  0.5873 -0.0455 -0.3270
  133SAPE  H13R14361   5.931   1.108   9.517  1.2039  0.7053 -0.2270
  133SAPE  H13S14362   5.997   1.108   9.682 -0.8786 -1.8021  2.0068
  133SAPE  C21414363   5.830   1.247   9.646 -0.2686  0.0691 -0.5254
  133SAPE  H14R14364   5.783   1.254   9.745 -1.9228 -0.4889 -1.2295
  133SAPE  C21514365   5.826   1.349   9.566  0.4247 -0.9730  0.9851
  133SAPE  H15R14366   5.768   1.439   9.589 -1.1047 -1.7537  0.3221
  133SAPE  C21614367   5.897   1.357   9.431 -0.2411 -0.4940 -0.2800
  133SAPE  H16R14368   5.991   1.298   9.433  1.5453  2.1405 -0.7039
  133SAPE  H16S14369   5.923   1.464   9.416  0.6032 -0.7332 -0.5707
  133SAPE  C21714370   5.800   1.319   9.320  0.0717 -0.8686 -0.0821
  133SAPE  H17R14371   5.712   1.383   9.340  0.3384 -0.9015  1.3005
  133SAPE  H17S14372   5.764   1.214   9.320 -2.0288 -0.1826 -0.4144
  133SAPE  C21814373   5.864   1.349   9.181  0.0802 -0.9095  0.8773
  133SAPE  H18R14374   5.969   1.313   9.179  0.0112 -1.2265 -2.4003
  133SAPE  H18S14375   5.881   1.456   9.157  3.1917 -1.6715 -0.8216
  133SAPE  C21914376   5.784   1.308   9.060 -0.5570  0.2303 -0.1330
  133SAPE  H19R14377   5.771   1.197   9.060  1.7728 -0.0887 -0.1423
  133SAPE  H19S14378   5.853   1.322   8.974 -0.8150  0.4409 -0.3063
  133SAPE  C22014379   5.652   1.378   9.034  0.0634  0.1402 -0.1622
  133SAPE  H20R14380   5.659   1.489   9.035  1.2147  0.0780  0.4790
  133SAPE  H20S14381   5.575   1.350   9.109  1.6487 -2.8984  0.5014
  133SAPE  H20T14382   5.609   1.362   8.933  0.6367 -1.6547 -0.1699
  133SAPE   C3314383   6.086   0.534  10.378 -1.0190 -0.1411  0.7558
  133SAPE   H3X14384   6.085   0.644  10.396  0.0956 -0.1454  0.9121
  133SAPE   H3Y14385   5.986   0.492  10.398 -0.6395 -1.1711  0.5663
  133SAPE   C3414386   6.139   0.496  10.241 -0.2673  0.4813  0.3625
  133SAPE   H4X14387   6.140   0.385  10.241 -0.2123  0.4388  2.6241
  133SAPE   H4Y14388   6.243   0.526  10.217 -0.3093  0.2388 -0.1367
  133SAPE   C3514389   6.053   0.543  10.121 -0.5757 -0.1292 -0.4527
  133SAPE   H5X14390   6.053   0.653  10.133  0.4011 -0.1564 -0.0810
  133SAPE   H5Y14391   5.949   0.505  10.126 -0.3558 -0.9340 -1.6383
  133SAPE   C3614392   6.116   0.511   9.986  0.6627  0.3490 -0.7020
  133SAPE   H6X14393   6.085   0.412   9.948  0.2723  0.4895 -0.7563
  133SAPE   H6Y14394   6.226   0.513  10.004  1.0694  2.1045 -2.9072
  133SAPE   C3714395   6.075   0.617   9.887 -0.1477 -0.4497  0.6989
  133SAPE   H7X14396   6.120   0.710   9.927 -0.2654  0.1581 -0.5354
  133SAPE   H7Y14397   5.966   0.640   9.882 -0.4054 -1.8308 -1.6991
  133SAPE   C3814398   6.126   0.593   9.751 -1.0714  0.0006  0.4886
  133SAPE   H8X14399   6.066   0.513   9.703  0.9620 -1.2185 -0.1323
  133SAPE   H8Y14400   6.232   0.560   9.752 -1.2261 -0.5194  0.2853
  133SAPE   C3914401   6.101   0.707   9.647 -0.4077 -0.3548 -0.3964
  133SAPE   H9X14402   6.142   0.797   9.698 -1.7137 -0.6581  1.3223
  133SAPE   H9Y14403   5.992   0.731   9.644 -1.3665 -3.6072  2.4085
  133SAPE  C31014404   6.163   0.675   9.512  0.2581  0.4092 -0.3832
  133SAPE  H10X14405   6.092   0.604   9.465  0.0541 -0.1456  0.7398
  133SAPE  H10Y14406   6.255   0.614   9.513  0.4347  0.5035 -3.3500
  133SAPE  C31114407   6.197   0.804   9.435  0.0266  0.1374 -0.4304
  133SAPE  H11X14408   6.276   0.854   9.495 -1.1333 -1.5329  2.7328
  133SAPE  H11Y14409   6.107   0.870   9.430 -1.9281 -2.4209 -1.5848
  133SAPE  C31214410   6.239   0.782   9.290  0.7253  0.1487  0.6400
  133SAPE  H12X14411   6.322   0.708   9.286  2.5859  1.4669  5.8029
  133SAPE  H12Y14412   6.266   0.879   9.242 -1.1301  0.3716 -0.0454
  133SAPE  C31314413   6.151   0.697   9.189 -0.6217 -0.1729  0.1751
  133SAPE  H13X14414   6.065   0.760   9.161 -1.6935 -1.8868 -0.5820
  133SAPE  H13Y14415   6.112   0.618   9.257  1.2163  1.0835  2.8534
  133SAPE  C31414416   6.212   0.646   9.058  0.5888  0.3581 -0.2838
  133SAPE  H14X14417   6.134   0.588   9.004  2.1998 -1.0999 -1.1679
  133SAPE  H14Y14418   6.292   0.571   9.074 -1.6602 -2.1778 -0.1377
  133SAPE  C31514419   6.264   0.758   8.969 -0.3385 -0.3112 -0.0018
  133SAPE  H15X14420   6.350   0.809   9.018  1.4504 -0.4723 -2.7379
  133SAPE  H15Y14421   6.192   0.842   8.956  0.5197  0.6744  1.3225
  133SAPE  C31614422   6.317   0.710   8.831 -0.6292 -0.6385 -1.0680
  133SAPE  H16X14423   6.242   0.657   8.769 -0.0943 -0.6089 -1.7562
  133SAPE  H16Y14424   6.400   0.639   8.853 -1.3224 -1.9643 -2.5885
  133SAPE  C31714425   6.378   0.824   8.756  0.8066  0.4318 -0.4856
  133SAPE  H17X14426   6.309   0.908   8.735  1.0367  0.3977 -1.4032
  133SAPE  H17Y14427   6.407   0.772   8.663  3.0747  0.5584  0.0765
  133SAPE  C31814428   6.516   0.871   8.813 -0.5980 -0.2184  0.3657
  133SAPE  H18X14429   6.552   0.955   8.750 -0.2650 -0.7715 -0.1846
  133SAPE  H18Y14430   6.585   0.784   8.804 -1.3944 -0.6334 -2.9669
  133SAPE  H18Z14431   6.505   0.907   8.918 -3.2583  0.3642 -0.0332
  134SAPE     N14432   3.383   4.809  10.681 -0.0384  0.6639 -0.8775
  134SAPE   HN114433   3.452   4.815  10.759  0.9650 -3.0286 -1.2719
  134SAPE   HN214434   3.317   4.730  10.692 -0.2436  0.9749  0.2539
  134SAPE   HN314435   3.437   4.785  10.595  0.0483  0.2785 -0.7198
  134SAPE   C1214436   3.331   4.946  10.659 -0.1351 -0.0566  0.1562
  134SAPE  H12A14437   3.245   4.939  10.590 -0.5697 -0.0152  0.6876
  134SAPE  H12B14438   3.405   5.017  10.615 -1.0431  0.8791  0.1097
  134SAPE   C1114439   3.270   5.007  10.779 -0.5821  0.3287  0.0319
  134SAPE  H11A14440   3.197   5.087  10.756  0.1434  0.9465 -0.1430
  134SAPE  H11B14441   3.357   5.055  10.829 -0.7942  1.9909 -1.1370
  134SAPE     P14442   3.087   4.821  10.832 -0.0986 -0.3436  0.0846
  134SAPE   O1314443   3.132   4.685  10.796  0.1299 -0.0712 -0.5714
  134SAPE   O1414444   3.003   4.848  10.952 -0.4383 -0.0064 -0.4829
  134SAPE   O1214445   3.210   4.909  10.856  0.1924 -0.1189  0.2876
  134SAPE   O1114446   3.032   4.886  10.705  0.0238 -0.3262  0.0514
  134SAPE    C114447   2.906   4.955  10.704  0.2065 -0.5209  0.3247
  134SAPE    HA14448   2.863   4.995  10.799 -0.9221  0.1098 -0.4271
  134SAPE    HB14449   2.933   5.051  10.656 -0.3181  0.2800  1.5821
  134SAPE    C214450   2.803   4.878  10.626  0.0538 -0.0675 -0.1365
  134SAPE    HS14451   2.794   4.775  10.665 -0.5127  1.2248  3.5260
  134SAPE   O2114452   2.841   4.870  10.487 -0.3828  0.0205  0.2235
  134SAPE   C2114453   2.779   4.782  10.416  0.1489  0.5584 -0.6596
  134SAPE   O2214454   2.692   4.703  10.454 -0.1835  0.0965 -0.0256
  134SAPE   C2214455   2.834   4.792  10.272  0.2669  0.6485 -0.1218
  134SAPE   H2R14456   2.911   4.872  10.267  2.4777 -1.4031 -0.5075
  134SAPE   H2S14457   2.887   4.697  10.251 -1.4180 -0.4479  0.3822
  134SAPE    C314458   2.653   4.934  10.639  0.2291  0.0779  0.0159
  134SAPE    HX14459   2.643   4.969  10.744  0.1885 -1.0679  0.4175
  134SAPE    HY14460   2.587   4.847  10.617 -0.6453  1.3881 -3.2018
  134SAPE   O3114461   2.603   5.031  10.546 -0.0904 -0.6275  0.5130
  134SAPE   C3114462   2.527   5.128  10.595  0.3392  0.9573 -0.2054
  134SAPE   O3214463   2.503   5.143  10.715  0.1275  0.6924 -0.5955
  134SAPE   C3214464   2.456   5.193  10.476 -0.1896 -0.5655 -0.0256
  134SAPE   H2X14465   2.394   5.115  10.427 -2.3166 -0.0431  1.7124
  134SAPE   H2Y14466   2.539   5.225  10.409  0.7317  1.4230  1.9633
  134SAPE   C2314467   2.729   4.834  10.172  0.3331 -0.5072  0.8579
  134SAPE   H3R14468   2.644   4.762  10.184 -1.3648  1.5669  1.9191
  134SAPE   H3S14469   2.757   4.808  10.068  0.1480  0.9829  0.4135
  134SAPE   C2414470   2.663   4.977  10.189 -0.0276  0.2525 -0.0172
  134SAPE   H4R14471   2.701   5.059  10.124 -0.0851  1.4317  1.3892
  134SAPE   H4S14472   2.679   5.018  10.291 -1.0761  0.0715  0.2262
  134SAPE   C2514473   2.514   4.966  10.174  0.1534  0.4868  0.1544
  134SAPE   H5R14474   2.457   4.891  10.231 -0.7579  1.7822  1.0177
  134SAPE   C2614475   2.440   5.034  10.081  0.7933  0.5114 -0.7636
  134SAPE   H6R14476   2.330   5.033  10.090  0.8526 -2.1520  0.5135
  134SAPE   C2714477   2.480   5.129   9.977 -0.1537  0.5626  0.6394
  134SAPE   H7R14478   2.575   5.178  10.004  0.6141 -0.4170 -0.1996
  134SAPE   H7S14479   2.405   5.210   9.965 -0.4171  0.1656 -0.5710
  134SAPE   C2814480   2.500   5.067   9.841 -0.9553  1.0338 -0.5873
  134SAPE   H8R14481   2.495   4.959   9.825  0.7484  1.0571 -1.4974
  134SAPE   C2914482   2.522   5.137   9.730 -0.9319  0.0370 -0.0358
  134SAPE   H9R14483   2.548   5.096   9.632 -1.1150  0.3465 -0.2192
  134SAPE  C21014484   2.525   5.288   9.732  0.4197 -0.3583 -0.4554
  134SAPE  H10R14485   2.506   5.338   9.830 -0.6151  1.6931 -1.6148
  134SAPE  H10S14486   2.439   5.320   9.669  0.4731  1.9908  0.5283
  134SAPE  C21114487   2.659   5.332   9.681  0.4946  0.3550 -0.5012
  134SAPE  H11R14488   2.736   5.333   9.760  0.2803 -2.7332 -0.1409
  134SAPE  C21214489   2.697   5.341   9.552  0.0800  0.0126 -0.1247
  134SAPE  H12R14490   2.801   5.365   9.526  0.5011 -1.0747  0.4873
  134SAPE  C21314491   2.602   5.323   9.434  0.0915  0.2863  0.1328
  134SAPE  H13R14492   2.587   5.422   9.385 -1.7977 -0.2442 -0.4531
  134SAPE  H13S14493   2.499   5.296   9.466  0.0490  0.8350  0.4721
  134SAPE  C21414494   2.658   5.218   9.342 -0.9344  0.9217 -0.3640
  134SAPE  H14R14495   2.626   5.118   9.374 -1.3613  1.1631 -0.0329
  134SAPE  C21514496   2.742   5.237   9.233  1.4779  0.0942  0.4149
  134SAPE  H15R14497   2.785   5.153   9.177  1.0559  1.4974 -2.2009
  134SAPE  C21614498   2.785   5.372   9.192 -0.1654 -0.7929  0.5608
  134SAPE  H16R14499   2.871   5.361   9.123 -0.1808 -0.3749  0.4735
  134SAPE  H16S14500   2.815   5.419   9.287 -0.2745 -1.4741  0.9429
  134SAPE  C21714501   2.682   5.463   9.118 -0.6671 -0.3579 -0.1766
  134SAPE  H17R14502   2.736   5.559   9.127 -1.2994 -0.0694  0.6333
  134SAPE  H17S14503   2.592   5.465   9.183 -0.1997 -0.1061  0.4714
  134SAPE  C21814504   2.666   5.410   8.978 -0.5879 -0.2915 -0.0366
  134SAPE  H18R14505   2.573   5.461   8.946 -0.5953  0.7765  1.5497
  134SAPE  H18S14506   2.657   5.299   8.978  0.0638 -0.4131  2.5623
  134SAPE  C21914507   2.780   5.448   8.876  0.2353 -0.2118  0.0964
  134SAPE  H19R14508   2.883   5.430   8.913 -0.1779  0.3214  1.5917
  134SAPE  H19S14509   2.772   5.556   8.854 -2.4795 -0.5816 -1.1722
  134SAPE  C22014510   2.757   5.378   8.747 -0.0724  0.4136 -0.2048
  134SAPE  H20R14511   2.831   5.409   8.670 -0.5372  1.0571 -0.3966
  134SAPE  H20S14512   2.652   5.395   8.716 -1.0147 -2.2629  1.1664
  134SAPE  H20T14513   2.766   5.268   8.761 -2.3504  0.2137  0.0468
  134SAPE   C3314514   2.372   5.315  10.507  0.9295 -0.2711 -0.2618
  134SAPE   H3X14515   2.445   5.393  10.536 -0.4473  0.8802  0.2700
  134SAPE   H3Y14516   2.305   5.305  10.595 -0.4192 -0.7927 -1.3016
  134SAPE   C3414517   2.277   5.355  10.399 -0.8539  0.5911  0.1408
  134SAPE   H4X14518   2.232   5.456  10.416 -0.7737  0.9928 -1.7779
  134SAPE   H4Y14519   2.184   5.299  10.375 -2.3186  2.9498 -0.0973
  134SAPE   C3514520   2.346   5.385  10.262  0.2931  0.4936 -0.1568
  134SAPE   H5X14521   2.366   5.288  10.211  3.2403 -0.0588  1.7495
  134SAPE   H5Y14522   2.445   5.435  10.276 -1.6785  4.6855  0.2490
  134SAPE   C3614523   2.249   5.452  10.167  0.3504  0.3195 -0.4141
  134SAPE   H6X14524   2.207   5.544  10.213  1.9680 -0.0561  1.9652
  134SAPE   H6Y14525   2.170   5.377  10.144  0.6253 -0.1432  0.1219
  134SAPE   C3714526   2.327   5.487  10.039 -0.0803 -0.2585  0.1183
  134SAPE   H7X14527   2.328   5.397   9.974 -0.5504 -0.5487  0.5057
  134SAPE   H7Y14528   2.428   5.522  10.069 -1.3476  1.9983  2.1148
  134SAPE   C3814529   2.270   5.605   9.956 -0.3745 -0.2234  0.0212
  134SAPE   H8X14530   2.278   5.699  10.014  0.8477  0.8059 -1.7236
  134SAPE   H8Y14531   2.162   5.597   9.931 -1.2337  0.9998  3.0036
  134SAPE   C3914532   2.362   5.635   9.836 -0.5219 -0.6280 -0.0797
  134SAPE   H9X14533   2.358   5.543   9.774 -0.9639 -0.4846 -0.2729
  134SAPE   H9Y14534   2.462   5.656   9.877 -1.2502  2.5041  0.3821
  134SAPE  C31014535   2.320   5.762   9.753 -0.0258  0.2116 -0.1433
  134SAPE  H10X14536   2.331   5.856   9.812 -0.7170  0.7154 -0.8075
  134SAPE  H10Y14537   2.212   5.756   9.731 -0.1953 -1.0576  0.9231
  134SAPE  C31114538   2.383   5.780   9.609 -0.7716  0.2461 -0.4972
  134SAPE  H11X14539   2.382   5.682   9.556  0.3543  0.0407 -0.1711
  134SAPE  H11Y14540   2.494   5.786   9.616 -0.5293 -1.5472 -2.0864
  134SAPE  C31214541   2.328   5.895   9.534  0.0130  0.2145 -0.5604
  134SAPE  H12X14542   2.315   5.980   9.604  1.7822  0.6244 -0.6833
  134SAPE  H12Y14543   2.229   5.867   9.492 -1.4074  2.0002  1.3699
  134SAPE  C31314544   2.418   5.963   9.434  0.1889  0.4426  0.2865
  134SAPE  H13X14545   2.523   5.948   9.469  0.0805 -0.3985  0.2604
  134SAPE  H13Y14546   2.401   6.071   9.415 -1.9535  0.3330  1.3817
  134SAPE  C31414547   2.403   5.890   9.303  0.3782 -0.3990  0.6963
  134SAPE  H14X14548   2.302   5.917   9.264 -0.4330 -0.8400  2.3804
  134SAPE  H14Y14549   2.394   5.780   9.312  1.7559 -0.6142 -0.1953
  134SAPE  C31514550   2.504   5.927   9.199 -0.5156 -0.1316  0.2147
  134SAPE  H15X14551   2.603   5.920   9.250 -1.3057  0.9295  1.9576
  134SAPE  H15Y14552   2.480   6.034   9.184 -2.8403 -0.3769  1.6736
  134SAPE  C31614553   2.509   5.841   9.067  0.0069  1.1752 -0.8480
  134SAPE  H16X14554   2.408   5.825   9.023 -0.3136 -0.2098  0.3268
  134SAPE  H16Y14555   2.547   5.742   9.098 -1.1093  1.5039  1.8817
  134SAPE  C31714556   2.597   5.898   8.966 -0.6620 -0.2529  0.4787
  134SAPE  H17X14557   2.540   5.989   8.938 -1.4262 -0.4004  1.4653
  134SAPE  H17Y14558   2.596   5.820   8.887  0.8450  0.0189  0.1576
  134SAPE  C31814559   2.737   5.939   9.010 -0.5264  0.3898  0.3376
  134SAPE  H18X14560   2.787   5.850   9.055 -0.2707  0.6789  0.6309
  134SAPE  H18Y14561   2.744   6.020   9.086 -1.9831  0.7459  0.1213
  134SAPE  H18Z14562   2.794   5.962   8.918  0.7208 -1.9694  0.4373
  135SAPE     N14563   1.635   3.905  11.011  0.5486  0.3644  0.2068
  135SAPE   HN114564   1.621   3.870  11.108 -0.7485  1.9504  0.6351
  135SAPE   HN214565   1.578   3.991  10.996  0.2736 -0.0323 -1.1276
  135SAPE   HN314566   1.589   3.836  10.949 -1.8527  1.7626  0.2975
  135SAPE   C1214567   1.778   3.911  10.975  0.2718  0.7810 -0.8712
  135SAPE  H12A14568   1.824   3.810  10.987 -0.8832  0.0089 -2.5652
  135SAPE  H12B14569   1.829   3.983  11.043 -1.1986  2.2752 -1.2874
  135SAPE   C1114570   1.794   3.941  10.832  0.1837 -0.1065 -0.5280
  135SAPE  H11A14571   1.740   3.859  10.780  1.9670 -2.5472  1.2039
  135SAPE  H11B14572   1.901   3.925  10.806  0.1754 -0.5081 -0.3315
  135SAPE     P14573   1.780   4.207  10.844 -0.4420 -0.1399 -0.0559
  135SAPE   O1314574   1.661   4.281  10.885 -0.1885  0.5754  0.2353
  135SAPE   O1414575   1.874   4.189  10.957 -0.3531 -0.2316  0.2167
  135SAPE   O1214576   1.738   4.065  10.792 -0.8361  0.1954 -0.8846
  135SAPE   O1114577   1.843   4.277  10.715 -0.0798 -0.1086  0.1062
  135SAPE    C114578   1.983   4.258  10.679  0.6131 -0.4681 -0.5775
  135SAPE    HA14579   2.029   4.359  10.668 -0.1380 -0.2403 -1.9285
  135SAPE    HB14580   2.041   4.193  10.746  0.4261  0.8734  0.9495
  135SAPE    C214581   1.994   4.193  10.534  0.1764 -0.3791  0.4461
  135SAPE    HS14582   2.097   4.170  10.500  0.4597  0.1679  0.9082
  135SAPE   O2114583   1.916   4.270  10.440  0.1751  0.3565 -0.2645
  135SAPE   C2114584   1.972   4.366  10.371  0.5265 -0.2184 -1.2911
  135SAPE   O2214585   2.091   4.400  10.378  0.2148  0.1782  0.2162
  135SAPE   C2214586   1.881   4.410  10.259  0.8909 -0.1516  0.3075
  135SAPE   H2R14587   1.815   4.329  10.222  1.8615 -0.3030 -1.1493
  135SAPE   H2S14588   1.814   4.490  10.298  1.4065  1.2912 -1.6578
  135SAPE    C314589   1.922   4.053  10.531 -0.4731 -0.0276 -0.1735
  135SAPE    HX14590   1.816   4.057  10.563 -0.4073 -0.9788  0.2069
  135SAPE    HY14591   1.969   3.985  10.606 -1.4420 -1.7392 -1.0533
  135SAPE   O3114592   1.943   3.981  10.404 -0.1650  0.4476 -0.2123
  135SAPE   C3114593   1.834   3.955  10.336  1.0691 -0.4571  0.5491
  135SAPE   O3214594   1.720   3.959  10.380 -0.0677 -0.4884 -0.5803
  135SAPE   C3214595   1.871   3.901  10.198 -0.3469  0.5385  0.1560
  135SAPE   H2X14596   1.871   3.790  10.208 -1.8241  0.4225 -0.8159
  135SAPE   H2Y14597   1.979   3.922  10.178 -0.4984  1.6710  0.4740
  135SAPE   C2314598   1.961   4.483  10.148 -0.1292 -0.6880 -0.0714
  135SAPE   H3R14599   2.036   4.414  10.105 -0.3187 -1.2036  0.4141
  135SAPE   H3S14600   2.025   4.555  10.205 -3.1793  2.2839 -0.0968
  135SAPE   C2414601   1.878   4.535  10.040  0.7077 -0.1117  0.6109
  135SAPE   H4R14602   1.797   4.597  10.083 -0.2714  0.1591 -1.5006
  135SAPE   H4S14603   1.845   4.444   9.984  0.4680  1.0242 -1.1767
  135SAPE   C2514604   1.964   4.629   9.952  0.4165 -0.1255  0.2871
  135SAPE   H5R14605   2.020   4.703  10.009 -0.8451 -0.8326  2.5806
  135SAPE   C2614606   1.957   4.643   9.819 -0.3654 -0.0485 -0.1187
  135SAPE   H6R14607   2.023   4.717   9.772  2.2645 -1.3788  1.2877
  135SAPE   C2714608   1.859   4.576   9.734  1.1705 -0.4798  0.2339
  135SAPE   H7R14609   1.758   4.594   9.777  1.7117 -3.7078  3.4348
  135SAPE   H7S14610   1.874   4.466   9.731 -0.8541 -0.7821 -2.8490
  135SAPE   C2814611   1.878   4.634   9.598 -0.2945  0.0285  0.2368
  135SAPE   H8R14612   1.931   4.730   9.589 -0.4198  0.1184  0.4531
  135SAPE   C2914613   1.848   4.577   9.483  0.1930 -0.3481  0.6424
  135SAPE   H9R14614   1.886   4.629   9.394 -3.6584  1.9528  0.0906
  135SAPE  C21014615   1.787   4.441   9.446  0.3171 -0.1818 -0.0444
  135SAPE  H10R14616   1.729   4.405   9.533 -1.2378  0.1311 -0.9100
  135SAPE  H10S14617   1.860   4.360   9.429  0.1289 -0.0215 -1.9414
  135SAPE  C21114618   1.678   4.461   9.341 -0.2440  0.2296 -0.5062
  135SAPE  H11R14619   1.572   4.473   9.365 -0.3439  0.4063 -1.0389
  135SAPE  C21214620   1.726   4.437   9.214  0.0900  0.5451 -0.3360
  135SAPE  H12R14621   1.644   4.441   9.139  0.1578 -0.4845 -0.4803
  135SAPE  C21314622   1.862   4.403   9.153  0.2842 -0.1769 -0.3570
  135SAPE  H13R14623   1.861   4.307   9.096  1.8797 -0.5428  0.1677
  135SAPE  H13S14624   1.929   4.372   9.236  0.1161  0.3548 -0.0178
  135SAPE  C21414625   1.919   4.518   9.071 -1.0256  0.0362 -1.0241
  135SAPE  H14R14626   1.885   4.620   9.095  2.4010  1.0135  0.2358
  135SAPE  C21514627   2.020   4.505   8.983 -0.7297 -0.3180 -0.9853
  135SAPE  H15R14628   2.065   4.591   8.931 -0.0985 -0.2480 -0.3488
  135SAPE  C21614629   2.086   4.372   8.940  0.2422 -0.1145 -0.0171
  135SAPE  H16R14630   2.059   4.345   8.836  0.2631 -0.2747  0.0183
  135SAPE  H16S14631   2.051   4.282   8.995  1.8159  0.0323  1.2902
  135SAPE  C21714632   2.239   4.375   8.973  0.3479  0.5203  0.0025
  135SAPE  H17R14633   2.242   4.354   9.082 -2.0865 -0.6923 -0.1008
  135SAPE  H17S14634   2.273   4.479   8.954 -0.0546  0.5059 -0.8599
  135SAPE  C21814635   2.319   4.284   8.884 -0.0862 -0.3169  0.1034
  135SAPE  H18R14636   2.304   4.309   8.777  1.0117  1.0867  0.2532
  135SAPE  H18S14637   2.290   4.177   8.894  0.6999 -0.5252  0.1791
  135SAPE  C21914638   2.469   4.285   8.908 -0.0675  0.2163 -0.0339
  135SAPE  H19R14639   2.489   4.246   9.010  0.0106 -2.1521 -0.8886
  135SAPE  H19S14640   2.499   4.391   8.905 -0.2185  0.3234  1.3421
  135SAPE  C22014641   2.552   4.198   8.809 -0.8724  0.0059  0.9268
  135SAPE  H20R14642   2.574   4.263   8.721 -1.4136  3.0707  2.8931
  135SAPE  H20S14643   2.493   4.106   8.791 -0.4355 -0.5856  2.3646
  135SAPE  H20T14644   2.653   4.173   8.847 -0.4036  1.1569  0.4801
  135SAPE   C3314645   1.771   3.931  10.092  0.0482  0.0633 -0.6868
  135SAPE   H3X14646   1.663   3.930  10.118  0.2367 -1.8682  0.2049
  135SAPE   H3Y14647   1.774   3.842  10.026  2.0125 -0.3829 -0.0612
  135SAPE   C3414648   1.803   4.052  10.000 -0.1388  0.2873  0.1551
  135SAPE   H4X14649   1.909   4.040   9.972 -0.1615  1.5438 -0.5331
  135SAPE   H4Y14650   1.811   4.141  10.066  3.2971 -0.8841  1.5215
  135SAPE   C3514651   1.723   4.059   9.872  0.4018  0.8750  0.4097
  135SAPE   H5X14652   1.633   4.124   9.883 -0.1177  0.9285 -2.9972
  135SAPE   H5Y14653   1.697   3.958   9.833  0.2053  0.8999  0.4740
  135SAPE   C3614654   1.804   4.125   9.764  0.2571  0.2886  1.0441
  135SAPE   H6X14655   1.905   4.078   9.764  0.1808  0.1002  0.0517
  135SAPE   H6Y14656   1.818   4.231   9.795  2.4469  0.3653 -0.0425
  135SAPE   C3714657   1.735   4.123   9.620  0.1579  0.0818  0.1358
  135SAPE   H7X14658   1.811   4.163   9.550  1.9342  0.3464  2.1068
  135SAPE   H7Y14659   1.651   4.196   9.623 -0.2445 -0.3891  0.5459
  135SAPE   C3814660   1.688   3.983   9.568 -0.3155 -0.0003  0.6209
  135SAPE   H8X14661   1.584   3.980   9.606 -0.6598  2.2818  0.0534
  135SAPE   H8Y14662   1.751   3.902   9.610 -0.5576 -1.2972 -1.3642
  135SAPE   C3914663   1.691   3.975   9.415 -0.1471  0.7388 -0.0921
  135SAPE   H9X14664   1.656   4.073   9.374  1.3726  1.0707 -0.6574
  135SAPE   H9Y14665   1.625   3.892   9.383  1.9377 -1.2935  0.6310
  135SAPE  C31014666   1.830   3.942   9.373  0.7175 -0.7498  0.1536
  135SAPE  H10X14667   1.874   3.857   9.430 -1.5527 -0.8677  1.8542
  135SAPE  H10Y14668   1.897   4.029   9.389 -0.8654  0.0538  3.1779
  135SAPE  C31114669   1.827   3.910   9.220  0.4104 -0.2079 -0.6498
  135SAPE  H11X14670   1.792   3.805   9.215 -2.0471  0.4188  1.4518
  135SAPE  H11Y14671   1.929   3.918   9.176 -0.4630 -0.2585 -2.8289
  135SAPE  C31214672   1.730   3.996   9.142  0.2873 -0.4515  0.6597
  135SAPE  H12X14673   1.763   4.099   9.165 -0.8263 -0.4383  2.3858
  135SAPE  H12Y14674   1.624   3.978   9.172 -0.6052  1.9098 -0.8344
  135SAPE  C31314675   1.734   3.974   8.992  0.5039  0.2961 -0.0100
  135SAPE  H13X14676   1.684   3.877   8.969  0.7313  0.0515  0.5178
  135SAPE  H13Y14677   1.838   3.956   8.958 -0.1490 -2.1947 -0.9298
  135SAPE  C31414678   1.677   4.090   8.905  0.3366  0.1288 -0.2538
  135SAPE  H14X14679   1.722   4.189   8.928 -2.4159  1.4433 -0.1488
  135SAPE  H14Y14680   1.568   4.094   8.926 -0.1438 -1.0028 -2.3173
  135SAPE  C31514681   1.708   4.055   8.756 -0.0508 -0.2383 -0.4113
  135SAPE  H15X14682   1.668   3.952   8.752 -0.5301 -0.1022  0.6705
  135SAPE  H15Y14683   1.817   4.043   8.740  0.1896  0.5565  0.5168
  135SAPE  C31614684   1.627   4.148   8.664 -0.0616  0.0676  0.0193
  135SAPE  H16X14685   1.667   4.136   8.561  2.2669 -1.8614  1.0764
  135SAPE  H16Y14686   1.644   4.253   8.696  1.2696  0.0538 -0.5642
  135SAPE  C31714687   1.474   4.116   8.675 -0.5916  0.0148  0.5862
  135SAPE  H17X14688   1.440   4.135   8.779  2.2027  0.2210  1.5348
  135SAPE  H17Y14689   1.468   4.006   8.660  3.3518 -0.3602  0.6677
  135SAPE  C31814690   1.385   4.189   8.569  0.2397  0.1284 -0.0626
  135SAPE  H18X14691   1.284   4.144   8.559  0.4230 -0.9435  2.3399
  135SAPE  H18Y14692   1.427   4.189   8.466 -4.0382 -2.2222 -2.0841
  135SAPE  H18Z14693   1.387   4.291   8.614 -0.0206  2.0680 -3.9515
  136SAPE     N14694   5.033   2.974  10.932  0.2682  0.0990 -0.3490
  136SAPE   HN114695   4.951   2.944  10.875  0.1579 -0.7402  0.2263
  136SAPE   HN214696   5.125   2.960  10.885  0.7443 -0.7879  0.7974
  136SAPE   HN314697   5.037   2.912  11.016 -0.6486  0.6504  0.1182
  136SAPE   C1214698   5.006   3.109  10.982 -0.5439 -0.5100  0.0305
  136SAPE  H12A14699   4.925   3.103  11.057 -1.1946  1.9732 -0.3687
  136SAPE  H12B14700   4.970   3.181  10.905  2.5015  1.8972  0.6764
  136SAPE   C1114701   5.122   3.172  11.063 -0.1683  0.6734  0.0425
  136SAPE  H11A14702   5.144   3.093  11.138  2.2377 -0.2422 -1.5162
  136SAPE  H11B14703   5.074   3.258  11.114  0.7087  1.1100  0.1399
  136SAPE     P14704   5.334   3.305  11.019 -0.2726 -0.0292 -0.0340
  136SAPE   O1314705   5.331   3.343  11.162  0.1785 -0.3025  0.0480
  136SAPE   O1414706   5.470   3.265  10.981  0.3803  0.1780 -0.1359
  136SAPE   O1214707   5.242   3.192  10.987 -0.5502 -0.6307  0.8149
  136SAPE   O1114708   5.287   3.428  10.931 -0.3263 -0.6145  0.5016
  136SAPE    C114709   5.221   3.423  10.810 -0.1371  0.4698  0.1419
  136SAPE    HA14710   5.185   3.320  10.784 -1.0580  0.6066  0.8215
  136SAPE    HB14711   5.118   3.460  10.827 -0.5121 -0.4932  0.0569
  136SAPE    C214712   5.285   3.503  10.690 -0.5050 -0.6387 -0.3886
  136SAPE    HS14713   5.246   3.468  10.592 -2.4171  1.2978 -0.3851
  136SAPE   O2114714   5.432   3.500  10.701  0.3752 -0.5496  0.4717
  136SAPE   C2114715   5.479   3.386  10.661  0.2717  0.2958 -0.0175
  136SAPE   O2214716   5.411   3.305  10.598  0.3111 -0.2744  0.0324
  136SAPE   C2214717   5.634   3.384  10.685  0.2353 -0.0905  0.4704
  136SAPE   H2R14718   5.672   3.488  10.674  0.4286  0.2653  3.6847
  136SAPE   H2S14719   5.660   3.350  10.787  0.1412  0.9677  0.8569
  136SAPE    C314720   5.243   3.653  10.704 -0.1576 -0.4660  0.2150
  136SAPE    HX14721   5.262   3.691  10.806 -0.8223  0.7096 -0.0826
  136SAPE    HY14722   5.134   3.649  10.686  0.3687 -0.8368 -3.8204
  136SAPE   O3114723   5.305   3.734  10.605  0.0602  0.0555  0.1232
  136SAPE   C3114724   5.427   3.772  10.634  0.2400 -1.1047  0.5599
  136SAPE   O3214725   5.479   3.755  10.743 -0.0404 -0.3950  0.1801
  136SAPE   C3214726   5.496   3.847  10.520 -0.6827  0.6717  1.0555
  136SAPE   H2X14727   5.570   3.923  10.555 -0.3843  2.6230 -3.1836
  136SAPE   H2Y14728   5.418   3.900  10.461  0.1147  1.7994  0.9710
  136SAPE   C2314729   5.712   3.295  10.588 -0.2339 -0.5642  0.2138
  136SAPE   H3R14730   5.670   3.192  10.585 -1.0271 -0.2298 -0.7307
  136SAPE   H3S14731   5.818   3.285  10.619 -0.4299 -1.9027  0.5263
  136SAPE   C2414732   5.708   3.360  10.444 -0.2242 -0.2216 -0.3239
  136SAPE   H4R14733   5.757   3.459  10.457  1.3185 -1.1075  0.9326
  136SAPE   H4S14734   5.603   3.379  10.413 -1.0167 -2.1864  0.9431
  136SAPE   C2514735   5.790   3.299  10.335 -0.4408  0.9142 -0.1101
  136SAPE   H5R14736   5.854   3.215  10.365 -0.9354  0.6443  0.1902
  136SAPE   C2614737   5.799   3.329  10.205 -0.2223 -0.3717 -0.5772
  136SAPE   H6R14738   5.856   3.272  10.131 -1.0690 -2.0554  0.0148
  136SAPE   C2714739   5.724   3.435  10.135 -1.3679 -0.0452 -0.1676
  136SAPE   H7R14740   5.653   3.489  10.202 -1.5759 -1.1876  0.5543
  136SAPE   H7S14741   5.660   3.371  10.072 -3.1978 -0.0976  1.6462
  136SAPE   C2814742   5.804   3.544  10.059  0.8849 -0.6075  0.2971
  136SAPE   H8R14743   5.871   3.605  10.122  0.4892  0.3755 -0.2060
  136SAPE   C2914744   5.793   3.560   9.925 -0.0376 -0.2063 -1.2977
  136SAPE   H9R14745   5.855   3.644   9.892 -0.4646  0.7772  0.3006
  136SAPE  C21014746   5.714   3.479   9.828 -0.4669  0.0755  0.2174
  136SAPE  H10R14747   5.709   3.539   9.734 -0.3189  0.0604  0.1999
  136SAPE  H10S14748   5.608   3.473   9.859 -0.1213 -2.2169  1.1547
  136SAPE  C21114749   5.776   3.343   9.804  0.8973  0.1068 -0.2895
  136SAPE  H11R14750   5.810   3.296   9.897 -1.7906  0.9325  1.2051
  136SAPE  C21214751   5.779   3.279   9.685 -1.0243  0.0858 -0.1783
  136SAPE  H12R14752   5.814   3.176   9.675 -0.6387  0.3285 -1.4566
  136SAPE  C21314753   5.719   3.325   9.555  0.9151  0.2051 -0.0771
  136SAPE  H13R14754   5.780   3.414   9.529 -0.1028  1.2319  0.8999
  136SAPE  H13S14755   5.613   3.357   9.565  1.1403  1.1637 -0.6744
  136SAPE  C21414756   5.721   3.222   9.445  0.6336 -0.0996  0.2012
  136SAPE  H14R14757   5.658   3.136   9.473  0.0447  0.2613 -0.0003
  136SAPE  C21514758   5.775   3.234   9.321 -0.6189  1.7783  0.2234
  136SAPE  H15R14759   5.750   3.171   9.234 -0.5581  1.2878  0.5583
  136SAPE  C21614760   5.858   3.350   9.282 -0.1073 -0.0343 -0.0084
  136SAPE  H16R14761   5.930   3.376   9.362  1.8579 -0.4006 -1.5945
  136SAPE  H16S14762   5.793   3.440   9.282  2.2403  1.7585 -0.1086
  136SAPE  C21714763   5.951   3.360   9.158 -0.2672 -0.2617  0.0523
  136SAPE  H17R14764   5.896   3.355   9.062  0.6993  2.8835 -0.7458
  136SAPE  H17S14765   5.999   3.259   9.159 -2.8878 -1.6788 -2.2306
  136SAPE  C21814766   6.054   3.475   9.160  0.2701  0.2560 -0.9147
  136SAPE  H18R14767   6.120   3.459   9.072 -0.5090  1.6036 -1.7730
  136SAPE  H18S14768   6.102   3.463   9.260 -2.5559 -2.3383  0.2627
  136SAPE  C21914769   5.990   3.617   9.158 -0.2458  0.1897 -0.2239
  136SAPE  H19R14770   5.940   3.620   9.257  1.5480  0.5321  0.7060
  136SAPE  H19S14771   5.911   3.623   9.080 -1.7911 -0.8842  1.2187
  136SAPE  C22014772   6.095   3.729   9.129  0.3333 -0.0507 -1.0146
  136SAPE  H20R14773   6.040   3.822   9.103  0.7366 -0.1683 -2.3605
  136SAPE  H20S14774   6.157   3.713   9.038  1.3582 -1.3915 -0.1234
  136SAPE  H20T14775   6.158   3.748   9.219  0.8529 -1.4701 -1.0623
  136SAPE   C3314776   5.572   3.758  10.412  0.2680 -0.7713 -0.0948
  136SAPE   H3X14777   5.504   3.687  10.361  1.0919 -0.2881 -1.9471
  136SAPE   H3Y14778   5.661   3.707  10.455  1.0068  0.7967  0.3033
  136SAPE   C3414779   5.633   3.847  10.294 -0.5063  0.4280  0.1326
  136SAPE   H4X14780   5.690   3.773  10.234  0.3318 -0.6420  2.1438
  136SAPE   H4Y14781   5.710   3.910  10.342 -1.2990 -1.2701  4.0166
  136SAPE   C3514782   5.532   3.929  10.217  0.1771 -0.4598  0.1239
  136SAPE   H5X14783   5.496   4.014  10.280  1.0738 -0.2760  0.4066
  136SAPE   H5Y14784   5.436   3.881  10.188 -0.0578  0.6101 -0.9415
  136SAPE   C3614785   5.575   3.990  10.084  0.5361 -0.0628  0.1057
  136SAPE   H6X14786   5.649   4.071  10.098 -0.2114  1.2721 -2.9490
  136SAPE   H6Y14787   5.483   4.029  10.035 -0.9304 -5.4942 -2.2243
  136SAPE   C3714788   5.629   3.889   9.989 -0.2104 -0.8502 -0.2466
  136SAPE   H7X14789   5.571   3.795  10.000  1.4203 -1.8309  0.4141
  136SAPE   H7Y14790   5.731   3.871  10.030  0.0602  1.1423  0.0610
  136SAPE   C3814791   5.625   3.959   9.850 -0.3159  0.0363 -0.1221
  136SAPE   H8X14792   5.668   4.062   9.851 -0.5279  0.1243  0.0498
  136SAPE   H8Y14793   5.519   3.958   9.817 -0.2230  0.1809 -0.4263
  136SAPE   C3914794   5.712   3.883   9.749 -0.4524 -0.5915 -0.1769
  136SAPE   H9X14795   5.692   3.774   9.758 -1.2976 -0.4022  0.3340
  136SAPE   H9Y14796   5.821   3.888   9.770 -0.5632 -0.5123  0.3963
  136SAPE  C31014797   5.697   3.928   9.604  0.2567 -0.9951  0.4960
  136SAPE  H10X14798   5.702   4.039   9.609 -0.3219 -1.0241  2.2525
  136SAPE  H10Y14799   5.594   3.907   9.568  0.6462 -2.1159  0.0055
  136SAPE  C31114800   5.793   3.860   9.503 -0.3668 -0.1721  0.2485
  136SAPE  H11X14801   5.775   3.862   9.393  1.9647 -1.9949 -0.2400
  136SAPE  H11Y14802   5.790   3.751   9.522 -1.4918 -0.4807 -1.4992
  136SAPE  C31214803   5.936   3.910   9.529 -0.3814 -0.3127 -0.3749
  136SAPE  H12X14804   5.994   3.870   9.443  0.3677  0.1429 -0.0913
  136SAPE  H12Y14805   5.978   3.864   9.621 -1.6644 -0.8477 -0.0273
  136SAPE  C31314806   5.962   4.064   9.525 -0.8450  0.0392 -0.6148
  136SAPE  H13X14807   6.073   4.073   9.527 -0.5093 -2.9231 -1.4855
  136SAPE  H13Y14808   5.913   4.121   9.607  1.5156 -0.0124  0.9513
  136SAPE  C31414809   5.912   4.133   9.393 -0.3157 -0.6985 -0.6418
  136SAPE  H14X14810   5.930   4.241   9.416  0.8781 -0.7664 -1.1516
  136SAPE  H14Y14811   5.802   4.120   9.403 -0.7844  3.3414  1.9014
  136SAPE  C31514812   5.970   4.081   9.257  0.0161 -0.3093  0.4432
  136SAPE  H15X14813   5.955   3.971   9.254 -0.1839 -0.3079  1.1283
  136SAPE  H15Y14814   6.080   4.098   9.258 -0.1228  0.8067 -0.6661
  136SAPE  C31614815   5.907   4.146   9.132  0.1961 -0.5528 -0.2001
  136SAPE  H16X14816   5.979   4.123   9.050 -0.5676  1.0456 -1.3578
  136SAPE  H16Y14817   5.915   4.256   9.133 -0.1284 -0.5314  0.4263
  136SAPE  C31714818   5.764   4.092   9.102  0.5821 -0.1643  0.6122
  136SAPE  H17X14819   5.699   4.121   9.188 -0.4005 -0.5275  0.0112
  136SAPE  H17Y14820   5.769   3.983   9.085  1.1930 -0.4409  2.3246
  136SAPE  C31814821   5.701   4.161   8.979  0.8367 -0.7518 -0.1937
  136SAPE  H18X14822   5.758   4.134   8.887 -0.9537  0.9520 -1.8928
  136SAPE  H18Y14823   5.701   4.270   8.998  2.1095 -1.0712  1.9435
  136SAPE  H18Z14824   5.600   4.114   8.976  0.2439  0.2076  2.6370
  137SAPE     N14825   2.661   5.698  10.895  0.3700  0.0989  0.0978
  137SAPE   HN114826   2.739   5.727  10.957  0.3174 -2.3235  1.4148
  137SAPE   HN214827   2.691   5.718  10.798 -2.8334  1.4957 -0.7280
  137SAPE   HN314828   2.579   5.761  10.908  1.2983  1.3722 -0.0441
  137SAPE   C1214829   2.628   5.550  10.910 -0.1826  0.4781 -0.3879
  137SAPE  H12A14830   2.623   5.526  11.019  0.8406 -1.8833 -0.7878
  137SAPE  H12B14831   2.713   5.493  10.866  0.4523  1.7257 -0.8126
  137SAPE   C1114832   2.494   5.496  10.845  0.1496 -0.2775 -0.2871
  137SAPE  H11A14833   2.507   5.387  10.863 -3.1099 -0.3106  3.1656
  137SAPE  H11B14834   2.489   5.521  10.737  1.8658  0.4397 -0.2434
  137SAPE     P14835   2.248   5.476  10.902  0.3153  0.3096 -0.5757
  137SAPE   O1314836   2.280   5.331  10.887  0.3126  0.0475  0.4919
  137SAPE   O1414837   2.160   5.520  11.012 -0.1752 -0.0709 -0.0660
  137SAPE   O1214838   2.386   5.548  10.919 -0.1580 -0.2285 -0.5627
  137SAPE   O1114839   2.188   5.535  10.770  0.5374 -0.5227 -0.1735
  137SAPE    C114840   2.174   5.679  10.769  0.7741  0.6611  0.0470
  137SAPE    HA14841   2.070   5.708  10.794  0.0314 -0.6110 -1.4115
  137SAPE    HB14842   2.247   5.734  10.833  1.5908 -0.7575  0.3967
  137SAPE    C214843   2.185   5.742  10.628 -0.8909  0.5361  0.2928
  137SAPE    HS14844   2.158   5.850  10.626 -0.8039  0.5917 -2.9207
  137SAPE   O2114845   2.112   5.667  10.530  0.3869  0.5537  0.0667
  137SAPE   C2114846   1.992   5.702  10.518  0.2997 -0.3517 -0.0103
  137SAPE   O2214847   1.928   5.775  10.594  0.1971  0.1402 -0.3853
  137SAPE   C2214848   1.944   5.641  10.389  0.2867  0.1972 -0.2699
  137SAPE   H2R14849   2.002   5.670  10.299 -0.7263 -1.5551 -1.5420
  137SAPE   H2S14850   1.954   5.531  10.381 -0.0245  0.2737 -2.1002
  137SAPE    C314851   2.330   5.723  10.584 -0.2865  0.3359  0.1203
  137SAPE    HX14852   2.342   5.613  10.588  0.1524  0.2992 -1.5307
  137SAPE    HY14853   2.396   5.766  10.663 -3.6270  2.4762  1.9938
  137SAPE   O3114854   2.350   5.785  10.457 -0.0634 -0.3262  0.1334
  137SAPE   C3114855   2.464   5.763  10.390 -0.2758 -0.5570 -1.3275
  137SAPE   O3214856   2.551   5.689  10.427  0.2321 -0.2315 -0.5736
  137SAPE   C3214857   2.472   5.850  10.268  0.4036  0.6186 -0.1399
  137SAPE   H2X14858   2.460   5.954  10.303 -0.7743 -0.0011  1.4144
  137SAPE   H2Y14859   2.386   5.824  10.202  0.1681  1.0520 -0.0080
  137SAPE   C2314860   1.800   5.677  10.358 -0.1088  1.2784  0.2090
  137SAPE   H3R14861   1.813   5.786  10.343  4.6586  0.5990 -2.5763
  137SAPE   H3S14862   1.731   5.651  10.441  1.3702 -0.2955  1.0085
  137SAPE   C2414863   1.757   5.607  10.227  0.0553 -0.5823 -0.3918
  137SAPE   H4R14864   1.837   5.630  10.153  1.9084  0.7102  1.8745
  137SAPE   H4S14865   1.668   5.665  10.195  0.0231  0.8928  2.1286
  137SAPE   C2514866   1.718   5.461  10.240  0.0947 -0.3889  0.0056
  137SAPE   H5R14867   1.764   5.408  10.325 -0.5884  0.1806  0.7476
  137SAPE   C2614868   1.626   5.403  10.167  0.6717 -0.1399 -0.4581
  137SAPE   H6R14869   1.593   5.306  10.205  0.6093 -0.5270 -1.4864
  137SAPE   C2714870   1.549   5.453  10.044 -0.7423  0.1163 -0.2619
  137SAPE   H7R14871   1.521   5.361   9.989 -1.0058 -0.2062  0.3981
  137SAPE   H7S14872   1.616   5.513   9.978  1.6784 -1.2983  0.7682
  137SAPE   C2814873   1.421   5.531  10.071 -0.0071 -0.0570 -0.3047
  137SAPE   H8R14874   1.407   5.566  10.175  1.1607 -2.7498  0.8531
  137SAPE   C2914875   1.333   5.575   9.975 -1.2057  0.4455 -0.1514
  137SAPE   H9R14876   1.245   5.627  10.015  0.3632  0.9155  3.0148
  137SAPE  C21014877   1.346   5.548   9.826 -0.3231 -0.3936 -0.1226
  137SAPE  H10R14878   1.247   5.529   9.779  1.0275 -0.1924 -3.2984
  137SAPE  H10S14879   1.406   5.454   9.828  0.1852 -0.0898 -0.9386
  137SAPE  C21114880   1.416   5.656   9.752  0.7974  0.0977  0.0291
  137SAPE  H11R14881   1.422   5.754   9.801 -1.0494  0.6253 -0.7328
  137SAPE  C21214882   1.475   5.635   9.631 -0.2818  0.8139  0.1737
  137SAPE  H12R14883   1.526   5.716   9.577  0.3549  0.4012  0.1412
  137SAPE  C21314884   1.486   5.500   9.556 -0.5942 -0.3081  0.5636
  137SAPE  H13R14885   1.437   5.426   9.622 -2.0597 -0.5194 -0.6999
  137SAPE  H13S14886   1.593   5.474   9.542  0.1281  2.2523  0.7315
  137SAPE  C21414887   1.413   5.508   9.418 -0.0055 -0.1334 -0.3808
  137SAPE  H14R14888   1.306   5.526   9.438  0.1936 -0.9735  1.6541
  137SAPE  C21514889   1.458   5.509   9.290  0.4947  0.4653  0.1133
  137SAPE  H15R14890   1.386   5.514   9.207 -0.3016  0.7869  0.8045
  137SAPE  C21614891   1.604   5.500   9.256  0.3240  0.0341 -0.4511
  137SAPE  H16R14892   1.662   5.480   9.349 -1.0389 -1.9601  0.0368
  137SAPE  H16S14893   1.634   5.592   9.201 -1.9033  0.8745 -0.3540
  137SAPE  C21714894   1.622   5.377   9.161 -0.1586 -0.9480  0.1077
  137SAPE  H17R14895   1.573   5.401   9.064  0.7555  1.3700  0.1580
  137SAPE  H17S14896   1.570   5.292   9.210 -2.6827  0.1347 -0.5086
  137SAPE  C21814897   1.768   5.337   9.139 -0.7503  0.3177  0.0198
  137SAPE  H18R14898   1.771   5.246   9.076 -2.6898 -0.2412  0.6612
  137SAPE  H18S14899   1.807   5.304   9.238  0.2903 -0.3687 -0.6096
  137SAPE  C21914900   1.854   5.444   9.070  0.0457 -0.3958 -0.1955
  137SAPE  H19R14901   1.957   5.403   9.075  0.1425 -0.0493  2.0889
  137SAPE  H19S14902   1.848   5.545   9.114 -1.5660  2.2361 -5.6365
  137SAPE  C22014903   1.820   5.476   8.924  0.4351  0.6773 -0.1504
  137SAPE  H20R14904   1.713   5.505   8.914  0.9178  1.7375 -3.0517
  137SAPE  H20S14905   1.835   5.386   8.859 -4.5446 -1.0327  0.6080
  137SAPE  H20T14906   1.894   5.551   8.890 -1.4922  1.4560 -3.0254
  137SAPE   C3314907   2.609   5.835  10.195 -0.1624  0.1010 -0.0295
  137SAPE   H3X14908   2.620   5.734  10.151 -1.3331 -0.2831  0.5118
  137SAPE   H3Y14909   2.684   5.853  10.275 -1.8715  2.2303  1.2214
  137SAPE   C3414910   2.631   5.942  10.089 -0.1663  0.7187  0.1669
  137SAPE   H4X14911   2.733   5.939  10.044 -0.5092  0.4743 -0.6193
  137SAPE   H4Y14912   2.624   6.038  10.144 -1.5676  0.9262 -0.3342
  137SAPE   C3514913   2.528   5.924   9.981  0.1074 -0.0863 -0.1817
  137SAPE   H5X14914   2.426   5.910  10.023 -0.3049 -0.9703 -1.4175
  137SAPE   H5Y14915   2.554   5.831   9.925 -4.0570 -1.6000  0.0947
  137SAPE   C3614916   2.538   6.048   9.889 -0.3357  0.6260  0.6647
  137SAPE   H6X14917   2.476   6.018   9.801  0.6264  1.6653 -0.4085
  137SAPE   H6Y14918   2.642   6.076   9.859 -0.2865 -0.3591 -0.1524
  137SAPE   C3714919   2.463   6.166   9.949  0.6190  0.3391  0.4593
  137SAPE   H7X14920   2.530   6.228  10.012  0.7770  1.0743 -0.4098
  137SAPE   H7Y14921   2.377   6.136  10.012 -0.8491 -0.4547 -1.7874
  137SAPE   C3814922   2.411   6.263   9.842  0.3380  0.0460  0.2213
  137SAPE   H8X14923   2.365   6.349   9.896 -0.3472 -0.9564  1.2837
  137SAPE   H8Y14924   2.337   6.198   9.791  1.3940 -1.4030  0.4742
  137SAPE   C3914925   2.517   6.314   9.742  0.1007 -0.7944  0.3895
  137SAPE   H9X14926   2.545   6.234   9.671 -0.7334 -1.4353  0.7645
  137SAPE   H9Y14927   2.608   6.358   9.788  0.6645 -0.2993 -1.1481
  137SAPE  C31014928   2.459   6.438   9.665  0.4883  0.1050  0.2163
  137SAPE  H10X14929   2.439   6.531   9.723 -0.8676  1.8206 -2.7264
  137SAPE  H10Y14930   2.356   6.409   9.635  1.5226  0.0309 -3.8240
  137SAPE  C31114931   2.535   6.472   9.537 -0.0457  0.6161 -0.7183
  137SAPE  H11X14932   2.636   6.515   9.549  0.6530 -0.1307 -3.2549
  137SAPE  H11Y14933   2.489   6.559   9.486  0.7732  0.1417 -2.3397
  137SAPE  C31214934   2.545   6.349   9.443  0.2595  0.0933 -0.0199
  137SAPE  H12X14935   2.447   6.299   9.437  0.1949  0.2786 -0.6108
  137SAPE  H12Y14936   2.619   6.272   9.474  0.0951  0.5770  1.6911
  137SAPE  C31314937   2.585   6.404   9.301 -0.4494 -0.2893 -0.3520
  137SAPE  H13X14938   2.678   6.461   9.318  0.1538 -0.8874 -1.4955
  137SAPE  H13Y14939   2.496   6.461   9.266 -0.0026  0.5329 -0.1669
  137SAPE  C31414940   2.613   6.302   9.187 -0.3288 -0.4549  0.0647
  137SAPE  H14X14941   2.517   6.248   9.172 -0.0009 -0.7586 -1.0548
  137SAPE  H14Y14942   2.703   6.245   9.216  0.4253  1.1471  1.0199
  137SAPE  C31514943   2.650   6.373   9.055 -0.0831  0.6212 -0.1123
  137SAPE  H15X14944   2.719   6.456   9.080 -3.8701  3.6429  1.3938
  137SAPE  H15Y14945   2.559   6.415   9.006  0.7296  1.1272 -1.2280
  137SAPE  C31614946   2.721   6.274   8.951 -0.0265  0.2593  0.0396
  137SAPE  H16X14947   2.644   6.204   8.914  1.0179  0.2395 -2.3099
  137SAPE  H16Y14948   2.815   6.226   8.986 -1.4524 -2.3339  0.5054
  137SAPE  C31714949   2.734   6.355   8.817 -0.1027 -0.4920 -0.1823
  137SAPE  H17X14950   2.810   6.437   8.828 -1.9539  1.0481  2.2602
  137SAPE  H17Y14951   2.636   6.405   8.799 -0.7114 -1.5801  0.0737
  137SAPE  C31814952   2.741   6.269   8.695 -0.2548 -0.1815  0.6468
  137SAPE  H18X14953   2.671   6.184   8.686  0.7722 -0.9597 -0.3755
  137SAPE  H18Y14954   2.841   6.223   8.708  0.9778  2.2194  0.2632
  137SAPE  H18Z14955   2.720   6.334   8.608 -1.2182  0.1322  1.1027
  138SAPE     N14956   0.405   2.743  11.176 -0.6926 -0.5234  0.2397
  138SAPE   HN114957   0.304   2.767  11.186 -0.7403 -0.0324 -1.1117
  138SAPE   HN214958   0.418   2.640  11.173 -1.5979 -0.6458  0.1228
  138SAPE   HN314959   0.453   2.772  11.263 -2.9207  0.9093  1.0696
  138SAPE   C1214960   0.458   2.805  11.049 -0.1060 -0.0368  0.5589
  138SAPE  H12A14961   0.551   2.750  11.023  0.1315  0.4373  0.3968
  138SAPE  H12B14962   0.479   2.911  11.075  0.5705 -0.5723  2.3145
  138SAPE   C1114963   0.352   2.781  10.934 -0.5674  0.3760 -0.2603
  138SAPE  H11A14964   0.401   2.813  10.839 -2.6446 -0.3443 -1.6337
  138SAPE  H11B14965   0.264   2.848  10.946  0.6052  2.5833 -2.8389
  138SAPE     P14966   0.239   2.588  10.807 -0.3004  0.0700 -0.2685
  138SAPE   O1314967   0.101   2.558  10.854  0.4046 -0.3265 -0.5357
  138SAPE   O1414968   0.246   2.683  10.695  0.7634 -0.2537 -0.0456
  138SAPE   O1214969   0.321   2.638  10.934  0.0280  0.1434  0.4587
  138SAPE   O1114970   0.306   2.451  10.767  0.0722 -0.0376  0.4092
  138SAPE    C114971   0.398   2.389  10.856  0.4945  0.2158  0.1323
  138SAPE    HA14972   0.364   2.401  10.961 -0.3936  1.6763 -0.2979
  138SAPE    HB14973   0.389   2.280  10.836 -0.1634  0.1481  0.7624
  138SAPE    C214974   0.547   2.434  10.843 -0.7927  0.5451  0.3913
  138SAPE    HS14975   0.543   2.535  10.888 -2.2708  0.4741  0.4704
  138SAPE   O2114976   0.581   2.456  10.710 -0.3211  0.3213 -0.1598
  138SAPE   C2114977   0.598   2.342  10.628 -0.2525 -0.1494 -0.0308
  138SAPE   O2214978   0.564   2.230  10.646  0.3217 -0.4410  0.5129
  138SAPE   C2214979   0.669   2.392  10.508  0.2962 -0.3819 -0.3560
  138SAPE   H2R14980   0.652   2.501  10.498 -1.3110 -0.2445  2.6512
  138SAPE   H2S14981   0.775   2.376  10.537  0.7384  1.9444 -0.4940
  138SAPE    C314982   0.645   2.341  10.920  0.2446  0.1351  0.0254
  138SAPE    HX14983   0.660   2.246  10.866 -2.2880 -1.3462  1.7441
  138SAPE    HY14984   0.599   2.305  11.014  0.0078  0.2149 -0.0583
  138SAPE   O3114985   0.773   2.401  10.939 -0.5709  0.1203  0.1129
  138SAPE   C3114986   0.781   2.487  11.036 -0.2523  0.1873  0.4431
  138SAPE   O3214987   0.688   2.511  11.111  0.8062 -0.8454  0.1288
  138SAPE   C3214988   0.911   2.565  11.029 -0.6712 -0.4004 -1.0521
  138SAPE   H2X14989   0.978   2.514  10.958  0.3821 -2.4553  1.2949
  138SAPE   H2Y14990   0.966   2.563  11.126  0.2773 -2.0913 -1.5917
  138SAPE   C2314991   0.639   2.322  10.376  0.6506 -0.3489 -0.4546
  138SAPE   H3R14992   0.656   2.213  10.384 -0.9312 -0.4662  4.1518
  138SAPE   H3S14993   0.709   2.374  10.306  1.3450  2.6450  2.2425
  138SAPE   C2414994   0.495   2.328  10.330 -0.2419 -0.8348 -0.3455
  138SAPE   H4R14995   0.431   2.286  10.411 -0.2916  2.3846  1.4710
  138SAPE   H4S14996   0.475   2.272  10.237 -0.2272 -0.0820 -0.8109
  138SAPE   C2514997   0.462   2.477  10.312  0.1565  0.4200  0.2706
  138SAPE   H5R14998   0.413   2.522  10.399  0.8112  0.4514  0.6257
  138SAPE   C2614999   0.495   2.554  10.211  0.4828 -0.5641 -0.4255
  138SAPE   H6R15000   0.485   2.663  10.220  0.4022 -0.7142  1.6862
  138SAPE   C2715001   0.555   2.492  10.089  0.4372 -0.2284 -0.6164
  138SAPE   H7R15002   0.516   2.389  10.074  3.1662 -1.2350 -1.2423
  138SAPE   H7S15003   0.665   2.504  10.086  0.3912  0.1378 -0.9399
  138SAPE   C2815004   0.508   2.587   9.972  0.0930  0.0374  0.2805
  138SAPE   H8R15005   0.455   2.681   9.995  0.1562  0.1317  0.0488
  138SAPE   C2915006   0.529   2.546   9.843  0.2306  0.0513  0.5946
  138SAPE   H9R15007   0.481   2.603   9.762  0.7321 -0.7117 -0.2597
  138SAPE  C21015008   0.600   2.420   9.801  0.3384 -0.0849  0.0653
  138SAPE  H10R15009   0.538   2.371   9.722 -0.3340 -1.2023  1.2382
  138SAPE  H10S15010   0.599   2.344   9.882 -1.3689  1.6520  1.7890
  138SAPE  C21115011   0.737   2.448   9.741  0.5559  0.3729 -0.1245
  138SAPE  H11R15012   0.821   2.403   9.794 -0.5465  0.5177  1.8380
  138SAPE  C21215013   0.765   2.505   9.620 -0.0699  0.5029  0.3272
  138SAPE  H12R15014   0.870   2.498   9.590 -0.4422 -3.0921 -0.6378
  138SAPE  C21315015   0.657   2.562   9.530 -0.6387  0.5203  0.5835
  138SAPE  H13R15016   0.642   2.671   9.548  0.0775  0.7252 -0.0095
  138SAPE  H13S15017   0.557   2.514   9.540 -0.8523  0.5063 -1.2084
  138SAPE  C21415018   0.711   2.541   9.391  0.0326  0.0522 -0.3603
  138SAPE  H14R15019   0.753   2.442   9.369  0.7710  0.2750  0.0180
  138SAPE  C21515020   0.713   2.633   9.295  0.3982 -0.2728 -0.0667
  138SAPE  H15R15021   0.772   2.602   9.207  2.3860 -0.3195  1.2021
  138SAPE  C21615022   0.660   2.774   9.290 -0.1058  0.1333 -0.1700
  138SAPE  H16R15023   0.740   2.849   9.306  0.1473  0.1266 -1.3390
  138SAPE  H16S15024   0.586   2.780   9.373 -1.5159 -1.6971 -1.2065
  138SAPE  C21715025   0.599   2.808   9.151 -0.6486 -0.4823 -0.0803
  138SAPE  H17R15026   0.524   2.889   9.160  2.1850  2.4897 -1.1785
  138SAPE  H17S15027   0.550   2.713   9.118 -1.1307 -0.7888  1.4496
  138SAPE  C21815028   0.703   2.869   9.057 -0.2499  0.2701  0.4353
  138SAPE  H18R15029   0.791   2.803   9.063 -0.2559  0.3038  0.9275
  138SAPE  H18S15030   0.723   2.973   9.092  0.5162 -0.2818  1.6551
  138SAPE  C21915031   0.652   2.877   8.909 -0.0900  0.0706 -0.4291
  138SAPE  H19R15032   0.547   2.913   8.910  0.2264  1.1914  1.9772
  138SAPE  H19S15033   0.637   2.771   8.879  1.1827  0.6552 -3.4781
  138SAPE  C22015034   0.733   2.964   8.815 -0.5677 -0.0144  0.6851
  138SAPE  H20R15035   0.736   3.071   8.844 -0.1726  0.5509 -1.2427
  138SAPE  H20S15036   0.683   2.946   8.717  0.0320 -0.7406  0.5003
  138SAPE  H20T15037   0.836   2.922   8.812 -0.7172 -0.4249 -2.1581
  138SAPE   C3315038   0.896   2.715  10.993 -0.2274 -0.2802 -0.1456
  138SAPE   H3X15039   0.992   2.767  11.015 -0.6616  0.7149 -0.5573
  138SAPE   H3Y15040   0.808   2.759  11.044  0.0360 -1.3556  1.3006
  138SAPE   C3415041   0.854   2.732  10.847 -0.1108  0.4105 -0.6064
  138SAPE   H4X15042   0.833   2.840  10.835 -0.1674  0.5677  0.8031
  138SAPE   H4Y15043   0.759   2.676  10.829  0.0768 -0.3543  0.6753
  138SAPE   C3515044   0.964   2.689  10.746  0.1789  0.4758 -0.0167
  138SAPE   H5X15045   1.017   2.599  10.787  0.7763  0.8107 -0.0409
  138SAPE   H5Y15046   1.027   2.780  10.749  0.4148  0.3552  3.6647
  138SAPE   C3615047   0.925   2.658  10.603 -0.3413  0.6868  0.7488
  138SAPE   H6X15048   0.874   2.559  10.602 -1.0037  0.9998 -0.9231
  138SAPE   H6Y15049   1.015   2.648  10.538 -1.6224  0.8823 -1.1595
  138SAPE   C3715050   0.832   2.761  10.540  0.0188  0.3504 -0.2715
  138SAPE   H7X15051   0.881   2.860  10.542  0.4137  0.1666 -0.7882
  138SAPE   H7Y15052   0.741   2.763  10.604 -0.4174  1.3851 -0.8918
  138SAPE   C3815053   0.786   2.731  10.400 -0.3944 -0.1627  0.4835
  138SAPE   H8X15054   0.695   2.787  10.368  1.0052  1.3237 -1.0911
  138SAPE   H8Y15055   0.755   2.625  10.392 -3.6770  0.7164 -0.1205
  138SAPE   C3915056   0.902   2.738  10.304 -0.3126  0.3619  1.1117
  138SAPE   H9X15057   0.978   2.658  10.324 -0.1207  0.4378  0.7011
  138SAPE   H9Y15058   0.955   2.834  10.321 -0.7862  0.8029  0.1376
  138SAPE  C31015059   0.846   2.728  10.162  0.2791  0.1257  0.2333
  138SAPE  H10X15060   0.760   2.799  10.163  0.1267 -0.0555  0.9902
  138SAPE  H10Y15061   0.815   2.624  10.141  0.2946  0.4225 -1.3691
  138SAPE  C31115062   0.953   2.782  10.065 -0.1796 -0.0564  0.1073
  138SAPE  H11X15063   1.054   2.739  10.080 -0.5337 -0.1025  2.9371
  138SAPE  H11Y15064   0.965   2.892  10.076  1.3512  0.3920 -4.1623
  138SAPE  C31215065   0.921   2.750   9.913 -0.2468  0.2181 -0.3749
  138SAPE  H12X15066   0.812   2.770   9.907 -0.4507  0.0274  1.8416
  138SAPE  H12Y15067   0.932   2.641   9.897 -1.5359  0.1947 -1.2528
  138SAPE  C31315068   1.015   2.838   9.818 -0.6418  0.1807 -0.1892
  138SAPE  H13X15069   1.116   2.844   9.865 -0.2737  1.7281 -1.1101
  138SAPE  H13Y15070   0.989   2.946   9.817 -1.9431 -0.0834 -2.7319
  138SAPE  C31415071   1.009   2.788   9.673 -0.0166 -0.3731  0.2231
  138SAPE  H14X15072   0.902   2.784   9.640  0.8545  2.6114 -3.8234
  138SAPE  H14Y15073   1.052   2.686   9.673  0.0240 -0.4014 -1.5293
  138SAPE  C31515074   1.077   2.872   9.560 -0.6278 -0.5944 -0.5331
  138SAPE  H15X15075   1.186   2.865   9.581 -0.5202 -0.6235 -1.1091
  138SAPE  H15Y15076   1.037   2.975   9.565  0.1366 -0.3406  1.5429
  138SAPE  C31615077   1.038   2.810   9.429  0.6807  0.1501 -0.2601
  138SAPE  H16X15078   0.927   2.807   9.428  0.6729 -0.1935  0.5220
  138SAPE  H16Y15079   1.071   2.704   9.424 -1.9405 -0.7770  0.3984
  138SAPE  C31715080   1.096   2.885   9.307 -0.0779 -0.4783  0.8881
  138SAPE  H17X15081   1.197   2.923   9.335 -0.2615  0.1376  0.7275
  138SAPE  H17Y15082   1.030   2.974   9.299  2.8308  1.6558 -1.8579
  138SAPE  C31815083   1.088   2.817   9.169  0.0659  0.4922 -0.3768
  138SAPE  H18X15084   0.988   2.822   9.120  0.8654  2.3807 -1.9621
  138SAPE  H18Y15085   1.121   2.711   9.172  0.4523  0.5290 -2.1568
  138SAPE  H18Z15086   1.158   2.881   9.111  0.1436  1.6789  0.9781
  139SAPE     N15087   6.505   1.525  10.854 -0.4380  0.0503 -0.2162
  139SAPE   HN115088   6.598   1.527  10.809  0.6925  0.7046  2.0069
  139SAPE   HN215089   6.464   1.619  10.872 -1.0230  0.5370 -3.4922
  139SAPE   HN315090   6.533   1.495  10.949 -1.5929  2.3137  0.9347
  139SAPE   C1215091   6.404   1.448  10.780  0.4882  0.6944  0.3512
  139SAPE  H12A15092   6.438   1.347  10.749 -2.4346 -0.9945  2.1365
  139SAPE  H12B15093   6.386   1.509  10.689  0.9689 -0.3397 -0.4634
  139SAPE   C1115094   6.273   1.445  10.866 -0.1917 -0.2419 -0.7093
  139SAPE  H11A15095   6.308   1.396  10.960 -0.1734 -0.1471 -0.6673
  139SAPE  H11B15096   6.202   1.378  10.813 -1.6103 -0.2531  1.0889
  139SAPE     P15097   6.100   1.648  10.814 -0.4845  0.3507  0.3498
  139SAPE   O1315098   5.973   1.572  10.825 -0.3912  0.2833 -0.4913
  139SAPE   O1415099   6.105   1.785  10.854 -0.0640 -0.6636  0.1582
  139SAPE   O1215100   6.221   1.577  10.895 -0.0941 -0.6291  0.3444
  139SAPE   O1115101   6.154   1.650  10.662 -0.2967 -0.1207 -0.5104
  139SAPE    C115102   6.076   1.657  10.545  0.4917 -0.6200 -1.1727
  139SAPE    HA15103   5.966   1.644  10.561  0.3089  0.3212 -1.6568
  139SAPE    HB15104   6.090   1.750  10.487  0.0254 -0.6148 -1.2797
  139SAPE    C215105   6.122   1.542  10.452 -0.3182 -0.3124 -0.2951
  139SAPE    HS15106   6.084   1.448  10.497 -2.8195  0.4186 -0.7450
  139SAPE   O2115107   6.272   1.557  10.444 -0.1109 -0.4293  0.7119
  139SAPE   C2115108   6.331   1.431  10.444  0.1251  0.0723 -0.2477
  139SAPE   O2215109   6.273   1.328  10.471  0.6394 -0.1509 -0.0264
  139SAPE   C2215110   6.469   1.446  10.382  0.0481 -0.0114  0.8799
  139SAPE   H2R15111   6.448   1.485  10.280  4.0783  1.6595  0.4960
  139SAPE   H2S15112   6.528   1.519  10.442  0.4996 -0.6251  1.1935
  139SAPE    C315113   6.054   1.549  10.305  0.5199  0.3379 -0.2813
  139SAPE    HX15114   6.095   1.647  10.270  3.9872  0.8623  4.3144
  139SAPE    HY15115   5.944   1.543  10.320  0.8424  0.9209  2.8768
  139SAPE   O3115116   6.097   1.434  10.227  0.5803 -0.2366  0.3546
  139SAPE   C3115117   6.001   1.344  10.204 -0.8714 -0.2623  0.1135
  139SAPE   O3215118   5.897   1.341  10.265 -0.4779 -0.3166 -0.5912
  139SAPE   C3215119   6.031   1.261  10.077 -0.9805 -0.0397  0.6282
  139SAPE   H2X15120   5.950   1.287  10.005 -0.6965  0.0499  0.3365
  139SAPE   H2Y15121   6.024   1.155  10.109 -0.9303  0.1897  1.4308
  139SAPE   C2315122   6.553   1.310  10.363 -0.2359 -0.4003 -0.8247
  139SAPE   H3R15123   6.497   1.243  10.294 -0.0438 -1.3733 -0.0554
  139SAPE   H3S15124   6.546   1.255  10.460  0.2578  1.3603  0.2430
  139SAPE   C2415125   6.692   1.312  10.315 -0.1791  0.3288 -0.4036
  139SAPE   H4R15126   6.755   1.371  10.385  0.4425 -1.0484  0.2217
  139SAPE   H4S15127   6.696   1.373  10.222  0.0259  1.0829  0.0860
  139SAPE   C2515128   6.736   1.168  10.287  0.8445 -0.1451 -0.0740
  139SAPE   H5R15129   6.729   1.102  10.375  2.4277 -0.6832 -0.3068
  139SAPE   C2615130   6.776   1.112  10.168 -0.0563  0.4431 -1.1589
  139SAPE   H6R15131   6.797   1.004  10.169  0.3394  0.5164 -1.3290
  139SAPE   C2715132   6.794   1.184  10.036  0.1557 -0.1810 -0.1156
  139SAPE   H7R15133   6.803   1.294  10.048 -1.7027  0.3364 -2.6069
  139SAPE   H7S15134   6.695   1.169   9.987  1.3255 -1.0715 -2.3282
  139SAPE   C2815135   6.894   1.132   9.937  0.4747  0.2835 -0.4245
  139SAPE   H8R15136   6.968   1.069   9.991  0.6572  0.1479 -0.8315
  139SAPE   C2915137   6.902   1.141   9.807  0.4751 -0.5257  0.5706
  139SAPE   H9R15138   6.991   1.101   9.755  1.5665  2.4349 -0.0140
  139SAPE  C21015139   6.811   1.218   9.716  0.6292  0.1582 -0.7643
  139SAPE  H10R15140   6.720   1.255   9.767  2.5854  2.3824  1.3980
  139SAPE  H10S15141   6.771   1.145   9.643  1.1694 -1.2173  0.2644
  139SAPE  C21115142   6.873   1.344   9.672 -0.0401  0.0576  0.1416
  139SAPE  H11R15143   6.905   1.420   9.745 -1.2136 -0.8208  1.6425
  139SAPE  C21215144   6.902   1.378   9.544  0.5206 -0.5317  0.1253
  139SAPE  H12R15145   6.936   1.482   9.534 -0.4496 -0.0272  1.6076
  139SAPE  C21315146   6.870   1.302   9.413  0.0839 -0.4500 -0.0409
  139SAPE  H13R15147   6.832   1.199   9.433 -1.8821  0.3650  0.6260
  139SAPE  H13S15148   6.965   1.284   9.358 -1.1834  0.4277 -2.7114
  139SAPE  C21415149   6.767   1.370   9.331 -0.2752  0.0146  0.6817
  139SAPE  H14R15150   6.712   1.449   9.384 -1.8031 -0.2698 -0.4045
  139SAPE  C21515151   6.740   1.343   9.201 -0.0829 -0.1236  0.7784
  139SAPE  H15R15152   6.667   1.411   9.155  0.0880  0.7596  1.7649
  139SAPE  C21615153   6.807   1.245   9.107 -0.3908 -0.3530  0.1799
  139SAPE  H16R15154   6.740   1.159   9.084  1.3020 -1.3646 -1.0978
  139SAPE  H16S15155   6.894   1.201   9.160 -0.0982 -1.5120 -1.2124
  139SAPE  C21715156   6.847   1.333   8.988 -0.4280 -0.8822 -0.2007
  139SAPE  H17R15157   6.947   1.299   8.954  0.4511  0.7565  0.6005
  139SAPE  H17S15158   6.878   1.435   9.020  1.9643 -2.5923  3.7168
  139SAPE  C21815159   6.733   1.329   8.881 -0.4515 -0.5096 -0.0048
  139SAPE  H18R15160   6.635   1.348   8.930 -0.2972  0.5939 -0.0838
  139SAPE  H18S15161   6.736   1.225   8.843  3.4586 -0.7581  0.6638
  139SAPE  C21915162   6.749   1.433   8.759  0.1470 -0.2826  0.7067
  139SAPE  H19R15163   6.654   1.447   8.704  0.5173  1.1393  0.3942
  139SAPE  H19S15164   6.821   1.390   8.686 -0.7704  0.9899 -1.0079
  139SAPE  C22015165   6.786   1.568   8.815 -0.0574  0.6986 -0.0371
  139SAPE  H20R15166   6.765   1.650   8.743 -1.7739  0.5809  0.2704
  139SAPE  H20S15167   6.892   1.563   8.849  0.4353  0.9379 -1.4955
  139SAPE  H20T15168   6.711   1.581   8.896 -1.8395  0.9880 -1.6542
  139SAPE   C3315169   6.178   1.294  10.025  0.0202 -0.5532 -0.8627
  139SAPE   H3X15170   6.257   1.273  10.102  0.1146  1.4894 -0.3391
  139SAPE   H3Y15171   6.188   1.404  10.011  1.8096 -0.5061  0.3312
  139SAPE   C3415172   6.207   1.234   9.890  0.1219  0.3276 -0.2604
  139SAPE   H4X15173   6.122   1.255   9.821 -0.4675  1.5409  0.7996
  139SAPE   H4Y15174   6.223   1.126   9.910 -1.7909 -0.3608 -2.0276
  139SAPE   C3515175   6.346   1.281   9.848 -0.5399  0.5292  0.0114
  139SAPE   H5X15176   6.420   1.273   9.930 -1.4009  1.4678  0.9169
  139SAPE   H5Y15177   6.330   1.390   9.834  1.1720  0.9321  0.9810
  139SAPE   C3615178   6.408   1.220   9.721  0.1272  0.0223  0.7387
  139SAPE   H6X15179   6.430   1.114   9.746  1.6963 -0.6186 -2.7284
  139SAPE   H6Y15180   6.500   1.273   9.686  0.7334 -1.9499 -0.8076
  139SAPE   C3715181   6.313   1.213   9.598 -0.0393 -0.4616  0.2905
  139SAPE   H7X15182   6.276   1.315   9.575  0.1149 -0.2968  0.7589
  139SAPE   H7Y15183   6.221   1.159   9.626 -0.3500  0.8789  2.0457
  139SAPE   C3815184   6.366   1.154   9.471 -0.5760 -0.7337  0.3434
  139SAPE   H8X15185   6.386   1.045   9.479 -0.2914 -0.5710  2.0269
  139SAPE   H8Y15186   6.456   1.211   9.438 -1.6427  1.7738  1.5025
  139SAPE   C3915187   6.271   1.170   9.349 -0.0528 -0.1306  0.1483
  139SAPE   H9X15188   6.236   1.272   9.373 -0.1617 -0.3314  0.8617
  139SAPE   H9Y15189   6.189   1.095   9.342 -1.0693  1.0333 -0.6756
  139SAPE  C31015190   6.339   1.171   9.214 -0.9236  0.1377 -0.1700
  139SAPE  H10X15191   6.392   1.077   9.187 -1.2617  0.4529 -2.0504
  139SAPE  H10Y15192   6.408   1.258   9.206 -2.5301  1.3925 -0.9101
  139SAPE  C31115193   6.235   1.199   9.101 -0.5854  0.3578 -0.9456
  139SAPE  H11X15194   6.196   1.301   9.120  1.5287  1.3109 -1.3905
  139SAPE  H11Y15195   6.156   1.125   9.123 -0.9069  1.3686  1.7627
  139SAPE  C31215196   6.291   1.197   8.958 -0.2263 -0.1024 -0.1170
  139SAPE  H12X15197   6.338   1.097   8.941 -0.6641 -0.1429 -1.1496
  139SAPE  H12Y15198   6.367   1.277   8.945  0.4673  0.0592  3.7045
  139SAPE  C31315199   6.186   1.207   8.845 -0.0054 -0.1920 -0.1525
  139SAPE  H13X15200   6.105   1.279   8.872  0.7060  0.6208 -0.1187
  139SAPE  H13Y15201   6.149   1.103   8.853 -0.8523  0.1787  1.2841
  139SAPE  C31415202   6.236   1.209   8.708 -0.3961 -0.3022  0.4653
  139SAPE  H14X15203   6.333   1.153   8.708 -0.8503 -1.1192 -0.5854
  139SAPE  H14Y15204   6.250   1.312   8.669  0.2575 -0.9394 -1.0858
  139SAPE  C31515205   6.137   1.147   8.610  0.4393  0.3094  0.2126
  139SAPE  H15X15206   6.039   1.199   8.612  0.1443 -0.2475  0.3129
  139SAPE  H15Y15207   6.113   1.044   8.644  0.9830 -0.2789 -1.1110
  139SAPE  C31615208   6.183   1.139   8.462 -0.9570  0.3262  0.1210
  139SAPE  H16X15209   6.101   1.111   8.393 -0.3041 -0.7095 -0.2588
  139SAPE  H16Y15210   6.214   1.244   8.444  1.5771 -0.3046  0.4466
  139SAPE  C31715211   6.303   1.045   8.443  0.1490 -0.0140 -0.3012
  139SAPE  H17X15212   6.274   0.951   8.494  0.8268 -1.5425 -2.5875
  139SAPE  H17Y15213   6.393   1.088   8.491  0.7124 -0.6948 -0.7326
  139SAPE  C31815214   6.329   1.022   8.301  0.0226 -0.1246  0.6771
  139SAPE  H18X15215   6.240   0.998   8.239  0.9989 -1.1701 -0.3490
  139SAPE  H18Y15216   6.403   0.943   8.279  1.4814  1.3818  0.0065
  139SAPE  H18Z15217   6.353   1.110   8.239 -1.5082  0.3711  0.7445
  140SAPE     N15218   2.208   3.268  11.075 -0.4708  1.0746 -0.9129
  140SAPE   HN115219   2.244   3.182  11.028 -0.5416 -0.1859  1.2186
  140SAPE   HN215220   2.287   3.335  11.084 -0.5835  1.7581 -3.9522
  140SAPE   HN315221   2.165   3.240  11.166  0.8395 -1.2504 -0.9391
  140SAPE   C1215222   2.111   3.324  10.971  0.0020 -0.3178 -0.0714
  140SAPE  H12A15223   2.174   3.378  10.898  0.7116 -1.0428 -0.0067
  140SAPE  H12B15224   2.058   3.401  11.031  0.6900 -0.0431  0.1854
  140SAPE   C1115225   2.014   3.224  10.906  1.0372  0.6895  0.1691
  140SAPE  H11A15226   2.071   3.145  10.852 -1.8063 -0.2483 -1.7290
  140SAPE  H11B15227   1.950   3.281  10.835  0.4346 -1.8708 -1.4951
  140SAPE     P15228   1.772   3.156  11.000 -0.0749 -0.3624  0.2285
  140SAPE   O1315229   1.715   3.073  11.107  0.2760 -0.3063  0.1386
  140SAPE   O1415230   1.705   3.291  10.972 -0.8633 -0.5820  0.2341
  140SAPE   O1215231   1.926   3.158  11.000 -0.1947 -0.2003 -0.6149
  140SAPE   O1115232   1.747   3.071  10.871  0.4184 -0.2472 -0.5101
  140SAPE    C115233   1.611   3.035  10.841 -0.1563  0.2618  0.5147
  140SAPE    HA15234   1.603   2.924  10.837 -0.2074  0.2424  1.0633
  140SAPE    HB15235   1.533   3.075  10.909 -0.1743 -0.2632  0.8042
  140SAPE    C215236   1.575   3.083  10.693  0.3060 -0.6759  0.2868
  140SAPE    HS15237   1.464   3.076  10.695  0.2555  0.1959  1.1862
  140SAPE   O2115238   1.637   2.995  10.594 -0.5191 -0.6684  0.4069
  140SAPE   C2115239   1.584   2.879  10.564 -0.2913  0.3012  0.3993
  140SAPE   O2215240   1.497   2.820  10.625  0.6625 -0.1957  0.2347
  140SAPE   C2215241   1.652   2.837  10.436  0.4493 -1.1351 -0.1490
  140SAPE   H2R15242   1.652   2.926  10.369  0.0631  0.6114  2.0375
  140SAPE   H2S15243   1.757   2.806  10.451  0.6959 -0.0665  0.4462
  140SAPE    C315244   1.615   3.231  10.666  0.2522 -0.1034  0.1495
  140SAPE    HX15245   1.719   3.237  10.706 -0.5273  2.8229  2.0490
  140SAPE    HY15246   1.550   3.297  10.727 -0.4132 -1.8596  1.4430
  140SAPE   O3115247   1.601   3.264  10.528 -0.1483 -0.7425  0.6781
  140SAPE   C3115248   1.668   3.356  10.472 -0.3693  0.1901 -0.7389
  140SAPE   O3215249   1.767   3.412  10.529  0.7966  0.8035  0.3852
  140SAPE   C3215250   1.625   3.385  10.332  0.6257 -0.0820  0.1323
  140SAPE   H2X15251   1.537   3.454  10.339  0.6844 -0.1335  1.6894
  140SAPE   H2Y15252   1.597   3.287  10.289 -0.8273 -0.8520  2.6642
  140SAPE   C2315253   1.582   2.729  10.355  0.0255 -0.4198 -0.9905
  140SAPE   H3R15254   1.473   2.748  10.354  0.5612  3.5397 -0.3149
  140SAPE   H3S15255   1.600   2.643  10.422  0.0295 -0.1150 -0.5951
  140SAPE   C2415256   1.638   2.705  10.210  0.1622 -0.2041 -0.3278
  140SAPE   H4R15257   1.578   2.621  10.169  0.1611  0.7207 -2.3081
  140SAPE   H4S15258   1.743   2.670  10.215  0.0950 -0.4017 -0.2929
  140SAPE   C2515259   1.612   2.823  10.121 -0.2498  0.3036  0.7879
  140SAPE   H5R15260   1.643   2.924  10.149  0.0423  1.3862 -2.8932
  140SAPE   C2615261   1.578   2.820   9.992 -0.0584 -0.1954  0.2847
  140SAPE   H6R15262   1.570   2.915   9.936  2.1397  0.4209  0.9354
  140SAPE   C2715263   1.555   2.696   9.914  0.2259 -0.4045  0.6678
  140SAPE   H7R15264   1.597   2.613   9.974  3.3590  1.0692  0.6924
  140SAPE   H7S15265   1.625   2.698   9.827  1.4799 -2.3806  1.5786
  140SAPE   C2815266   1.414   2.670   9.863  0.2073 -0.0936  0.0908
  140SAPE   H8R15267   1.335   2.644   9.936 -0.4432  2.9140  0.5927
  140SAPE   C2915268   1.376   2.677   9.737  0.1185 -0.0189  0.0864
  140SAPE   H9R15269   1.268   2.664   9.715  0.3662  1.2517 -2.2434
  140SAPE  C21015270   1.458   2.695   9.615  0.2151 -0.5375  0.0208
  140SAPE  H10R15271   1.531   2.775   9.640  0.0493 -0.5000  0.3881
  140SAPE  H10S15272   1.393   2.726   9.530  0.1476  1.2759  0.6990
  140SAPE  C21115273   1.533   2.572   9.571  0.5847  0.1255  0.5748
  140SAPE  H11R15274   1.550   2.487   9.639  1.2903  0.2760  0.6009
  140SAPE  C21215275   1.576   2.541   9.445 -0.2359 -0.3348  0.0303
  140SAPE  H12R15276   1.635   2.449   9.430 -0.0551 -0.1761 -0.2490
  140SAPE  C21315277   1.565   2.628   9.323  0.5764  0.1676  0.2539
  140SAPE  H13R15278   1.664   2.644   9.276  0.7849  1.4187  1.0634
  140SAPE  H13S15279   1.535   2.732   9.350  1.6547  0.8896 -1.2154
  140SAPE  C21415280   1.454   2.577   9.228 -0.4883  0.0704 -0.1797
  140SAPE  H14R15281   1.367   2.540   9.285  0.6047 -0.7013  1.0576
  140SAPE  C21515282   1.460   2.550   9.091  0.2259 -0.1355 -0.1607
  140SAPE  H15R15283   1.359   2.542   9.047 -0.3757  0.1067  1.1345
  140SAPE  C21615284   1.576   2.557   8.996 -0.6015 -0.5583 -0.0541
  140SAPE  H16R15285   1.588   2.467   8.932  1.2089 -0.0198 -0.5402
  140SAPE  H16S15286   1.672   2.562   9.052 -1.0917 -3.4945  1.2874
  140SAPE  C21715287   1.555   2.681   8.909 -0.7348  0.2497  0.5738
  140SAPE  H17R15288   1.455   2.679   8.861  0.2968 -0.8397 -1.6716
  140SAPE  H17S15289   1.628   2.692   8.826  0.2262 -0.3738  1.3000
  140SAPE  C21815290   1.570   2.819   8.983  0.7773 -0.2332 -0.6054
  140SAPE  H18R15291   1.670   2.827   9.031  1.5053  2.6937 -2.3848
  140SAPE  H18S15292   1.507   2.820   9.075 -0.1599  3.5653 -1.1120
  140SAPE  C21915293   1.542   2.935   8.887 -0.4880  0.4452 -0.0948
  140SAPE  H19R15294   1.561   3.030   8.943 -2.2773  2.0534 -2.0293
  140SAPE  H19S15295   1.434   2.936   8.861 -0.1821  1.7851 -1.4905
  140SAPE  C22015296   1.629   2.937   8.753  0.1610  0.9935  0.2130
  140SAPE  H20R15297   1.616   2.852   8.683 -0.8942 -1.6568  3.3600
  140SAPE  H20S15298   1.734   2.938   8.790 -0.6743 -1.3639  3.1503
  140SAPE  H20T15299   1.597   3.026   8.696  1.5710  1.0763 -0.4682
  140SAPE   C3315300   1.722   3.480  10.242 -0.3482  0.4045  0.3659
  140SAPE   H3X15301   1.805   3.410  10.219 -1.5785 -1.2325  0.6670
  140SAPE   H3Y15302   1.752   3.568  10.302 -1.7427  1.3048 -0.2148
  140SAPE   C3415303   1.657   3.521  10.106  0.5566 -0.1628  0.7176
  140SAPE   H4X15304   1.641   3.419  10.064  4.0041 -0.6752  0.4246
  140SAPE   H4Y15305   1.730   3.569  10.039 -0.0895 -0.1088  0.0396
  140SAPE   C3515306   1.524   3.597  10.109  0.3705 -0.9650 -0.4448
  140SAPE   H5X15307   1.529   3.689  10.172 -1.9926 -1.3972  0.4906
  140SAPE   H5Y15308   1.444   3.533  10.152  0.3294 -0.7110 -0.1397
  140SAPE   C3615309   1.486   3.635   9.968  0.2212  0.0310 -0.1087
  140SAPE   H6X15310   1.469   3.544   9.906  0.7104 -1.5720  1.9729
  140SAPE   H6Y15311   1.572   3.690   9.925  1.3625 -1.0380  0.7187
  140SAPE   C3715312   1.362   3.720   9.956 -0.0705  0.2011 -0.2376
  140SAPE   H7X15313   1.348   3.799  10.033  0.2932  0.7824 -0.7548
  140SAPE   H7Y15314   1.269   3.660   9.945 -1.5783  2.4791 -0.6860
  140SAPE   C3815315   1.364   3.796   9.822 -0.7674  0.2371 -0.2384
  140SAPE   H8X15316   1.389   3.721   9.744  0.3127  1.1452 -0.8086
  140SAPE   H8Y15317   1.451   3.863   9.839  1.5062 -2.1846 -1.6421
  140SAPE   C3915318   1.241   3.877   9.800  0.0866  0.0660  0.0127
  140SAPE   H9X15319   1.223   3.935   9.893 -1.5031 -1.9926  1.0654
  140SAPE   H9Y15320   1.147   3.819   9.790  0.3606 -0.2040 -1.1444
  140SAPE  C31015321   1.247   3.974   9.678 -1.3628 -1.0340 -0.8698
  140SAPE  H10X15322   1.326   4.047   9.707 -1.9987 -0.3242 -0.8946
  140SAPE  H10Y15323   1.152   4.031   9.678 -0.2488  0.9248 -0.1466
  140SAPE  C31115324   1.263   3.902   9.540 -0.7854  0.0598 -0.1755
  140SAPE  H11X15325   1.187   3.825   9.517  0.0878 -1.2422  1.1182
  140SAPE  H11Y15326   1.364   3.857   9.542 -0.5652  0.5527  1.3187
  140SAPE  C31215327   1.252   4.009   9.426 -0.3763 -0.2306  0.7249
  140SAPE  H12X15328   1.320   4.088   9.465 -1.2490  0.6168  0.5647
  140SAPE  H12Y15329   1.151   4.055   9.416 -0.2970  0.0532  1.2014
  140SAPE  C31315330   1.293   3.958   9.286  0.2325 -0.0353  0.6971
  140SAPE  H13X15331   1.217   3.882   9.259  0.9622 -0.7476  0.5910
  140SAPE  H13Y15332   1.385   3.895   9.293  0.9616  1.0348  1.0681
  140SAPE  C31415333   1.332   4.058   9.188 -0.2995 -0.2182  0.3433
  140SAPE  H14X15334   1.379   4.012   9.099 -1.5928  0.9456 -0.9980
  140SAPE  H14Y15335   1.413   4.122   9.229  0.4092 -1.4903  0.9797
  140SAPE  C31515336   1.214   4.131   9.130 -0.2049  0.2066 -0.0019
  140SAPE  H15X15337   1.167   4.176   9.221 -1.3124 -3.2489  1.2902
  140SAPE  H15Y15338   1.134   4.070   9.083  0.9195 -0.5432 -0.9747
  140SAPE  C31615339   1.247   4.238   9.014  0.2100  0.0838 -0.4418
  140SAPE  H16X15340   1.163   4.307   8.994  0.5918  0.8256  0.4485
  140SAPE  H16Y15341   1.273   4.177   8.925 -3.4677  0.2659 -1.8179
  140SAPE  C31715342   1.370   4.330   9.031  0.1244  0.4851  0.2757
  140SAPE  H17X15343   1.468   4.278   9.030  0.6176  1.3959  0.5271
  140SAPE  H17Y15344   1.367   4.377   9.132 -0.9686 -0.6573  0.8130
  140SAPE  C31815345   1.382   4.434   8.920 -0.0936  0.1611  0.0653
  140SAPE  H18X15346   1.480   4.486   8.922  0.4026 -0.7465 -0.4045
  140SAPE  H18Y15347   1.291   4.495   8.937 -0.4058  0.3903 -2.1728
  140SAPE  H18Z15348   1.368   4.377   8.826  1.2741 -1.9369  1.0748
  141SAPE     N15349   2.817   2.926  10.920 -0.0912  0.2198  0.5643
  141SAPE   HN115350   2.734   2.866  10.936  0.8480 -1.1069  0.6233
  141SAPE   HN215351   2.854   2.891  10.829 -2.0813  0.5899 -0.4414
  141SAPE   HN315352   2.881   2.916  11.001  0.7391 -1.0484 -0.2124
  141SAPE   C1215353   2.757   3.066  10.910  0.6001  0.5888 -0.2477
  141SAPE  H12A15354   2.824   3.129  10.848  0.9428 -1.2655 -1.8451
  141SAPE  H12B15355   2.756   3.098  11.017 -0.9756 -0.5810  0.1241
  141SAPE   C1115356   2.609   3.069  10.849  0.5155  0.2633 -0.6592
  141SAPE  H11A15357   2.620   3.082  10.739 -2.6821  3.2018 -0.7751
  141SAPE  H11B15358   2.553   3.158  10.883 -0.8225 -0.7665 -0.0623
  141SAPE     P15359   2.394   2.928  10.915  0.4950 -0.1650 -0.0838
  141SAPE   O1315360   2.372   2.787  10.952 -0.0415 -0.0917 -0.2457
  141SAPE   O1415361   2.347   3.022  11.021  0.1110  0.1721 -0.3326
  141SAPE   O1215362   2.544   2.951  10.890 -0.3659  0.1523  0.0723
  141SAPE   O1115363   2.325   2.956  10.774 -0.2166  0.0306 -0.2978
  141SAPE    C115364   2.400   2.917  10.660 -0.0757 -0.2171  0.0113
  141SAPE    HA15365   2.424   3.013  10.610 -1.5651 -0.0991 -0.5478
  141SAPE    HB15366   2.494   2.860  10.674 -0.0176 -0.4540 -1.2451
  141SAPE    C215367   2.290   2.840  10.565  0.9212 -0.1197  0.7807
  141SAPE    HS15368   2.328   2.839  10.461 -1.2159 -1.3018 -0.0485
  141SAPE   O2115369   2.162   2.904  10.581 -0.1226 -0.0611  0.3762
  141SAPE   C2115370   2.144   3.020  10.516  0.4085 -0.4666 -0.2645
  141SAPE   O2215371   2.231   3.077  10.454 -0.2128 -0.1226  0.4028
  141SAPE   C2215372   1.999   3.065  10.534 -0.0215  0.3517 -0.4618
  141SAPE   H2R15373   1.940   2.976  10.566  0.9859  0.4099  1.7641
  141SAPE   H2S15374   1.997   3.143  10.613  4.0308 -0.3133  0.5538
  141SAPE    C315375   2.278   2.695  10.614  0.6675  0.5844  0.0402
  141SAPE    HX15376   2.253   2.689  10.722 -0.4086 -0.2560 -0.2391
  141SAPE    HY15377   2.379   2.652  10.596  0.6792  0.7347 -0.2605
  141SAPE   O3115378   2.168   2.623  10.562 -0.0158  0.0427 -0.3643
  141SAPE   C3115379   2.191   2.565  10.447 -0.0918  0.4950  0.7566
  141SAPE   O3215380   2.287   2.579  10.373 -0.3115 -0.3064 -0.2644
  141SAPE   C3215381   2.081   2.468  10.423 -0.4876  0.0504 -0.0201
  141SAPE   H2X15382   1.988   2.518  10.457 -0.5127  0.5228 -0.7720
  141SAPE   H2Y15383   2.100   2.384  10.493  1.4743  0.1616 -0.3719
  141SAPE   C2315384   1.927   3.116  10.403 -0.6824 -0.0004 -0.1630
  141SAPE   H3R15385   1.964   3.215  10.370  1.7696 -1.4286 -2.0936
  141SAPE   H3S15386   1.820   3.136  10.425 -0.4813  3.0607 -1.4640
  141SAPE   C2415387   1.922   3.004  10.294 -0.1460  0.4603 -1.0004
  141SAPE   H4R15388   1.824   3.012  10.242 -0.4744  2.8499 -0.1496
  141SAPE   H4S15389   1.923   2.901  10.336  1.4287  0.6042 -0.6480
  141SAPE   C2515390   2.033   3.022  10.192  0.0437  0.0813  0.4419
  141SAPE   H5R15391   2.129   2.975  10.218 -0.5950 -1.8539 -0.4727
  141SAPE   C2615392   2.038   3.098  10.077 -0.4389  0.3465  0.7549
  141SAPE   H6R15393   2.124   3.086  10.010 -0.7171 -0.1754  0.4843
  141SAPE   C2715394   1.921   3.187  10.035  0.8003  0.0716 -0.4345
  141SAPE   H7R15395   1.964   3.290  10.031 -0.2458  0.4739 -1.6866
  141SAPE   H7S15396   1.840   3.193  10.111  0.1620  2.4493 -1.2280
  141SAPE   C2815397   1.871   3.148   9.894  0.5047 -0.2582  0.7681
  141SAPE   H8R15398   1.857   3.039   9.887  1.2067 -0.2259 -2.8456
  141SAPE   C2915399   1.839   3.239   9.795  0.3076 -0.2983 -0.1681
  141SAPE   H9R15400   1.805   3.189   9.704  1.5677 -0.4526 -0.5702
  141SAPE  C21015401   1.852   3.386   9.795 -0.1615  0.1546  0.4712
  141SAPE  H10R15402   1.958   3.417   9.778 -0.1082  0.2781  1.0001
  141SAPE  H10S15403   1.823   3.431   9.893 -0.3555 -1.8131  1.3656
  141SAPE  C21115404   1.765   3.452   9.686  0.4388  0.0260 -0.6846
  141SAPE  H11R15405   1.663   3.473   9.720  0.9716  0.1509  0.9078
  141SAPE  C21215406   1.806   3.494   9.568 -0.2005  0.0216  0.4834
  141SAPE  H12R15407   1.740   3.552   9.503  0.8019  2.1210  1.2465
  141SAPE  C21315408   1.947   3.486   9.520  0.5414  0.1409 -0.6541
  141SAPE  H13R15409   2.022   3.444   9.590  0.7476  0.3299 -0.7611
  141SAPE  H13S15410   1.991   3.586   9.500 -1.6136  0.7736 -2.6987
  141SAPE  C21415411   1.956   3.394   9.403  0.6266 -0.2997 -0.7935
  141SAPE  H14R15412   1.929   3.293   9.435 -2.0933  0.4197 -0.5393
  141SAPE  C21515413   1.968   3.429   9.272 -0.3047 -0.1631  0.3512
  141SAPE  H15R15414   1.960   3.349   9.196 -0.3470  0.5927 -0.4479
  141SAPE  C21615415   1.992   3.566   9.205 -0.7013  0.6403 -0.0542
  141SAPE  H16R15416   2.037   3.642   9.272 -0.6078  1.1532 -0.6807
  141SAPE  H16S15417   1.896   3.620   9.192 -0.2933  1.1721 -0.9614
  141SAPE  C21715418   2.075   3.591   9.074 -0.4993  0.3430 -0.2184
  141SAPE  H17R15419   2.052   3.516   8.995 -1.3611  0.3704 -0.0032
  141SAPE  H17S15420   2.180   3.583   9.109 -0.9726  0.1071  1.1950
  141SAPE  C21815421   2.062   3.733   9.009  0.2773  0.4368  0.7290
  141SAPE  H18R15422   2.075   3.811   9.088  2.3136  0.3850  0.4922
  141SAPE  H18S15423   1.956   3.730   8.976 -0.3033  0.8329  2.4402
  141SAPE  C21915424   2.165   3.757   8.901 -0.0866 -0.4837  0.1470
  141SAPE  H19R15425   2.123   3.689   8.824 -0.0069 -0.6375  0.2392
  141SAPE  H19S15426   2.268   3.731   8.934 -0.5326 -1.6593  0.6931
  141SAPE  C22015427   2.172   3.895   8.839  0.8691  0.2970 -0.6514
  141SAPE  H20R15428   2.277   3.898   8.802  1.1695 -0.1522  0.1586
  141SAPE  H20S15429   2.167   3.971   8.920  0.4245 -1.8116  1.3957
  141SAPE  H20T15430   2.094   3.929   8.767  1.6358  0.1824 -1.5511
  141SAPE   C3315431   2.081   2.420  10.278 -0.3203 -0.5657 -0.8583
  141SAPE   H3X15432   2.020   2.328  10.285  0.6513 -1.1229  1.3970
  141SAPE   H3Y15433   2.182   2.385  10.246  0.1070 -1.3606  1.1947
  141SAPE   C3415434   2.032   2.512  10.171 -0.6760 -0.6989 -0.2607
  141SAPE   H4X15435   2.088   2.608  10.177  1.1910 -1.8224  1.3472
  141SAPE   H4Y15436   1.923   2.530  10.186 -0.9764 -1.4996 -1.3800
  141SAPE   C3515437   2.052   2.450  10.033 -0.2894  0.2200 -0.7192
  141SAPE   H5X15438   2.004   2.349  10.033  0.7058 -0.3022  1.0809
  141SAPE   H5Y15439   2.162   2.443  10.020 -0.2339  0.6762 -0.5017
  141SAPE   C3615440   1.977   2.536   9.928 -0.2253  0.0319 -0.5950
  141SAPE   H6X15441   1.998   2.641   9.957 -4.1002  0.1607  2.6382
  141SAPE   H6Y15442   1.867   2.525   9.933 -0.0939 -1.5891 -0.6465
  141SAPE   C3715443   2.021   2.510   9.785  0.6399  0.0058  0.1326
  141SAPE   H7X15444   1.999   2.402   9.772 -3.8127  0.7244  0.3114
  141SAPE   H7Y15445   2.132   2.514   9.772  0.6852 -0.3767  0.3695
  141SAPE   C3815446   1.947   2.573   9.670  0.1223 -0.3816  0.6190
  141SAPE   H8X15447   1.841   2.543   9.654 -0.4984  1.7389  0.4048
  141SAPE   H8Y15448   2.007   2.546   9.580 -0.0249 -0.2839  0.4928
  141SAPE   C3915449   1.938   2.728   9.684  0.0409 -0.2066 -0.7003
  141SAPE   H9X15450   2.039   2.774   9.689 -0.6274  1.1502  1.1278
  141SAPE   H9Y15451   1.885   2.742   9.781  0.0982 -0.0332 -0.6939
  141SAPE  C31015452   1.847   2.796   9.571  0.5498 -0.0303 -0.5105
  141SAPE  H10X15453   1.823   2.900   9.600  0.1399  0.2173 -1.6785
  141SAPE  H10Y15454   1.754   2.735   9.568  1.0561 -1.1894  2.8687
  141SAPE  C31115455   1.903   2.805   9.432  0.6062  0.3961  0.3413
  141SAPE  H11X15456   1.886   2.709   9.377 -1.9319  1.5071 -0.9870
  141SAPE  H11Y15457   2.013   2.818   9.438  0.8602 -0.9469 -0.8239
  141SAPE  C31215458   1.844   2.918   9.352 -0.5404 -0.4305 -0.0576
  141SAPE  H12X15459   1.833   3.015   9.405 -1.0752 -0.3386 -0.3338
  141SAPE  H12Y15460   1.737   2.894   9.335 -0.9102 -3.2255  4.4520
  141SAPE  C31315461   1.914   2.950   9.219 -0.0195 -0.6036 -1.0052
  141SAPE  H13X15462   1.899   2.868   9.145 -0.6548 -1.6244  0.2066
  141SAPE  H13Y15463   2.024   2.949   9.237  0.0825 -4.0127 -1.1769
  141SAPE  C31415464   1.875   3.085   9.147  0.1083  0.2244 -0.6625
  141SAPE  H14X15465   1.862   3.165   9.223 -2.1854 -1.9864  1.4498
  141SAPE  H14Y15466   1.781   3.066   9.091  0.9019 -1.6944 -1.4196
  141SAPE  C31515467   1.982   3.117   9.043 -0.0422  0.3738 -0.3563
  141SAPE  H15X15468   2.076   3.129   9.102 -1.2339  0.9744  1.5380
  141SAPE  H15Y15469   1.963   3.217   8.997 -0.6230  0.8369  0.8495
  141SAPE  C31615470   2.007   3.017   8.934 -0.0255 -0.6630  1.3932
  141SAPE  H16X15471   1.917   2.999   8.872 -1.2987 -0.4380  3.1171
  141SAPE  H16Y15472   2.044   2.924   8.982  1.4258  0.4989  2.6376
  141SAPE  C31715473   2.113   3.072   8.848 -0.0006  0.2638  0.3828
  141SAPE  H17X15474   2.210   3.094   8.896  0.8772 -1.4025 -0.5433
  141SAPE  H17Y15475   2.086   3.170   8.802  2.9095  1.3164  0.7096
  141SAPE  C31815476   2.159   2.961   8.748  0.0005 -0.5120 -0.3999
  141SAPE  H18X15477   2.255   2.995   8.704 -1.3628  2.6774 -1.2343
  141SAPE  H18Y15478   2.083   2.966   8.667 -0.8039  1.3160  0.3829
  141SAPE  H18Z15479   2.155   2.858   8.788  1.0660 -0.7000 -0.7689
  142SAPE     N15480   2.923   3.397  11.242  0.1818  0.4136  0.8970
  142SAPE   HN115481   2.915   3.447  11.152  1.2385 -0.4110  0.3136
  142SAPE   HN215482   3.024   3.385  11.265  0.4153 -0.8888 -0.6281
  142SAPE   HN315483   2.870   3.308  11.243  0.7739  0.0523  0.5977
  142SAPE   C1215484   2.856   3.474  11.353  0.4007 -0.6332  0.6353
  142SAPE  H12A15485   2.888   3.422  11.446 -1.2201 -1.5673  0.6987
  142SAPE  H12B15486   2.750   3.442  11.345 -0.3533  1.7741  0.1974
  142SAPE   C1115487   2.886   3.630  11.353  0.0078 -0.2892  0.2425
  142SAPE  H11A15488   2.867   3.670  11.455 -1.2994 -1.3233  0.4287
  142SAPE  H11B15489   2.820   3.667  11.272 -1.3346 -1.2391  0.8480
  142SAPE     P15490   3.070   3.753  11.214 -0.0848 -0.2875  0.0762
  142SAPE   O1315491   2.991   3.877  11.239 -0.8620 -0.0528 -0.5378
  142SAPE   O1415492   3.217   3.760  11.206 -0.0683  0.1256 -0.4397
  142SAPE   O1215493   3.026   3.651  11.324 -0.1347  0.3668  0.4448
  142SAPE   O1115494   3.014   3.683  11.079 -0.2648  0.4575  0.4133
  142SAPE    C115495   3.106   3.628  10.982 -0.6890  0.0551  0.7829
  142SAPE    HA15496   3.208   3.666  11.002 -0.0244 -1.8258  1.1108
  142SAPE    HB15497   3.111   3.518  10.994  0.7785  0.1407  1.1282
  142SAPE    C215498   3.063   3.666  10.837 -0.0375  0.3074 -0.7462
  142SAPE    HS15499   2.963   3.625  10.812 -0.0159 -0.4126  0.2943
  142SAPE   O2115500   3.166   3.625  10.748  0.1848 -0.1950  0.1915
  142SAPE   C2115501   3.155   3.501  10.699  0.4443 -0.0046  0.4949
  142SAPE   O2215502   3.062   3.425  10.706 -0.5850  0.4643  0.0921
  142SAPE   C2215503   3.280   3.472  10.614  0.4954 -0.2261 -0.0745
  142SAPE   H2R15504   3.366   3.521  10.665 -0.1796 -0.1390  1.0160
  142SAPE   H2S15505   3.301   3.363  10.619 -1.2848 -0.6125 -0.4046
  142SAPE    C315506   3.022   3.817  10.828 -0.4147  0.0803 -0.4469
  142SAPE    HX15507   3.115   3.877  10.839 -0.4390  0.3957 -1.8078
  142SAPE    HY15508   2.958   3.841  10.916 -0.4258 -0.8836 -0.1822
  142SAPE   O3115509   2.953   3.853  10.708  0.7338 -0.0462  0.0303
  142SAPE   C3115510   3.018   3.849  10.592  0.3522 -0.0222  0.3376
  142SAPE   O3215511   3.137   3.850  10.578  0.1610  0.4000  0.4074
  142SAPE   C3215512   2.919   3.849  10.480 -0.2252  0.1804 -0.2643
  142SAPE   H2X15513   2.819   3.896  10.492 -0.1417  0.0563  1.0876
  142SAPE   H2Y15514   2.890   3.743  10.468 -1.0484  0.2058  1.2230
  142SAPE   C2315515   3.283   3.526  10.469  0.4972 -0.9878 -0.0781
  142SAPE   H3R15516   3.386   3.531  10.428  0.4300  2.1316 -0.0847
  142SAPE   H3S15517   3.252   3.633  10.471 -0.7302 -1.2926 -1.1991
  142SAPE   C2415518   3.182   3.454  10.382 -0.2483  0.2436  0.8299
  142SAPE   H4R15519   3.086   3.431  10.432  0.7748 -2.4214  1.7602
  142SAPE   H4S15520   3.211   3.352  10.349 -2.7379  0.1951 -1.5921
  142SAPE   C2515521   3.152   3.545  10.260 -0.6081  0.6946  0.3653
  142SAPE   H5R15522   3.168   3.651  10.285  0.0794  0.6368  0.2129
  142SAPE   C2615523   3.117   3.516  10.134  0.1200  0.6984  0.2411
  142SAPE   H6R15524   3.071   3.595  10.073 -0.8746 -0.0019  0.0424
  142SAPE   C2715525   3.090   3.375  10.082 -0.1827  0.4305 -0.5802
  142SAPE   H7R15526   2.984   3.360  10.053  0.0773  2.4582 -2.9552
  142SAPE   H7S15527   3.116   3.299  10.158  0.8080  2.3437  1.0808
  142SAPE   C2815528   3.154   3.341   9.948 -0.0787 -0.5025  0.3844
  142SAPE   H8R15529   3.084   3.338   9.863  0.2673  1.5758 -0.0171
  142SAPE   C2915530   3.283   3.308   9.929 -1.0794 -0.3283 -0.6684
  142SAPE   H9R15531   3.314   3.267   9.832  1.8586 -1.6353  0.7090
  142SAPE  C21015532   3.395   3.293  10.030  0.9059 -0.5268  1.3255
  142SAPE  H10R15533   3.341   3.297  10.127 -0.5716  1.7957  0.5106
  142SAPE  H10S15534   3.460   3.383  10.023  0.0263  0.0272 -0.3886
  142SAPE  C21115535   3.468   3.160  10.004  0.3892  0.1611  0.2382
  142SAPE  H11R15536   3.469   3.086  10.086  1.1765  1.1109  1.1022
  142SAPE  C21215537   3.557   3.127   9.904 -0.3681 -0.7175  0.1409
  142SAPE  H12R15538   3.609   3.030   9.910  1.1503 -0.0926 -1.7160
  142SAPE  C21315539   3.597   3.221   9.792 -0.2429 -0.3985  1.1525
  142SAPE  H13R15540   3.532   3.311   9.791  0.7800  0.3789 -0.8037
  142SAPE  H13S15541   3.573   3.174   9.695  0.3475  2.3498 -0.4229
  142SAPE  C21415542   3.742   3.278   9.794 -0.6778 -0.0655  0.0199
  142SAPE  H14R15543   3.787   3.295   9.893  0.5296 -0.5052 -0.4346
  142SAPE  C21515544   3.815   3.306   9.683  0.3715  0.6111 -0.4370
  142SAPE  H15R15545   3.919   3.338   9.704  1.3355 -1.8233 -1.2424
  142SAPE  C21615546   3.783   3.282   9.538  0.1829 -0.7139  0.1692
  142SAPE  H16R15547   3.675   3.272   9.515  0.0021 -1.2105  1.1959
  142SAPE  H16S15548   3.832   3.184   9.518 -2.2074 -1.8483 -0.4516
  142SAPE  C21715549   3.861   3.391   9.438  0.1119  0.1245  0.8324
  142SAPE  H17R15550   3.970   3.402   9.455  0.4705 -3.2792  1.5728
  142SAPE  H17S15551   3.806   3.485   9.461  1.1213  0.4738  1.8795
  142SAPE  C21815552   3.843   3.347   9.287 -0.1775 -0.4078 -0.3533
  142SAPE  H18R15553   3.863   3.442   9.234  1.2095 -0.5755 -0.1606
  142SAPE  H18S15554   3.736   3.326   9.264 -0.5224 -0.3485  1.1298
  142SAPE  C21915555   3.944   3.240   9.227 -0.3622 -0.4942 -0.2906
  142SAPE  H19R15556   3.919   3.143   9.275  0.9063 -1.7976 -2.1132
  142SAPE  H19S15557   4.048   3.260   9.261 -0.7835  0.1809  0.6515
  142SAPE  C22015558   3.957   3.229   9.076  0.3781 -0.9201 -0.6146
  142SAPE  H20R15559   3.853   3.224   9.037 -0.6888  0.8838  1.7151
  142SAPE  H20S15560   4.007   3.131   9.061 -0.0453 -1.6724  2.2141
  142SAPE  H20T15561   4.003   3.321   9.034  1.4668 -2.6160 -3.4837
  142SAPE   C3315562   2.973   3.904  10.347  0.2597  0.1555  0.2860
  142SAPE   H3X15563   3.051   3.836  10.309 -0.7801 -0.7017 -0.3617
  142SAPE   H3Y15564   3.017   4.005  10.365  0.1335  0.1323  0.7422
  142SAPE   C3415565   2.861   3.913  10.236 -0.3428 -0.8071 -0.1454
  142SAPE   H4X15566   2.852   4.023  10.223 -0.5490 -0.9549 -1.3221
  142SAPE   H4Y15567   2.765   3.870  10.272 -0.9932  0.6708 -0.0522
  142SAPE   C3515568   2.896   3.836  10.111  0.6974 -0.2418 -0.4066
  142SAPE   H5X15569   2.892   3.728  10.137  2.7036 -0.1835  0.2993
  142SAPE   H5Y15570   2.999   3.864  10.079 -0.0028  2.0806 -0.8236
  142SAPE   C3615571   2.791   3.862  10.005 -0.0885 -0.5876 -0.1787
  142SAPE   H6X15572   2.692   3.854  10.055  1.8195 -2.2784  3.7919
  142SAPE   H6Y15573   2.791   3.785   9.925 -0.6182  0.8964 -1.6578
  142SAPE   C3715574   2.808   3.992   9.934  0.3708 -0.4795  0.1641
  142SAPE   H7X15575   2.911   4.001   9.894  0.7327 -1.0358  0.9505
  142SAPE   H7Y15576   2.787   4.073  10.007  1.7536  2.9787 -2.9874
  142SAPE   C3815577   2.716   4.013   9.812 -0.1992 -0.2727 -0.3590
  142SAPE   H8X15578   2.615   3.998   9.856 -0.4462 -0.0509 -0.8492
  142SAPE   H8Y15579   2.737   3.934   9.737 -2.4661  0.1087 -1.4732
  142SAPE   C3915580   2.739   4.143   9.736 -0.3201 -0.4144  0.1258
  142SAPE   H9X15581   2.848   4.139   9.717 -0.5492 -0.5381 -1.2443
  142SAPE   H9Y15582   2.715   4.237   9.790 -0.1219  0.1830 -0.8159
  142SAPE  C31015583   2.677   4.161   9.597  0.3431  0.3976 -0.1569
  142SAPE  H10X15584   2.713   4.255   9.551  0.4834  0.7870  0.7318
  142SAPE  H10Y15585   2.568   4.173   9.615 -0.1698 -2.6694 -0.5734
  142SAPE  C31115586   2.709   4.049   9.488  0.3751  0.0312 -0.1077
  142SAPE  H11X15587   2.650   4.073   9.397  1.3578 -2.2318 -1.4116
  142SAPE  H11Y15588   2.687   3.946   9.522 -0.1376 -0.6000 -2.2558
  142SAPE  C31215589   2.862   4.053   9.445  0.1652  0.1433 -0.5832
  142SAPE  H12X15590   2.927   4.034   9.533 -1.1015 -1.0693  0.1474
  142SAPE  H12Y15591   2.885   4.151   9.399  1.6039  0.0786 -0.0372
  142SAPE  C31315592   2.904   3.955   9.336 -0.2102 -0.3034  0.4757
  142SAPE  H13X15593   2.818   3.946   9.265 -0.2062  0.8771  0.2966
  142SAPE  H13Y15594   2.919   3.853   9.376 -2.2812 -1.1793 -0.7838
  142SAPE  C31415595   3.031   3.997   9.262 -0.0610 -0.5849  0.1218
  142SAPE  H14X15596   3.120   3.986   9.328  0.9942  2.1614 -0.6899
  142SAPE  H14Y15597   3.017   4.103   9.233 -1.3104 -0.6057  0.6221
  142SAPE  C31515598   3.045   3.904   9.140  0.1559 -0.5161 -0.0627
  142SAPE  H15X15599   2.960   3.905   9.070 -1.2524 -0.0368  1.5816
  142SAPE  H15Y15600   3.060   3.796   9.162 -2.4099 -0.7988  0.6229
  142SAPE  C31615601   3.162   3.945   9.054  0.4960  0.3325 -0.0457
  142SAPE  H16X15602   3.253   3.958   9.116 -0.7359  3.2493  1.3552
  142SAPE  H16Y15603   3.142   4.047   9.013  0.8355  0.2310 -0.4613
  142SAPE  C31715604   3.184   3.834   8.947 -0.5031  1.0185  0.0665
  142SAPE  H17X15605   3.088   3.825   8.891 -1.8341 -2.7486  2.5595
  142SAPE  H17Y15606   3.201   3.736   8.997  1.1029  1.2264 -0.0235
  142SAPE  C31815607   3.295   3.859   8.847 -0.2690  0.1940 -0.4440
  142SAPE  H18X15608   3.317   3.757   8.809 -0.9699 -0.5933  1.1632
  142SAPE  H18Y15609   3.390   3.883   8.900 -0.6338 -1.1581  0.8858
  142SAPE  H18Z15610   3.276   3.945   8.779  3.6001  0.8599 -0.8917
  143SAPE     N15611   4.741   2.305  11.422 -0.2188 -0.6564 -0.0024
  143SAPE   HN115612   4.802   2.375  11.376 -0.3830 -0.3441  0.2550
  143SAPE   HN215613   4.761   2.309  11.524 -1.3248 -0.4071  0.2123
  143SAPE   HN315614   4.778   2.215  11.384  4.4996  1.8761 -2.2462
  143SAPE   C1215615   4.599   2.343  11.386 -0.0356 -0.4230  0.7129
  143SAPE  H12A15616   4.583   2.452  11.398 -0.2615 -0.2682 -0.7956
  143SAPE  H12B15617   4.528   2.280  11.444 -0.7006 -0.3961 -0.0540
  143SAPE   C1115618   4.563   2.305  11.241 -0.1005  0.7614 -0.0350
  143SAPE  H11A15619   4.457   2.326  11.213 -0.1301 -1.5809 -2.0787
  143SAPE  H11B15620   4.570   2.194  11.243 -0.5783  0.6592 -1.9792
  143SAPE     P15621   4.616   2.525  11.116 -0.3267  0.2833  0.0882
  143SAPE   O1315622   4.513   2.582  11.205 -0.1564  0.2290  0.5634
  143SAPE   O1415623   4.748   2.588  11.125  0.5353 -0.2352  0.5889
  143SAPE   O1215624   4.641   2.372  11.143 -0.8958 -0.0101 -0.3577
  143SAPE   O1115625   4.566   2.532  10.968 -0.1799 -0.5827 -0.1587
  143SAPE    C115626   4.550   2.661  10.903  0.4734 -0.2001  0.0555
  143SAPE    HA15627   4.593   2.747  10.959 -0.7836 -0.6110  1.7364
  143SAPE    HB15628   4.593   2.659  10.800 -0.0166  0.0173 -0.1576
  143SAPE    C215629   4.400   2.696  10.883  0.2167  0.2282  0.3567
  143SAPE    HS15630   4.343   2.673  10.975 -2.6533 -0.2234 -1.4126
  143SAPE   O2115631   4.370   2.603  10.779  0.3034  0.1847 -0.5946
  143SAPE   C2115632   4.243   2.572  10.767 -0.3624 -0.2234  0.4610
  143SAPE   O2215633   4.158   2.594  10.849 -0.1127 -0.0463 -0.0244
  143SAPE   C2215634   4.226   2.502  10.637  0.0005  0.0820 -0.3221
  143SAPE   H2R15635   4.278   2.551  10.551 -0.2888 -1.0097 -1.1507
  143SAPE   H2S15636   4.276   2.405  10.655  0.8774  0.6014  0.1348
  143SAPE    C315637   4.378   2.843  10.842 -0.2605 -0.5411 -0.1955
  143SAPE    HX15638   4.401   2.905  10.932  0.6562 -1.9233  0.5598
  143SAPE    HY15639   4.275   2.869  10.809 -0.4668 -1.1620 -0.0578
  143SAPE   O3115640   4.463   2.882  10.735  0.0381 -0.3743 -0.8487
  143SAPE   C3115641   4.419   2.869  10.613  0.6168 -0.2691 -0.0648
  143SAPE   O3215642   4.306   2.829  10.582 -0.5096 -0.2367  0.1676
  143SAPE   C3215643   4.532   2.903  10.514  0.5723 -0.2499 -0.6968
  143SAPE   H2X15644   4.609   2.825  10.532  0.0255 -0.6316  0.0213
  143SAPE   H2Y15645   4.589   2.995  10.539 -1.1444  0.4322  0.9985
  143SAPE   C2315646   4.075   2.469  10.609  0.3136  0.1124 -0.1731
  143SAPE   H3R15647   4.024   2.566  10.626  2.7300  1.5394 -0.5789
  143SAPE   H3S15648   4.022   2.401  10.679 -0.8517  0.1093 -1.0458
  143SAPE   C2415649   4.064   2.421  10.467 -0.0604  0.5123 -0.4644
  143SAPE   H4R15650   4.091   2.503  10.397 -1.8870 -1.3180 -3.5501
  143SAPE   H4S15651   3.959   2.397  10.438 -0.2440  1.8443 -0.9855
  143SAPE   C2515652   4.158   2.302  10.432  0.0459 -0.4964 -0.0865
  143SAPE   H5R15653   4.152   2.218  10.502  0.5180 -0.8089 -0.4131
  143SAPE   C2615654   4.255   2.300  10.342 -0.2322  0.0503  0.3990
  143SAPE   H6R15655   4.309   2.208  10.316  1.2745  1.2630 -0.9570
  143SAPE   C2715656   4.285   2.406  10.247  0.2519 -0.1051 -0.4978
  143SAPE   H7R15657   4.392   2.407  10.217  1.0731  2.0023  2.0641
  143SAPE   H7S15658   4.266   2.501  10.302 -1.0178 -1.5991  1.8332
  143SAPE   C2815659   4.214   2.401  10.110 -0.1446 -1.3672  0.7005
  143SAPE   H8R15660   4.105   2.414  10.114 -0.0021  0.1976  0.1329
  143SAPE   C2915661   4.281   2.399   9.992 -0.2300 -1.2651  0.3086
  143SAPE   H9R15662   4.235   2.379   9.895  0.3215  0.4400 -0.3411
  143SAPE  C21015663   4.432   2.400   9.964  0.1956  0.2221  0.4446
  143SAPE  H10R15664   4.467   2.301   9.927 -0.9228 -0.2820  0.7061
  143SAPE  H10S15665   4.494   2.399  10.056  0.6458 -0.4832  0.1503
  143SAPE  C21115666   4.494   2.497   9.868 -0.3593 -0.0118  0.7295
  143SAPE  H11R15667   4.511   2.596   9.913 -0.2574  0.2467  0.1366
  143SAPE  C21215668   4.522   2.474   9.740  0.4295  0.3690  0.4043
  143SAPE  H12R15669   4.561   2.558   9.680 -1.9717  0.4833 -1.1123
  143SAPE  C21315670   4.513   2.350   9.656  0.6533  0.7067 -0.3815
  143SAPE  H13R15671   4.495   2.257   9.715  2.9623  0.2305 -0.3285
  143SAPE  H13S15672   4.617   2.334   9.622  1.2050  3.0916 -0.0003
  143SAPE  C21415673   4.410   2.364   9.547 -0.2699 -0.1361 -0.2073
  143SAPE  H14R15674   4.333   2.436   9.578  1.4186  1.2950  0.8042
  143SAPE  C21515675   4.406   2.306   9.425  0.2155 -0.6369 -0.3319
  143SAPE  H15R15676   4.322   2.332   9.359  1.2188  1.4785 -0.8407
  143SAPE  C21615677   4.502   2.210   9.361  0.2660  0.1340  0.4895
  143SAPE  H16R15678   4.451   2.111   9.357  0.4936  0.0364 -2.7906
  143SAPE  H16S15679   4.593   2.206   9.425 -0.3405 -0.1677  1.3537
  143SAPE  C21715680   4.526   2.241   9.205  0.0707  0.1901  0.0433
  143SAPE  H17R15681   4.424   2.229   9.163 -0.9614 -3.0258  3.0454
  143SAPE  H17S15682   4.599   2.165   9.170 -0.2942 -0.7867  1.3311
  143SAPE  C21815683   4.589   2.378   9.182 -0.5414 -0.4073  0.0738
  143SAPE  H18R15684   4.691   2.388   9.225 -0.3371 -0.1661 -0.4531
  143SAPE  H18S15685   4.529   2.453   9.238  1.5535  2.4297 -1.2189
  143SAPE  C21915686   4.602   2.418   9.041  0.5872 -0.0520  0.6014
  143SAPE  H19R15687   4.508   2.392   8.987  0.3186  0.8488  0.6193
  143SAPE  H19S15688   4.685   2.363   8.992  0.3702  0.3157 -0.1981
  143SAPE  C22015689   4.635   2.568   9.016 -0.7618  0.1463 -0.3368
  143SAPE  H20R15690   4.734   2.583   9.064 -0.0910 -3.2236 -0.4102
  143SAPE  H20S15691   4.559   2.627   9.071  0.4455  0.1251  1.4283
  143SAPE  H20T15692   4.639   2.591   8.907  2.4177  2.0951  0.0622
  143SAPE   C3315693   4.497   2.903  10.361  0.4259 -0.1299 -0.0144
  143SAPE   H3X15694   4.445   2.997  10.332  0.3552 -0.3014 -0.4492
  143SAPE   H3Y15695   4.429   2.819  10.335 -0.7831  0.4718  1.1113
  143SAPE   C3415696   4.621   2.881  10.278 -0.2235 -0.2009  0.1173
  143SAPE   H4X15697   4.661   2.784  10.313 -0.6218 -0.4550 -0.1328
  143SAPE   H4Y15698   4.698   2.956  10.308  0.5024 -1.6020  1.9352
  143SAPE   C3515699   4.603   2.870  10.128 -0.0038  0.0224  0.3135
  143SAPE   H5X15700   4.536   2.955  10.102 -0.4001 -0.6222 -0.8203
  143SAPE   H5Y15701   4.571   2.770  10.091 -0.4074  0.4402 -0.4990
  143SAPE   C3615702   4.735   2.896  10.055  0.4802 -0.3767 -0.8425
  143SAPE   H6X15703   4.813   2.842  10.114  1.3847  1.6416 -0.0991
  143SAPE   H6Y15704   4.765   3.003  10.059 -0.0363 -0.2638  0.5446
  143SAPE   C3715705   4.735   2.852   9.911 -0.0317 -0.5168 -0.0592
  143SAPE   H7X15706   4.668   2.768   9.881  0.9040 -0.9696 -0.9573
  143SAPE   H7Y15707   4.837   2.812   9.890 -0.5470 -1.3282 -1.1307
  143SAPE   C3815708   4.705   2.966   9.811  0.1161  0.2659  0.6048
  143SAPE   H8X15709   4.780   3.047   9.797 -0.6647  0.6698 -1.7728
  143SAPE   H8Y15710   4.604   3.003   9.837  0.0724  0.1016  0.6696
  143SAPE   C3915711   4.696   2.911   9.666 -0.2138 -0.1241  1.1618
  143SAPE   H9X15712   4.614   2.836   9.671 -0.0519 -0.4114 -0.1464
  143SAPE   H9Y15713   4.783   2.851   9.631 -1.2318 -0.7674 -0.4177
  143SAPE  C31015714   4.666   3.012   9.550 -0.4284  0.4319  0.2070
  143SAPE  H10X15715   4.729   3.102   9.563 -1.0187  0.9311 -0.3776
  143SAPE  H10Y15716   4.557   3.034   9.549 -0.6958 -0.7208 -1.8702
  143SAPE  C31115717   4.687   2.946   9.418 -0.1257  0.4407 -0.0080
  143SAPE  H11X15718   4.601   2.879   9.395  0.2848  0.6350 -2.3259
  143SAPE  H11Y15719   4.779   2.885   9.428 -0.2845  0.4298  1.7694
  143SAPE  C31215720   4.710   3.046   9.301  0.0189  1.2462  0.2194
  143SAPE  H12X15721   4.785   3.121   9.333  0.1650 -0.3627  4.1499
  143SAPE  H12Y15722   4.614   3.100   9.289  0.1636  1.9226  1.8617
  143SAPE  C31315723   4.760   2.972   9.175  0.3417  0.0233  0.0035
  143SAPE  H13X15724   4.678   2.919   9.123  2.0075 -0.0827 -2.7063
  143SAPE  H13Y15725   4.832   2.892   9.204  2.1727  1.1538 -1.1941
  143SAPE  C31415726   4.831   3.067   9.081  0.0885  0.1322 -0.5426
  143SAPE  H14X15727   4.940   3.058   9.102  0.2202  2.1519 -0.1808
  143SAPE  H14Y15728   4.806   3.172   9.105  0.0385 -0.1898  0.8981
  143SAPE  C31515729   4.830   3.037   8.927  0.1406  0.1994 -0.3492
  143SAPE  H15X15730   4.897   3.114   8.882  0.9033 -0.3795 -0.2189
  143SAPE  H15Y15731   4.726   3.042   8.889  0.3402  1.0111 -0.8101
  143SAPE  C31615732   4.870   2.897   8.890  0.1601 -0.5123  1.0816
  143SAPE  H16X15733   4.874   2.876   8.781  0.4870  1.9921  0.5592
  143SAPE  H16Y15734   4.790   2.832   8.933 -1.8667  0.9585 -0.3016
  143SAPE  C31715735   5.001   2.841   8.941 -0.0366 -0.1203 -0.3693
  143SAPE  H17X15736   5.028   2.874   9.044  0.0668 -0.8062 -0.1722
  143SAPE  H17Y15737   5.090   2.870   8.882  0.1792  2.7772  1.2009
  143SAPE  C31815738   5.004   2.686   8.947 -0.2532 -0.0597 -0.0550
  143SAPE  H18X15739   5.107   2.651   8.971 -0.3673 -1.1980 -1.1365
  143SAPE  H18Y15740   4.982   2.630   8.854 -3.3488 -1.2781  1.2719
  143SAPE  H18Z15741   4.940   2.654   9.032 -0.6388  0.8792  0.0190
  144SAPE     N15742   0.412   6.566  11.385  0.0400  0.0558  0.3729
  144SAPE   HN115743   0.387   6.645  11.447 -3.3507  1.0402 -1.9694
  144SAPE   HN215744   0.511   6.546  11.412  1.0209  1.5435 -1.7693
  144SAPE   HN315745   0.430   6.603  11.289 -1.1014 -0.5918 -0.1010
  144SAPE   C1215746   0.327   6.445  11.388  0.3340  0.9564 -0.2859
  144SAPE  H12A15747   0.369   6.383  11.470  0.0943  1.5139  0.2618
  144SAPE  H12B15748   0.345   6.393  11.291 -0.7525 -1.3827  0.7006
  144SAPE   C1115749   0.175   6.475  11.398 -0.5326  0.1074 -0.9903
  144SAPE  H11A15750   0.169   6.542  11.486 -0.3769 -0.8700 -0.2194
  144SAPE  H11B15751   0.121   6.380  11.416 -0.6035  0.2895 -0.2254
  144SAPE     P15752   0.088   6.476  11.159  0.0365 -0.1189 -0.0928
  144SAPE   O1315753   0.067   6.336  11.186 -0.0684 -0.4270 -0.1377
  144SAPE   O1415754  -0.031   6.551  11.113  0.0087 -0.4922 -0.1873
  144SAPE   O1215755   0.138   6.551  11.287  0.0583  0.1200 -0.4119
  144SAPE   O1115756   0.198   6.491  11.044 -0.6193 -0.1190  0.2639
  144SAPE    C115757   0.236   6.626  11.006 -0.1611 -1.0469 -0.0258
  144SAPE    HA15758   0.150   6.696  11.000  0.2133 -0.6358 -0.8194
  144SAPE    HB15759   0.294   6.673  11.088  2.8668 -0.4347 -2.3090
  144SAPE    C215760   0.341   6.628  10.892  0.2943 -0.3546 -0.0628
  144SAPE    HS15761   0.389   6.727  10.883  2.9535 -1.6555 -1.5535
  144SAPE   O2115762   0.278   6.593  10.764 -0.2192 -0.0617 -0.1052
  144SAPE   C2115763   0.213   6.694  10.704  0.8060 -0.0462  0.3093
  144SAPE   O2215764   0.200   6.808  10.745 -0.3319 -0.1522  0.4159
  144SAPE   C2215765   0.142   6.646  10.565 -0.7063 -0.3294 -0.1475
  144SAPE   H2R15766   0.205   6.567  10.519 -0.8494 -0.0292 -0.8692
  144SAPE   H2S15767   0.044   6.604  10.598 -2.1023  2.9226  0.1743
  144SAPE    C315768   0.459   6.522  10.925 -0.4300  0.5003 -0.3255
  144SAPE    HX15769   0.419   6.427  10.967 -1.1433 -0.1252 -2.3006
  144SAPE    HY15770   0.516   6.573  11.006 -0.6359  1.5284 -0.8123
  144SAPE   O3115771   0.557   6.502  10.818  0.9676 -0.4878  0.1535
  144SAPE   C3115772   0.514   6.419  10.715 -0.7415  0.2392 -0.2712
  144SAPE   O3215773   0.425   6.337  10.726 -0.1924 -0.0312  0.2991
  144SAPE   C3215774   0.589   6.454  10.591  0.5907 -0.5093  0.1118
  144SAPE   H2X15775   0.682   6.401  10.562  1.3643  0.8411  0.0375
  144SAPE   H2Y15776   0.630   6.558  10.597  0.6377 -0.5527  0.6490
  144SAPE   C2315777   0.118   6.761  10.473 -0.0361 -1.0959 -0.0219
  144SAPE   H3R15778   0.075   6.843  10.535 -2.6861 -3.2702  1.2553
  144SAPE   H3S15779   0.061   6.740  10.380  2.2702 -0.0602 -1.7500
  144SAPE   C2415780   0.252   6.814  10.416  0.0006 -0.5167 -0.2990
  144SAPE   H4R15781   0.301   6.735  10.355 -2.7055 -1.2933 -1.5906
  144SAPE   H4S15782   0.319   6.838  10.502 -1.4571 -1.0505  1.0392
  144SAPE   C2515783   0.224   6.933  10.336  0.4571 -0.2407  0.4835
  144SAPE   H5R15784   0.201   7.025  10.392  0.7082  1.1972 -1.6950
  144SAPE   C2615785   0.214   6.947  10.204  0.6542  0.6472  0.3799
  144SAPE   H6R15786   0.192   7.043  10.155  0.1275  0.5974  0.5069
  144SAPE   C2715787   0.221   6.837  10.100 -0.1008  0.3415  0.4965
  144SAPE   H7R15788   0.142   6.760  10.115 -1.4443  1.2957 -1.3665
  144SAPE   H7S15789   0.318   6.783  10.105 -0.0076  0.1612 -2.0515
  144SAPE   C2815790   0.206   6.885   9.962 -0.2909 -0.6456  0.8528
  144SAPE   H8R15791   0.131   6.964   9.945  1.0285  0.5435  0.3442
  144SAPE   C2915792   0.286   6.862   9.853 -0.0719  0.0436 -0.2565
  144SAPE   H9R15793   0.255   6.902   9.755 -0.5848 -1.2369 -0.6335
  144SAPE  C21015794   0.401   6.762   9.848 -0.2121  0.7829 -0.2689
  144SAPE  H10R15795   0.375   6.707   9.755  0.8215 -0.8931  0.3738
  144SAPE  H10S15796   0.385   6.676   9.916  2.0447 -0.0030 -0.6432
  144SAPE  C21115797   0.539   6.823   9.853  0.1513 -0.2891  0.3829
  144SAPE  H11R15798   0.570   6.864   9.950  1.3445  0.4530 -0.2996
  144SAPE  C21215799   0.624   6.833   9.751 -0.6224  0.0536  0.7815
  144SAPE  H12R15800   0.718   6.889   9.764 -1.3067  1.2786  0.5921
  144SAPE  C21315801   0.603   6.787   9.603  0.4700 -0.4965 -0.0922
  144SAPE  H13R15802   0.674   6.851   9.546  0.1817  0.7176  0.8668
  144SAPE  H13S15803   0.501   6.813   9.570  0.4235  3.3061  2.3447
  144SAPE  C21415804   0.640   6.648   9.586  0.1244 -0.2999 -0.2521
  144SAPE  H14R15805   0.716   6.624   9.662 -1.2194 -0.9340  0.9314
  144SAPE  C21515806   0.583   6.561   9.505 -0.2813 -0.8185  0.2075
  144SAPE  H15R15807   0.597   6.453   9.519 -2.5922 -1.3806 -1.2414
  144SAPE  C21615808   0.477   6.605   9.401  0.2173 -0.4565  0.4891
  144SAPE  H16R15809   0.488   6.710   9.367  0.5306 -0.1414  1.5212
  144SAPE  H16S15810   0.373   6.585   9.433  0.5235 -1.6438  0.8056
  144SAPE  C21715811   0.511   6.509   9.278 -0.4248  0.2864 -0.2638
  144SAPE  H17R15812   0.430   6.515   9.202 -0.6889 -0.2694 -0.0322
  144SAPE  H17S15813   0.527   6.405   9.315 -0.3114  1.1219  2.2144
  144SAPE  C21815814   0.642   6.547   9.204 -0.0365  0.2720  0.2237
  144SAPE  H18R15815   0.725   6.481   9.239  0.8850  2.6546  2.9594
  144SAPE  H18S15816   0.681   6.644   9.241  3.0028 -0.1549 -1.5468
  144SAPE  C21915817   0.625   6.549   9.047 -0.2308  0.0609 -0.3291
  144SAPE  H19R15818   0.538   6.612   9.021  1.2418  0.8302 -3.9386
  144SAPE  H19S15819   0.611   6.444   9.012  1.0471 -0.3931  0.4746
  144SAPE  C22015820   0.748   6.598   8.970 -0.2964  0.7170 -0.4018
  144SAPE  H20R15821   0.827   6.521   8.979 -1.1438  0.0427  1.8513
  144SAPE  H20S15822   0.779   6.689   9.026  0.2517 -1.5528  3.2757
  144SAPE  H20T15823   0.729   6.634   8.866 -0.4800  0.9444 -0.2907
  144SAPE   C3315824   0.510   6.434  10.458  0.1587  1.0138 -0.4677
  144SAPE   H3X15825   0.414   6.490  10.465  0.2136  0.9002  2.1061
  144SAPE   H3Y15826   0.490   6.327  10.435  1.0453  0.5318  0.9426
  144SAPE   C3415827   0.588   6.472  10.331 -0.0462 -0.0329  0.3331
  144SAPE   H4X15828   0.554   6.416  10.241 -1.1040 -0.9671  1.2758
  144SAPE   H4Y15829   0.694   6.442  10.343 -0.5092 -1.4755  1.1532
  144SAPE   C3515830   0.573   6.626  10.313  0.0978  0.3023 -0.7700
  144SAPE   H5X15831   0.626   6.684  10.392 -0.8128  2.1183 -1.4428
  144SAPE   H5Y15832   0.468   6.659  10.319  0.8296  2.5403  0.9644
  144SAPE   C3615833   0.637   6.679  10.181  0.1420  0.6909 -0.9575
  144SAPE   H6X15834   0.612   6.787  10.177 -0.8441  0.6590  1.8209
  144SAPE   H6Y15835   0.588   6.629  10.095  0.7421  1.0786 -1.5276
  144SAPE   C3715836   0.794   6.661  10.173  0.4540  1.1595 -0.2473
  144SAPE   H7X15837   0.810   6.552  10.184 -1.6533  0.7583 -0.6657
  144SAPE   H7Y15838   0.835   6.721  10.257  0.2565  1.0526 -0.0714
  144SAPE   C3815839   0.853   6.702  10.031 -0.4765  0.4877 -0.0924
  144SAPE   H8X15840   0.845   6.812  10.026 -2.0689  0.3523 -2.5769
  144SAPE   H8Y15841   0.797   6.658   9.946  1.8830  0.1980 -1.5732
  144SAPE   C3915842   1.004   6.664  10.008  0.6033 -0.4685 -0.6682
  144SAPE   H9X15843   1.068   6.717  10.082 -0.9807  1.6166 -0.7122
  144SAPE   H9Y15844   1.026   6.718   9.913 -3.2965  1.0192 -0.8752
  144SAPE  C31015845   1.033   6.512   9.991  0.4770 -0.6737 -0.8347
  144SAPE  H10X15846   0.980   6.461  10.074 -2.6887  0.1761 -2.1499
  144SAPE  H10Y15847   1.143   6.500  10.002  0.4386  0.7628  2.3959
  144SAPE  C31115848   0.997   6.439   9.860 -1.0660  0.5938 -0.0639
  144SAPE  H11X15849   0.891   6.455   9.831 -0.9977  0.0563 -0.6163
  144SAPE  H11Y15850   1.000   6.331   9.886  1.6701  0.2731 -1.3636
  144SAPE  C31215851   1.082   6.476   9.742 -0.0088 -0.3474  0.6838
  144SAPE  H12X15852   1.192   6.476   9.762  0.4024 -2.3666 -1.1433
  144SAPE  H12Y15853   1.053   6.578   9.711 -0.2666 -1.0215 -1.4541
  144SAPE  C31315854   1.058   6.373   9.624 -0.5318 -0.3240 -0.1882
  144SAPE  H13X15855   0.948   6.367   9.609 -0.7431 -0.9569  1.4010
  144SAPE  H13Y15856   1.083   6.270   9.658 -2.7228 -0.4818  1.1015
  144SAPE  C31415857   1.120   6.406   9.487  0.0693  0.2246 -0.2624
  144SAPE  H14X15858   1.086   6.323   9.421 -0.1444  0.9413 -1.0731
  144SAPE  H14Y15859   1.230   6.398   9.484  0.1333  0.8446  0.3261
  144SAPE  C31515860   1.069   6.538   9.436 -0.1979  0.6066 -0.2630
  144SAPE  H15X15861   1.104   6.618   9.504  1.5776 -0.6322  0.3437
  144SAPE  H15Y15862   0.958   6.532   9.433 -0.1096 -1.3043 -1.6293
  144SAPE  C31615863   1.127   6.552   9.297 -0.4838  0.2753 -0.0087
  144SAPE  H16X15864   1.097   6.457   9.247  2.8741 -0.5794 -0.6520
  144SAPE  H16Y15865   1.238   6.555   9.307 -0.4173  1.2985 -0.8858
  144SAPE  C31715866   1.082   6.674   9.224  0.2819 -0.5227  0.1209
  144SAPE  H17X15867   1.128   6.764   9.270 -3.3440  1.3854  0.3121
  144SAPE  H17Y15868   0.975   6.700   9.232  0.5386 -0.0247  2.8364
  144SAPE  C31815869   1.136   6.672   9.083 -0.1975  0.3569 -0.7233
  144SAPE  H18X15870   1.245   6.653   9.098 -0.3538 -0.7226 -0.9208
  144SAPE  H18Y15871   1.116   6.768   9.031 -2.4586 -0.0105 -0.6075
  144SAPE  H18Z15872   1.083   6.588   9.036 -0.5436 -0.5995  1.2574
  145SAPE     N15873   4.260   1.429  11.334  0.4119  0.6350 -0.2724
  145SAPE   HN115874   4.227   1.465  11.242 -1.5058  1.9083  0.8578
  145SAPE   HN215875   4.336   1.491  11.370  0.6859  0.3138 -0.2901
  145SAPE   HN315876   4.296   1.332  11.319 -0.0426  0.7080 -2.0609
  145SAPE   C1215877   4.152   1.419  11.439 -0.2123 -0.0108 -0.1643
  145SAPE  H12A15878   4.206   1.402  11.535  1.6377  1.3020 -0.9439
  145SAPE  H12B15879   4.091   1.328  11.420 -0.9699  0.5987 -0.7101
  145SAPE   C1115880   4.055   1.541  11.444 -0.4149 -0.0679  0.3801
  145SAPE  H11A15881   4.126   1.623  11.470 -0.9450  0.5502 -0.0845
  145SAPE  H11B15882   3.985   1.532  11.529  0.3410  1.5940  1.2333
  145SAPE     P15883   3.870   1.501  11.262 -0.0794  0.1759  0.2955
  145SAPE   O1315884   3.894   1.358  11.237 -0.1812 -0.1029  0.0485
  145SAPE   O1415885   3.759   1.534  11.355  0.2528 -0.0499  0.0117
  145SAPE   O1215886   4.005   1.559  11.310  0.5332  0.3320 -0.7360
  145SAPE   O1115887   3.850   1.575  11.123 -0.5379  1.0630  0.0572
  145SAPE    C115888   3.716   1.608  11.086 -0.2216  0.9010  0.0904
  145SAPE    HA15889   3.648   1.520  11.095  1.2925 -0.1460  1.9621
  145SAPE    HB15890   3.675   1.686  11.153  0.2041 -0.1841  1.6514
  145SAPE    C215891   3.716   1.670  10.943  0.1668  0.7087  0.5232
  145SAPE    HS15892   3.612   1.703  10.923  0.1647 -0.1188 -1.0356
  145SAPE   O2115893   3.761   1.574  10.849 -0.4159  0.3885 -0.1417
  145SAPE   C2115894   3.668   1.491  10.799  0.2817  0.2159 -0.1617
  145SAPE   O2215895   3.552   1.488  10.841  0.4940  0.6614  0.5239
  145SAPE   C2215896   3.712   1.416  10.668 -0.2458 -0.1868 -0.3605
  145SAPE   H2R15897   3.736   1.307  10.671  0.2066 -0.1358 -1.5899
  145SAPE   H2S15898   3.620   1.409  10.606 -0.7795  0.9992  0.2626
  145SAPE    C315899   3.811   1.794  10.940 -0.5219  0.3025  0.5557
  145SAPE    HX15900   3.912   1.755  10.965 -0.3523  1.2731  1.4347
  145SAPE    HY15901   3.778   1.868  11.015 -0.8073  0.7759 -0.0239
  145SAPE   O3115902   3.809   1.861  10.814 -0.4010  0.1835  0.3109
  145SAPE   C3115903   3.907   1.820  10.725  0.0181  0.1972  0.0934
  145SAPE   O3215904   3.991   1.737  10.750  0.3711 -0.5503  0.7490
  145SAPE   C3215905   3.894   1.913  10.606  0.1265 -0.2499 -0.0717
  145SAPE   H2X15906   3.894   2.021  10.633 -2.7831  0.6449 -3.0244
  145SAPE   H2Y15907   3.793   1.898  10.563 -0.4357  1.2324  0.6609
  145SAPE   C2315908   3.817   1.494  10.588  0.5091  0.1000 -0.2493
  145SAPE   H3R15909   3.916   1.483  10.636 -0.9300 -0.2756  2.8564
  145SAPE   H3S15910   3.788   1.601  10.587 -0.7106 -0.2105  0.1965
  145SAPE   C2415911   3.836   1.444  10.447  0.0284 -0.2556 -0.0882
  145SAPE   H4R15912   3.853   1.334  10.455 -0.5432 -0.2242  2.5314
  145SAPE   H4S15913   3.930   1.491  10.413  1.3064 -1.1634  2.0040
  145SAPE   C2515914   3.721   1.473  10.349 -0.3761 -0.0296 -0.7117
  145SAPE   H5R15915   3.645   1.544  10.385  0.0559  0.1310 -0.0946
  145SAPE   C2615916   3.690   1.409  10.240 -0.6123 -0.0958  0.1793
  145SAPE   H6R15917   3.606   1.454  10.185 -0.7365 -1.1093 -0.4939
  145SAPE   C2715918   3.757   1.285  10.180 -1.0460  0.4639  0.4491
  145SAPE   H7R15919   3.693   1.195  10.168  1.9887 -1.9445  1.0109
  145SAPE   H7S15920   3.848   1.255  10.236 -1.0563  0.0272  0.2336
  145SAPE   C2815921   3.801   1.306  10.035 -0.1860  0.8876  0.6022
  145SAPE   H8R15922   3.821   1.410  10.005 -0.8346  0.7082 -0.4882
  145SAPE   C2915923   3.853   1.213   9.947 -0.1701 -0.0342 -0.6974
  145SAPE   H9R15924   3.893   1.247   9.850  1.4290  1.5086  0.4420
  145SAPE  C21015925   3.877   1.063   9.967 -0.3405 -0.4580 -0.1665
  145SAPE  H10R15926   3.933   1.033   9.876  0.7305  1.3324 -0.1273
  145SAPE  H10S15927   3.780   1.010   9.950 -1.7759  1.1178  2.3552
  145SAPE  C21115928   3.945   1.000  10.087  0.1559  0.1742 -0.1358
  145SAPE  H11R15929   3.873   0.935  10.138 -2.6516  2.1399 -1.3325
  145SAPE  C21215930   4.076   1.013  10.117  0.0216  0.1599 -0.0248
  145SAPE  H12R15931   4.125   0.968  10.204  0.9707  2.4020  0.6634
  145SAPE  C21315932   4.176   1.102  10.043 -0.0376  0.2588  0.3789
  145SAPE  H13R15933   4.135   1.198  10.005  0.7202 -0.0246 -1.2132
  145SAPE  H13S15934   4.203   1.058   9.945  0.3824  2.0238 -0.3317
  145SAPE  C21415935   4.306   1.136  10.119  0.3187 -0.1964 -0.0511
  145SAPE  H14R15936   4.305   1.145  10.229  1.6414 -1.1989  0.0685
  145SAPE  C21515937   4.424   1.179  10.067 -0.3192 -0.0588  0.5585
  145SAPE  H15R15938   4.511   1.183  10.134 -0.9402  1.2573  1.3184
  145SAPE  C21615939   4.460   1.204   9.924 -0.2284 -0.2597 -0.3216
  145SAPE  H16R15940   4.389   1.152   9.856 -1.0079  0.7849 -0.3350
  145SAPE  H16S15941   4.565   1.170   9.910 -0.3115 -0.4084 -0.5880
  145SAPE  C21715942   4.456   1.356   9.896 -0.1490  0.3923  0.1257
  145SAPE  H17R15943   4.352   1.386   9.921 -0.1720  0.2216  0.2451
  145SAPE  H17S15944   4.471   1.367   9.787 -0.0353 -2.6968 -0.2552
  145SAPE  C21815945   4.565   1.432   9.967 -0.0931  0.4362  0.1518
  145SAPE  H18R15946   4.663   1.380   9.961 -1.2067 -1.7585  0.0154
  145SAPE  H18S15947   4.558   1.444  10.077  1.1934  1.5388  0.1361
  145SAPE  C21915948   4.584   1.574   9.916 -0.1875  0.5699  0.8558
  145SAPE  H19R15949   4.489   1.631   9.906 -2.2118 -2.9392 -2.7918
  145SAPE  H19S15950   4.621   1.569   9.812  0.0130  1.2810  0.8861
  145SAPE  C22015951   4.676   1.657  10.007 -0.8154  1.2584  0.5660
  145SAPE  H20R15952   4.784   1.634   9.995 -0.5896  2.1368  0.8614
  145SAPE  H20S15953   4.650   1.637  10.113  2.7197 -1.6714  1.0751
  145SAPE  H20T15954   4.677   1.764   9.979  0.3236  1.1066 -0.0238
  145SAPE   C3315955   3.986   1.882  10.486  0.4651 -0.3992  0.9119
  145SAPE   H3X15956   3.983   1.776  10.453 -0.3238  0.2461 -1.2454
  145SAPE   H3Y15957   4.089   1.904  10.523  0.1734  0.0490  1.4655
  145SAPE   C3415958   3.952   1.961  10.356 -0.2382 -0.2844 -0.3106
  145SAPE   H4X15959   3.961   2.071  10.370  3.5740 -0.4401 -0.5368
  145SAPE   H4Y15960   3.847   1.932  10.334  0.7151 -3.8731 -0.7606
  145SAPE   C3515961   4.054   1.932  10.245 -0.6497 -0.3666 -0.5667
  145SAPE   H5X15962   4.029   1.831  10.206  1.1312 -0.1550 -2.4404
  145SAPE   H5Y15963   4.158   1.917  10.281 -0.8108 -0.2738 -0.0534
  145SAPE   C3615964   4.041   2.029  10.130 -0.1739 -0.2824  0.7655
  145SAPE   H6X15965   4.102   2.118  10.156  0.4447  0.4593 -2.6837
  145SAPE   H6Y15966   3.933   2.049  10.113 -0.4282 -2.0815  0.0217
  145SAPE   C3715967   4.120   1.973   9.997  0.5489 -0.2510 -0.8372
  145SAPE   H7X15968   4.071   1.880   9.963  1.2931 -1.4318  1.1194
  145SAPE   H7Y15969   4.228   1.956  10.021 -0.0682 -1.6185  1.3056
  145SAPE   C3815970   4.115   2.084   9.891 -0.5081  0.2931  0.5705
  145SAPE   H8X15971   4.174   2.167   9.935 -0.4224  0.4156  0.2222
  145SAPE   H8Y15972   4.010   2.118   9.878 -0.4089  0.4091  0.0813
  145SAPE   C3915973   4.175   2.045   9.757  0.4829 -0.4939  0.2519
  145SAPE   H9X15974   4.177   2.128   9.683 -0.5242  0.7203  1.5433
  145SAPE   H9Y15975   4.106   1.963   9.725 -1.5921  1.5898 -0.9301
  145SAPE  C31015976   4.315   1.989   9.764  0.0554  0.6341 -0.1449
  145SAPE  H10X15977   4.323   1.901   9.831 -0.3019  0.6879 -0.0280
  145SAPE  H10Y15978   4.398   2.056   9.797  0.5676  0.5000 -1.1199
  145SAPE  C31115979   4.342   1.958   9.613  0.9095  0.7478 -1.0127
  145SAPE  H11X15980   4.335   2.050   9.552 -2.5558  0.8238 -0.7303
  145SAPE  H11Y15981   4.269   1.890   9.566  0.1834 -1.5993  3.0074
  145SAPE  C31215982   4.483   1.879   9.600  0.1313  0.2157  0.0888
  145SAPE  H12X15983   4.475   1.796   9.673 -0.3612  1.2490  1.2412
  145SAPE  H12Y15984   4.557   1.952   9.637  0.6763  0.1560 -0.8583
  145SAPE  C31315985   4.504   1.834   9.460 -0.1135 -0.4409 -0.2336
  145SAPE  H13X15986   4.603   1.873   9.430 -0.6321  1.0409 -0.1152
  145SAPE  H13Y15987   4.454   1.883   9.374  2.8267 -0.9676 -2.4137
  145SAPE  C31415988   4.488   1.686   9.456 -0.1268 -0.3240 -0.1667
  145SAPE  H14X15989   4.383   1.663   9.485  1.1273 -1.2219  4.5605
  145SAPE  H14Y15990   4.545   1.637   9.537 -2.0788 -0.3379  1.2698
  145SAPE  C31515991   4.524   1.618   9.322  0.0304 -0.8767 -0.0855
  145SAPE  H15X15992   4.634   1.627   9.313  0.0097  1.2226  1.1498
  145SAPE  H15Y15993   4.477   1.682   9.245 -4.7613 -1.9700  1.5598
  145SAPE  C31615994   4.485   1.475   9.304  0.5631  0.3504 -0.0767
  145SAPE  H16X15995   4.382   1.458   9.343 -0.3050  0.1544 -2.3363
  145SAPE  H16Y15996   4.548   1.414   9.373  0.0667 -1.8040 -1.4174
  145SAPE  C31715997   4.505   1.421   9.165  0.0367 -0.0101 -0.1174
  145SAPE  H17X15998   4.606   1.439   9.122  0.9382 -1.5596  1.2364
  145SAPE  H17Y15999   4.426   1.483   9.116  0.1082  1.8810  1.9498
  145SAPE  C31816000   4.480   1.264   9.163  0.6199  0.1499 -0.6235
  145SAPE  H18X16001   4.557   1.202   9.215 -0.0075 -1.6085 -1.7037
  145SAPE  H18Y16002   4.473   1.225   9.060  1.2252 -0.8259 -0.3078
  145SAPE  H18Z16003   4.381   1.244   9.210  0.4202  1.5596 -0.3778
  146SAPE     N16004   2.149   1.877  10.997  0.0590 -0.5048  0.0519
  146SAPE   HN116005   2.214   1.847  10.922  3.9908  0.8212  2.5889
  146SAPE   HN216006   2.074   1.808  11.016  1.4848 -1.8383  1.0152
  146SAPE   HN316007   2.111   1.972  10.979 -0.4314 -0.6409  0.3618
  146SAPE   C1216008   2.214   1.897  11.128 -0.5914  0.6539  0.3148
  146SAPE  H12A16009   2.283   1.811  11.146 -1.2393  0.3674  1.6034
  146SAPE  H12B16010   2.136   1.890  11.207 -0.3467 -0.5343  0.4765
  146SAPE   C1116011   2.279   2.030  11.128 -0.4300 -0.5322 -0.5402
  146SAPE  H11A16012   2.350   2.037  11.213  1.7526 -2.8488 -2.0201
  146SAPE  H11B16013   2.191   2.097  11.136  0.3403  0.5083 -0.5967
  146SAPE     P16014   2.498   2.025  10.973  0.2190 -0.0423  0.2893
  146SAPE   O1316015   2.592   2.138  10.996 -0.4850 -0.6467  0.4016
  146SAPE   O1416016   2.538   1.895  11.035 -0.0806 -0.1896  0.7634
  146SAPE   O1216017   2.350   2.062  11.008 -0.0721 -0.6901  0.2395
  146SAPE   O1116018   2.507   1.996  10.817 -0.0355  0.0416 -0.3408
  146SAPE    C116019   2.505   2.089  10.710 -0.1106  0.3574  0.3741
  146SAPE    HA16020   2.561   2.181  10.735  1.6605 -0.7235  0.5744
  146SAPE    HB16021   2.558   2.039  10.626  0.0668 -0.3745  0.9100
  146SAPE    C216022   2.359   2.096  10.655  0.3389 -0.4955 -0.0385
  146SAPE    HS16023   2.292   2.102  10.743 -0.2528  0.4798 -0.5354
  146SAPE   O2116024   2.338   1.984  10.570  0.0723  0.3498  0.6557
  146SAPE   C2116025   2.308   1.875  10.632  0.4528 -0.0595  0.5165
  146SAPE   O2216026   2.268   1.869  10.747  0.6496 -0.3134  0.1982
  146SAPE   C2216027   2.334   1.747  10.545  0.0908 -0.2543  0.0300
  146SAPE   H2R16028   2.348   1.675  10.629  3.5078  2.7584  2.3246
  146SAPE   H2S16029   2.249   1.718  10.480  1.7083 -0.3118 -2.1755
  146SAPE    C316030   2.319   2.218  10.567 -0.6925 -0.5537 -0.1027
  146SAPE    HX16031   2.345   2.306  10.630  0.5874 -0.3844 -0.8361
  146SAPE    HY16032   2.210   2.206  10.548 -0.2316 -2.5204 -1.8046
  146SAPE   O3116033   2.397   2.210  10.445  0.2487  0.1202  0.0697
  146SAPE   C3116034   2.491   2.301  10.419  0.4394  0.3931 -0.3301
  146SAPE   O3216035   2.519   2.392  10.497 -0.1842  0.1124  0.3042
  146SAPE   C3216036   2.555   2.281  10.284 -0.2935  0.3797 -0.0323
  146SAPE   H2X16037   2.617   2.190  10.285  1.0276  1.1787 -2.2171
  146SAPE   H2Y16038   2.631   2.361  10.270 -0.3904  0.5974  0.6479
  146SAPE   C2316039   2.471   1.751  10.477  0.3491  0.1150 -0.4272
  146SAPE   H3R16040   2.483   1.644  10.448 -1.7323 -0.6851  1.3580
  146SAPE   H3S16041   2.542   1.772  10.560  0.6328 -0.1678 -0.5926
  146SAPE   C2416042   2.483   1.833  10.349  0.1506  0.1862  0.4383
  146SAPE   H4R16043   2.463   1.939  10.376 -0.0682 -0.0335  1.1552
  146SAPE   H4S16044   2.397   1.794  10.289  0.4397  0.1540  0.0382
  146SAPE   C2516045   2.619   1.823  10.285 -0.3859 -0.3067 -0.3502
  146SAPE   H5R16046   2.695   1.855  10.358 -2.8713  1.9356  1.4695
  146SAPE   C2616047   2.642   1.775  10.164  0.4443 -0.0664  0.1986
  146SAPE   H6R16048   2.744   1.788  10.125 -0.1740  1.4679 -1.0303
  146SAPE   C2716049   2.539   1.731  10.065  0.5667 -0.3538  0.9155
  146SAPE   H7R16050   2.459   1.681  10.124  0.5413 -0.8353  0.4866
  146SAPE   H7S16051   2.592   1.654  10.005  2.2740  0.9929  0.6204
  146SAPE   C2816052   2.476   1.842   9.974 -0.0994 -0.1855 -0.1995
  146SAPE   H8R16053   2.438   1.930  10.028 -0.1325  0.9142 -1.9131
  146SAPE   C2916054   2.467   1.842   9.837  0.5601  0.2122  0.0048
  146SAPE   H9R16055   2.422   1.931   9.791  0.5624  0.6431  0.8121
  146SAPE  C21016056   2.521   1.738   9.741 -0.5571 -0.6539 -0.2283
  146SAPE  H10R16057   2.447   1.724   9.659 -0.5533  1.3947 -0.6335
  146SAPE  H10S16058   2.520   1.636   9.785 -1.3299 -0.5765 -0.0580
  146SAPE  C21116059   2.656   1.780   9.685 -0.4067 -0.2745 -0.1724
  146SAPE  H11R16060   2.732   1.818   9.754  2.3987  2.6112 -4.3440
  146SAPE  C21216061   2.691   1.761   9.556  0.2864  0.1403 -0.2971
  146SAPE  H12R16062   2.786   1.803   9.517  0.7175  0.0447  0.6367
  146SAPE  C21316063   2.608   1.711   9.449  0.1758 -0.6096  0.5267
  146SAPE  H13R16064   2.571   1.804   9.400 -1.6046 -0.2942  2.3624
  146SAPE  H13S16065   2.515   1.662   9.483 -0.8192 -0.2501 -1.5367
  146SAPE  C21416066   2.675   1.624   9.350 -0.0818 -0.1032 -0.8313
  146SAPE  H14R16067   2.717   1.534   9.398 -0.5524  1.7026  3.4540
  146SAPE  C21516068   2.694   1.640   9.220 -0.2435  0.0587 -0.1144
  146SAPE  H15R16069   2.759   1.558   9.184 -1.1693 -1.3778  1.3382
  146SAPE  C21616070   2.649   1.755   9.128 -0.5166 -0.5926  0.2883
  146SAPE  H16R16071   2.732   1.822   9.099 -2.7885  1.5414 -1.7175
  146SAPE  H16S16072   2.584   1.830   9.179 -0.4449 -0.4454  0.1625
  146SAPE  C21716073   2.607   1.709   8.984  0.1862  0.2376  0.2508
  146SAPE  H17R16074   2.519   1.643   8.994  0.0105  0.4359  0.0198
  146SAPE  H17S16075   2.691   1.648   8.944  1.2926  1.2734  0.9206
  146SAPE  C21816076   2.575   1.829   8.890  0.1416 -0.2617  0.1366
  146SAPE  H18R16077   2.603   1.916   8.952 -1.0114  0.1205  0.1502
  146SAPE  H18S16078   2.464   1.825   8.887  0.0718 -0.3058  1.6900
  146SAPE  C21916079   2.630   1.830   8.749 -0.7506  0.1808  0.1942
  146SAPE  H19R16080   2.614   1.731   8.702  0.4415 -0.5116  1.1723
  146SAPE  H19S16081   2.741   1.821   8.761 -0.9072 -1.9391  0.4540
  146SAPE  C22016082   2.598   1.949   8.656 -0.2942  0.6251  0.1457
  146SAPE  H20R16083   2.488   1.962   8.646 -0.3243  0.2409 -0.0723
  146SAPE  H20S16084   2.639   1.919   8.557 -1.2859  0.6147 -0.2654
  146SAPE  H20T16085   2.649   2.042   8.689  1.1539 -1.0427  3.0681
  146SAPE   C3316086   2.453   2.284  10.161 -0.2119 -0.2693  0.1252
  146SAPE   H3X16087   2.414   2.385  10.137 -0.4421 -0.7332 -1.5982
  146SAPE   H3Y16088   2.369   2.217  10.190 -1.1035  0.3122 -1.0474
  146SAPE   C3416089   2.530   2.228  10.047 -0.3926 -0.8866 -0.3654
  146SAPE   H4X16090   2.583   2.132  10.068 -0.9954 -1.5104 -1.6029
  146SAPE   H4Y16091   2.615   2.294  10.021 -1.3868  0.2557 -0.7937
  146SAPE   C3516092   2.451   2.200   9.918  0.3537 -0.2058  0.1711
  146SAPE   H5X16093   2.359   2.146   9.948  2.4162 -2.7493  2.4269
  146SAPE   H5Y16094   2.502   2.129   9.851 -2.0058  0.0855 -2.0861
  146SAPE   C3616095   2.419   2.324   9.838  0.0816  0.1465 -0.5381
  146SAPE   H6X16096   2.509   2.379   9.803 -0.8789  0.6644 -2.3546
  146SAPE   H6Y16097   2.358   2.388   9.904  0.3771 -2.0061  1.9789
  146SAPE   C3716098   2.357   2.293   9.700 -0.3455 -0.5153 -0.1123
  146SAPE   H7X16099   2.252   2.264   9.723 -0.4696  0.0342  0.0277
  146SAPE   H7Y16100   2.405   2.202   9.658 -0.0706 -1.0337  1.2721
  146SAPE   C3816101   2.369   2.401   9.594 -0.1437  0.0897 -0.6723
  146SAPE   H8X16102   2.457   2.380   9.529 -0.1984 -0.3726 -0.5960
  146SAPE   H8Y16103   2.381   2.502   9.639  2.7790 -0.5293  0.1342
  146SAPE   C3916104   2.247   2.401   9.506  0.7282  0.3982  0.2995
  146SAPE   H9X16105   2.156   2.409   9.568 -0.9812 -0.5973 -1.9335
  146SAPE   H9Y16106   2.244   2.305   9.449 -1.7233  0.1968  0.6497
  146SAPE  C31016107   2.236   2.496   9.387 -0.3937 -0.1204  0.1145
  146SAPE  H10X16108   2.326   2.487   9.322 -0.2606 -1.7102  0.4876
  146SAPE  H10Y16109   2.239   2.604   9.413  2.3169  0.5656 -2.4483
  146SAPE  C31116110   2.116   2.470   9.285  0.8679 -0.3355 -0.6612
  146SAPE  H11X16111   2.025   2.495   9.343  0.7685  1.0666 -1.3915
  146SAPE  H11Y16112   2.117   2.364   9.252  0.2137 -0.5286 -0.0874
  146SAPE  C31216113   2.118   2.562   9.164 -0.4978  0.4661  0.8467
  146SAPE  H12X16114   2.214   2.565   9.109 -1.9970  1.0587 -1.9604
  146SAPE  H12Y16115   2.096   2.667   9.194  1.3231  0.6543  1.6463
  146SAPE  C31316116   2.021   2.522   9.047 -0.8199 -0.4119 -0.0411
  146SAPE  H13X16117   1.914   2.522   9.077 -0.5121  1.2923  1.2115
  146SAPE  H13Y16118   2.053   2.422   9.009 -3.1032 -0.6411 -1.5927
  146SAPE  C31416119   2.038   2.612   8.924 -0.4757 -0.4849  0.7497
  146SAPE  H14X16120   2.143   2.632   8.895  0.0204 -1.2929  1.8888
  146SAPE  H14Y16121   2.005   2.710   8.964  0.6954  0.5187 -0.6541
  146SAPE  C31516122   1.947   2.568   8.802 -0.9448  0.1425 -0.1520
  146SAPE  H15X16123   1.850   2.536   8.846  0.1668 -2.7327  0.4584
  146SAPE  H15Y16124   1.987   2.474   8.759 -2.3591 -0.4594 -0.2111
  146SAPE  C31616125   1.927   2.679   8.694 -0.7891  0.1306 -0.1015
  146SAPE  H16X16126   2.022   2.705   8.643 -0.0514 -1.4911  0.3784
  146SAPE  H16Y16127   1.891   2.775   8.737  3.2840  1.4625  0.7835
  146SAPE  C31716128   1.824   2.627   8.589  0.0468 -0.3285  0.4069
  146SAPE  H17X16129   1.844   2.693   8.502  0.8107  0.2353  0.9907
  146SAPE  H17Y16130   1.720   2.656   8.615  0.7743  1.6194  1.3588
  146SAPE  C31816131   1.817   2.480   8.565 -0.4145  0.5831 -0.3370
  146SAPE  H18X16132   1.796   2.414   8.653 -1.1480 -0.6295 -1.3841
  146SAPE  H18Y16133   1.918   2.448   8.532  0.6307  2.6938  0.6395
  146SAPE  H18Z16134   1.737   2.453   8.493 -1.3232  0.1734  0.7792
  147SAPE     N16135   6.272   5.312   6.486 -0.7267  0.2320  0.7545
  147SAPE   HN116136   6.246   5.288   6.583  1.5250  0.3637  1.4535
  147SAPE   HN216137   6.269   5.416   6.476 -0.8549  0.1620  0.0082
  147SAPE   HN316138   6.202   5.281   6.416  1.0846  0.4755 -1.2785
  147SAPE   C1216139   6.413   5.256   6.452 -0.2424 -0.2725  0.3912
  147SAPE  H12A16140   6.416   5.148   6.481 -0.0208 -0.0468  1.2350
  147SAPE  H12B16141   6.489   5.311   6.511 -0.9551 -0.2230  1.2843
  147SAPE   C1116142   6.450   5.276   6.301 -0.3835  0.4530 -0.5203
  147SAPE  H11A16143   6.387   5.200   6.249  0.9227 -1.4473  0.5153
  147SAPE  H11B16144   6.559   5.266   6.281  0.1254  2.2886  1.0823
  147SAPE     P16145   6.472   5.536   6.288  0.1656 -0.2230 -0.0957
  147SAPE   O1316146   6.504   5.614   6.164 -0.2586  0.3084  0.3686
  147SAPE   O1416147   6.382   5.608   6.382  0.1017 -0.3895  0.4230
  147SAPE   O1216148   6.410   5.398   6.247 -0.2752 -0.4088  0.3059
  147SAPE   O1116149   6.606   5.485   6.356 -0.4080  0.3747 -0.4099
  147SAPE    C116150   6.702   5.558   6.431  0.1819  0.0346 -0.0421
  147SAPE    HA16151   6.802   5.510   6.420  0.6900  0.5257  2.0515
  147SAPE    HB16152   6.731   5.658   6.391  1.7758 -0.2692  0.2636
  147SAPE    C216153   6.683   5.566   6.586  0.0220  0.1156 -0.5581
  147SAPE    HS16154   6.650   5.463   6.613 -4.7562  1.6692  0.5683
  147SAPE   O2116155   6.593   5.674   6.601  0.5922 -0.1176  0.8176
  147SAPE   C2116156   6.487   5.635   6.664  0.7180 -0.3234 -0.0226
  147SAPE   O2216157   6.454   5.521   6.690 -0.0914  0.1820 -0.5305
  147SAPE   C2216158   6.415   5.751   6.725  0.6238 -0.4399  0.1871
  147SAPE   H2R16159   6.489   5.830   6.752 -0.8895  1.0286  0.2100
  147SAPE   H2S16160   6.352   5.792   6.643  3.3902 -0.9762 -2.3849
  147SAPE    C316161   6.815   5.601   6.658  0.3794 -0.6012 -0.3443
  147SAPE    HX16162   6.861   5.693   6.616  3.7232 -1.3883  1.3027
  147SAPE    HY16163   6.882   5.514   6.643 -1.5779 -1.6895 -3.9292
  147SAPE   O3116164   6.795   5.641   6.801  0.6729  0.2913  0.7953
  147SAPE   C3116165   6.806   5.549   6.890 -0.1836  0.6980  0.3416
  147SAPE   O3216166   6.861   5.443   6.870  0.1524 -0.1437 -0.2868
  147SAPE   C3216167   6.724   5.586   7.014 -0.2200 -0.2072  0.3458
  147SAPE   H2X16168   6.624   5.626   6.985  0.1561  0.1503 -0.4884
  147SAPE   H2Y16169   6.777   5.671   7.063  1.1799 -1.1348  0.4911
  147SAPE   C2316170   6.331   5.703   6.846 -0.2531 -0.1895  0.1745
  147SAPE   H3R16171   6.392   5.649   6.921  1.3944 -0.1627 -1.0766
  147SAPE   H3S16172   6.260   5.626   6.809  0.2955 -0.7499  0.2884
  147SAPE   C2416173   6.245   5.819   6.906  0.1369 -1.0841  0.8212
  147SAPE   H4R16174   6.181   5.861   6.826  0.3157 -0.6776  0.8909
  147SAPE   H4S16175   6.320   5.900   6.919  0.7290 -1.0118 -2.1854
  147SAPE   C2516176   6.166   5.779   7.032  0.5004  0.3656  0.8771
  147SAPE   H5R16177   6.084   5.712   7.002  1.4298 -0.6086  0.4880
  147SAPE   C2616178   6.175   5.819   7.165 -1.0600  0.8360 -0.4339
  147SAPE   H6R16179   6.107   5.779   7.242  0.8125  1.3352  1.5546
  147SAPE   C2716180   6.283   5.915   7.227  0.3259 -0.0154  0.3693
  147SAPE   H7R16181   6.230   6.002   7.272 -3.0075 -2.4441  1.5280
  147SAPE   H7S16182   6.360   5.944   7.152  0.5769  0.1416  0.6858
  147SAPE   C2816183   6.344   5.843   7.345  0.2614  0.1615  0.6194
  147SAPE   H8R16184   6.410   5.765   7.305  1.1534  1.6942 -1.0622
  147SAPE   C2916185   6.314   5.864   7.472  0.4717  0.2600  0.0360
  147SAPE   H9R16186   6.377   5.809   7.544  0.9006 -0.6328 -0.9938
  147SAPE  C21016187   6.219   5.963   7.535  0.5224  0.7550 -0.4408
  147SAPE  H10R16188   6.176   5.908   7.622  2.1639  2.7158  1.7780
  147SAPE  H10S16189   6.130   5.976   7.470 -1.7493 -2.2259  1.7405
  147SAPE  C21116190   6.270   6.091   7.595 -0.1507 -0.0584 -0.4665
  147SAPE  H11R16191   6.232   6.183   7.549  0.1841  0.7367  0.7911
  147SAPE  C21216192   6.358   6.107   7.697  0.1094 -0.1665 -0.2828
  147SAPE  H12R16193   6.381   6.206   7.739  0.7676 -0.3026 -0.3008
  147SAPE  C21316194   6.414   5.995   7.789  0.0597 -0.9197 -0.6379
  147SAPE  H13R16195   6.471   6.044   7.871 -0.6587 -2.1077  0.6308
  147SAPE  H13S16196   6.480   5.927   7.731  0.3431 -0.5586 -0.7370
  147SAPE  C21416197   6.304   5.937   7.878  0.1619  0.3112  0.7187
  147SAPE  H14R16198   6.246   6.013   7.933  1.4801  0.9846  1.2220
  147SAPE  C21516199   6.281   5.808   7.883 -0.5357 -0.1189  0.5594
  147SAPE  H15R16200   6.210   5.770   7.958 -0.8374  0.9554  0.8449
  147SAPE  C21616201   6.349   5.697   7.795 -0.2991  0.0054  0.1154
  147SAPE  H16R16202   6.447   5.714   7.745  0.1253 -0.7206  0.6823
  147SAPE  H16S16203   6.282   5.674   7.710  0.6459 -2.4857 -0.0611
  147SAPE  C21716204   6.377   5.572   7.872  0.9415  0.3483 -0.2035
  147SAPE  H17R16205   6.390   5.481   7.809  2.5048  0.9026 -0.7375
  147SAPE  H17S16206   6.297   5.543   7.943  1.7614 -0.4692  0.3889
  147SAPE  C21816207   6.502   5.582   7.956  0.4453 -0.3895  0.1928
  147SAPE  H18R16208   6.489   5.671   8.021  1.4549  0.2247 -0.4318
  147SAPE  H18S16209   6.592   5.601   7.894  0.7108 -0.6018  0.5126
  147SAPE  C21916210   6.534   5.473   8.057 -1.1422  0.0722 -0.0826
  147SAPE  H19R16211   6.450   5.459   8.128 -0.2680 -2.1423  0.5996
  147SAPE  H19S16212   6.622   5.493   8.122 -0.8189 -1.2956 -0.0725
  147SAPE  C22016213   6.556   5.345   7.990  0.0718  0.1171  0.5146
  147SAPE  H20R16214   6.479   5.326   7.913 -1.2155  0.3582  1.7054
  147SAPE  H20S16215   6.558   5.257   8.058 -1.4075 -0.3412 -0.0113
  147SAPE  H20T16216   6.658   5.352   7.945 -0.5108 -1.4277 -1.1482
  147SAPE   C3316217   6.693   5.470   7.110  0.1310  0.0176 -0.2783
  147SAPE   H3X16218   6.783   5.431   7.163  0.1237 -2.1197 -1.7190
  147SAPE   H3Y16219   6.662   5.380   7.053  2.2361 -0.9430  0.0044
  147SAPE   C3416220   6.585   5.507   7.210  0.7420 -0.4574  0.2206
  147SAPE   H4X16221   6.483   5.509   7.165  1.1042 -0.5640 -0.6142
  147SAPE   H4Y16222   6.590   5.615   7.238  0.2853 -0.4652  0.3523
  147SAPE   C3516223   6.584   5.419   7.339 -0.2204 -0.0202  0.0486
  147SAPE   H5X16224   6.532   5.479   7.416  0.9644  0.8693  0.1708
  147SAPE   H5Y16225   6.692   5.401   7.362 -0.3405 -1.3013 -0.2761
  147SAPE   C3616226   6.526   5.283   7.303  0.0966  0.1124 -0.3203
  147SAPE   H6X16227   6.607   5.221   7.259  0.2018  0.3032 -0.3957
  147SAPE   H6Y16228   6.447   5.286   7.225  1.5598  1.2800 -1.8379
  147SAPE   C3716229   6.469   5.207   7.424  0.4167  0.3440  0.0776
  147SAPE   H7X16230   6.407   5.119   7.394  0.0913 -0.5719  3.0591
  147SAPE   H7Y16231   6.390   5.269   7.473 -1.5514  0.2648 -2.7486
  147SAPE   C3816232   6.576   5.152   7.526 -0.7991 -0.2357 -0.1133
  147SAPE   H8X16233   6.529   5.143   7.626 -3.7470  0.1672 -1.3727
  147SAPE   H8Y16234   6.657   5.227   7.536  1.1479 -2.3737  1.1258
  147SAPE   C3916235   6.631   5.013   7.486  0.2076 -0.1428  0.3077
  147SAPE   H9X16236   6.634   4.999   7.376 -1.9335 -1.3638  0.3405
  147SAPE   H9Y16237   6.549   4.948   7.524 -0.6801  1.2934  0.9182
  147SAPE  C31016238   6.759   4.993   7.564 -0.2806  0.0080  0.2810
  147SAPE  H10X16239   6.739   5.011   7.672  0.0554 -2.0230  0.7393
  147SAPE  H10Y16240   6.842   5.063   7.543  1.6970 -1.5444  2.3269
  147SAPE  C31116241   6.832   4.860   7.530  0.2733 -0.1681 -0.6530
  147SAPE  H11X16242   6.858   4.865   7.422  0.9787 -0.1970 -0.4879
  147SAPE  H11Y16243   6.763   4.774   7.544  0.1664  0.0812  0.4375
  147SAPE  C31216244   6.950   4.842   7.616  0.0351  0.3409 -0.1285
  147SAPE  H12X16245   7.006   4.936   7.640 -0.5526  1.0659 -1.5024
  147SAPE  H12Y16246   7.024   4.779   7.562  2.2640 -0.5490  3.5853
  147SAPE  C31316247   6.926   4.769   7.759  0.1655  0.2783  0.3700
  147SAPE  H13X16248   6.871   4.674   7.742 -0.5837  0.5998  0.9515
  147SAPE  H13Y16249   6.853   4.837   7.808 -1.9701 -0.2756 -1.8922
  147SAPE  C31416250   7.061   4.757   7.843  0.3642  0.3422  0.5822
  147SAPE  H14X16251   7.103   4.860   7.841 -2.0005  1.4200  1.9436
  147SAPE  H14Y16252   7.129   4.684   7.795 -0.9091 -0.9325  0.6622
  147SAPE  C31516253   7.025   4.716   7.988 -0.6722  0.0828 -0.0315
  147SAPE  H15X16254   6.967   4.800   8.032  0.7750 -0.0375  2.3014
  147SAPE  H15Y16255   7.121   4.693   8.039 -1.1608 -0.8360  0.5196
  147SAPE  C31616256   6.941   4.583   7.995 -0.4808  0.3946 -0.7513
  147SAPE  H16X16257   7.014   4.507   7.959  1.2769  0.9515  1.3876
  147SAPE  H16Y16258   6.850   4.581   7.931 -1.4723  1.4343  0.5525
  147SAPE  C31716259   6.895   4.575   8.136  0.1143 -0.2478 -0.1756
  147SAPE  H17X16260   6.820   4.657   8.139  2.4654  2.0294 -0.6453
  147SAPE  H17Y16261   6.974   4.592   8.212  0.0232  1.4686 -0.4223
  147SAPE  C31816262   6.837   4.432   8.165  0.2865 -0.3966 -0.6817
  147SAPE  H18X16263   6.742   4.430   8.107 -2.0230  2.1903  2.5600
  147SAPE  H18Y16264   6.810   4.428   8.273 -0.0692  0.5583 -0.7179
  147SAPE  H18Z16265   6.900   4.346   8.135 -0.8549 -1.7780  0.6943
  148SAPE     N16266   0.503   3.433   6.409  0.4300  0.1223 -0.1715
  148SAPE   HN116267   0.487   3.536   6.403  0.1847  0.2602  2.0357
  148SAPE   HN216268   0.537   3.401   6.316 -0.7393  0.2820 -0.6872
  148SAPE   HN316269   0.407   3.396   6.424  0.8941 -1.0432  0.0093
  148SAPE   C1216270   0.604   3.394   6.517  0.1972  0.6304  1.1554
  148SAPE  H12A16271   0.543   3.370   6.607 -0.0045 -0.9303  0.6346
  148SAPE  H12B16272   0.677   3.476   6.532  1.4520 -0.2492  0.0997
  148SAPE   C1116273   0.674   3.266   6.470 -0.1672  0.5862  0.3485
  148SAPE  H11A16274   0.709   3.201   6.552  2.1058 -1.4776 -2.0660
  148SAPE  H11B16275   0.761   3.312   6.418  1.3230 -0.7056  1.6073
  148SAPE     P16276   0.597   3.035   6.372 -0.4748 -0.0186  0.0343
  148SAPE   O1316277   0.499   2.993   6.272  0.4027  0.1068  0.3556
  148SAPE   O1416278   0.733   2.986   6.352  0.3416  0.2035  0.6978
  148SAPE   O1216279   0.601   3.193   6.368 -0.2501  0.6755  0.2854
  148SAPE   O1116280   0.549   2.989   6.515 -0.0744  0.0465 -0.1900
  148SAPE    C116281   0.431   3.044   6.561 -0.1780 -0.1612  0.0748
  148SAPE    HA16282   0.441   3.154   6.573  0.8077 -0.2636  0.2467
  148SAPE    HB16283   0.347   3.018   6.493 -1.3651 -3.5022  2.5350
  148SAPE    C216284   0.390   2.981   6.689  0.0569  0.1251  0.2124
  148SAPE    HS16285   0.312   3.047   6.732 -1.4662 -1.9328  0.7682
  148SAPE   O2116286   0.502   2.966   6.788 -0.0816  0.3525 -0.3402
  148SAPE   C2116287   0.563   3.073   6.829  0.1432 -0.1181 -0.2990
  148SAPE   O2216288   0.536   3.189   6.802 -0.4160 -0.2389 -0.2808
  148SAPE   C2216289   0.674   3.036   6.932 -0.1060 -0.5334 -0.1853
  148SAPE   H2R16290   0.766   3.021   6.872  0.1982 -0.5363  0.2741
  148SAPE   H2S16291   0.692   3.127   6.994  0.0227 -0.1742 -0.7453
  148SAPE    C316292   0.317   2.848   6.676  0.7150 -0.4203 -0.9010
  148SAPE    HX16293   0.381   2.767   6.635  2.0594  1.4711 -2.7993
  148SAPE    HY16294   0.236   2.849   6.601  1.3579 -0.4016 -1.6127
  148SAPE   O3116295   0.260   2.805   6.807  0.0730  1.1241 -0.5158
  148SAPE   C3116296   0.332   2.727   6.880  0.0400 -0.7863  0.2720
  148SAPE   O3216297   0.448   2.694   6.863 -0.0840  0.3558 -0.0332
  148SAPE   C3216298   0.243   2.661   6.995  0.4210 -0.2174  1.0589
  148SAPE   H2X16299   0.254   2.554   6.968 -1.5267  0.0792 -1.1554
  148SAPE   H2Y16300   0.138   2.696   6.994  0.3647 -0.3888  1.0157
  148SAPE   C2316301   0.632   2.931   7.035  0.5000 -0.1239  0.4007
  148SAPE   H3R16302   0.578   2.857   6.972  0.3410  0.1001  0.2702
  148SAPE   H3S16303   0.556   2.969   7.106 -0.0708 -0.0390 -0.2498
  148SAPE   C2416304   0.739   2.870   7.122  0.2285 -0.4335  0.5954
  148SAPE   H4R16305   0.836   2.858   7.069 -0.1057  2.7722 -0.9927
  148SAPE   H4S16306   0.708   2.769   7.156 -0.4091 -0.8760 -1.2081
  148SAPE   C2516307   0.770   2.943   7.244  0.5289 -0.1661  0.6870
  148SAPE   H5R16308   0.845   3.019   7.220  0.9393 -0.5930  0.5994
  148SAPE   C2616309   0.710   2.935   7.365  0.7300  0.6739 -0.1842
  148SAPE   H6R16310   0.747   3.005   7.441  2.4665 -1.1679  0.7600
  148SAPE   C2716311   0.599   2.838   7.394  0.1883 -0.2023 -0.1309
  148SAPE   H7R16312   0.635   2.762   7.465 -0.7019 -0.3931  0.1305
  148SAPE   H7S16313   0.558   2.784   7.306  2.5956 -0.6463 -1.0468
  148SAPE   C2816314   0.479   2.911   7.450  0.6224  0.8203 -0.2847
  148SAPE   H8R16315   0.416   2.962   7.376 -2.1409 -0.6621  0.8994
  148SAPE   C2916316   0.438   2.927   7.577 -0.0090  0.5577  0.3374
  148SAPE   H9R16317   0.354   2.996   7.594 -0.4012  0.1928 -0.0988
  148SAPE  C21016318   0.508   2.872   7.701  0.3267  0.1892 -0.0019
  148SAPE  H10R16319   0.601   2.822   7.666 -1.5738 -3.3861 -0.4370
  148SAPE  H10S16320   0.448   2.803   7.765  0.3642  2.0106  2.1274
  148SAPE  C21116321   0.539   2.993   7.778  0.6295  0.3583 -0.2584
  148SAPE  H11R16322   0.630   3.043   7.742  0.8101 -1.0190 -1.7918
  148SAPE  C21216323   0.467   3.049   7.875  0.0586 -0.8536 -0.1466
  148SAPE  H12R16324   0.502   3.138   7.929 -1.0163 -0.0984 -0.6456
  148SAPE  C21316325   0.331   3.006   7.930 -0.9825 -0.4241  0.6512
  148SAPE  H13R16326   0.285   2.944   7.850  1.4406 -0.3542 -0.8974
  148SAPE  H13S16327   0.273   3.099   7.945  1.1565  1.0837  0.0833
  148SAPE  C21416328   0.341   2.913   8.048  0.5362  0.3242 -0.6696
  148SAPE  H14R16329   0.388   2.814   8.033  1.5789  0.8947 -1.3134
  148SAPE  C21516330   0.304   2.943   8.173 -0.2546  0.2764 -0.1418
  148SAPE  H15R16331   0.294   2.872   8.257  0.9061  1.6886  1.2516
  148SAPE  C21616332   0.249   3.077   8.211  0.4223 -0.3161 -0.2386
  148SAPE  H16R16333   0.288   3.160   8.148  0.5389  0.9596  1.4334
  148SAPE  H16S16334   0.277   3.090   8.318 -0.1010  3.5107 -0.4142
  148SAPE  C21716335   0.095   3.093   8.219  0.0402  0.5923  0.1774
  148SAPE  H17R16336   0.054   3.009   8.279  0.1544  1.0761  0.9465
  148SAPE  H17S16337   0.051   3.093   8.117  1.6039  3.0060 -0.5917
  148SAPE  C21816338   0.051   3.222   8.291 -0.2831 -1.3057 -0.1403
  148SAPE  H18R16339  -0.057   3.230   8.270 -0.3809 -1.0510  0.4473
  148SAPE  H18S16340   0.106   3.309   8.247  1.6267 -1.5301  1.6403
  148SAPE  C21916341   0.083   3.231   8.439  0.0145  0.0400  0.3531
  148SAPE  H19R16342   0.190   3.210   8.463 -0.5453 -0.5596  2.5931
  148SAPE  H19S16343   0.037   3.145   8.492 -0.4982 -0.6138 -1.0852
  148SAPE  C22016344   0.033   3.360   8.505 -0.9260 -0.5875  0.2258
  148SAPE  H20R16345  -0.078   3.361   8.508 -0.9767 -2.7252  0.6832
  148SAPE  H20S16346   0.064   3.448   8.443 -0.7733  0.1519  1.3167
  148SAPE  H20T16347   0.073   3.361   8.609 -1.0361 -1.7342  0.2855
  148SAPE   C3316348   0.295   2.674   7.135  0.7552  0.9619 -0.0511
  148SAPE   H3X16349   0.301   2.776   7.180 -1.8274  1.3408 -0.3857
  148SAPE   H3Y16350   0.400   2.639   7.139  0.2304 -0.7854 -0.8263
  148SAPE   C3416351   0.207   2.594   7.237 -0.3590  0.1378  0.3502
  148SAPE   H4X16352   0.209   2.484   7.217 -3.1717 -0.0168  0.5223
  148SAPE   H4Y16353   0.099   2.609   7.213 -0.4574  0.5171  1.0126
  148SAPE   C3516354   0.248   2.628   7.379 -0.5781 -0.1879  0.3821
  148SAPE   H5X16355   0.216   2.734   7.390  2.6600  0.8098  1.6026
  148SAPE   H5Y16356   0.359   2.630   7.381 -0.5590  0.6208 -0.6926
  148SAPE   C3616357   0.198   2.538   7.487  0.1008  0.3164  0.5242
  148SAPE   H6X16358   0.234   2.433   7.490 -1.7791 -0.3990 -0.5214
  148SAPE   H6Y16359   0.087   2.539   7.486 -0.0632 -3.0547 -2.2323
  148SAPE   C3716360   0.251   2.587   7.624 -1.2295 -0.9735  0.1627
  148SAPE   H7X16361   0.240   2.697   7.625  1.2957 -0.6653 -0.3848
  148SAPE   H7Y16362   0.361   2.583   7.631 -1.1596  0.2895 -0.0769
  148SAPE   C3816363   0.167   2.531   7.743  0.4292  0.2230 -0.4480
  148SAPE   H8X16364   0.200   2.426   7.754  1.4890  0.7669  2.3053
  148SAPE   H8Y16365   0.059   2.532   7.716  0.6011  0.8997 -1.1511
  148SAPE   C3916366   0.180   2.606   7.883  0.2594 -0.3581  0.5787
  148SAPE   H9X16367   0.169   2.715   7.862 -0.0366 -0.5068 -0.0604
  148SAPE   H9Y16368   0.288   2.589   7.905 -0.0269 -1.6843  1.0295
  148SAPE  C31016369   0.104   2.541   7.994  0.5513 -0.8491 -0.7309
  148SAPE  H10X16370   0.101   2.432   7.974  0.3656 -1.0603  0.3673
  148SAPE  H10Y16371   0.002   2.584   7.983  0.6927 -0.6216 -1.1804
  148SAPE  C31116372   0.152   2.562   8.137 -0.3156 -0.3402  0.2358
  148SAPE  H11X16373   0.080   2.627   8.192 -0.5544 -1.1981  0.9586
  148SAPE  H11Y16374   0.245   2.621   8.146 -0.4162  0.1881 -1.6808
  148SAPE  C31216375   0.163   2.419   8.201 -0.6275 -0.1596  1.0848
  148SAPE  H12X16376   0.209   2.344   8.133  0.2367  0.1145  1.3582
  148SAPE  H12Y16377   0.059   2.386   8.221 -0.2998 -1.7681  0.2724
  148SAPE  C31316378   0.249   2.410   8.328 -0.1471  0.5755  0.1615
  148SAPE  H13X16379   0.223   2.481   8.409 -2.1209  0.6394 -0.4792
  148SAPE  H13Y16380   0.354   2.433   8.301  1.0151 -4.2446 -0.3168
  148SAPE  C31416381   0.248   2.277   8.388  0.7374  0.0694 -0.4547
  148SAPE  H14X16382   0.252   2.193   8.315 -0.6194 -1.4782  1.1579
  148SAPE  H14Y16383   0.154   2.265   8.446 -0.2638 -1.0723 -2.2197
  148SAPE  C31516384   0.375   2.255   8.478  0.1027  0.6571 -0.1615
  148SAPE  H15X16385   0.470   2.272   8.423  0.0396 -1.1450 -0.8972
  148SAPE  H15Y16386   0.385   2.150   8.512  0.9649 -0.0814 -2.4854
  148SAPE  C31616387   0.367   2.354   8.592  0.2534 -0.1214  0.0524
  148SAPE  H16X16388   0.263   2.354   8.631  0.1068 -1.4730 -0.2704
  148SAPE  H16Y16389   0.378   2.456   8.548 -3.0331 -0.1300 -1.0701
  148SAPE  C31716390   0.474   2.325   8.697 -0.3592 -0.1888  0.1740
  148SAPE  H17X16391   0.576   2.316   8.653 -0.4046 -0.2300  0.0779
  148SAPE  H17Y16392   0.456   2.224   8.738 -0.5839 -0.6096 -0.9372
  148SAPE  C31816393   0.473   2.434   8.800 -0.0901  0.0524  0.0679
  148SAPE  H18X16394   0.370   2.466   8.831  0.5095  0.4962  1.7165
  148SAPE  H18Y16395   0.515   2.534   8.777  1.7211 -1.1475 -2.1466
  148SAPE  H18Z16396   0.520   2.399   8.895 -2.4261  1.0998  1.7323
  149SAPE     N16397   3.547   5.068   6.622  0.6185  0.3384  0.0019
  149SAPE   HN116398   3.464   5.129   6.610 -1.9236 -3.1371 -1.6268
  149SAPE   HN216399   3.637   5.120   6.620  1.5168 -1.1573 -1.4148
  149SAPE   HN316400   3.563   5.007   6.539 -0.0797 -0.1989  0.2559
  149SAPE   C1216401   3.551   4.996   6.750  0.2031 -0.6012 -0.2231
  149SAPE  H12A16402   3.473   4.917   6.744  0.7934 -1.2872  0.9119
  149SAPE  H12B16403   3.511   5.059   6.832 -0.2782 -1.6581  0.3704
  149SAPE   C1116404   3.689   4.947   6.772  0.3002  0.4077 -0.1611
  149SAPE  H11A16405   3.686   4.895   6.870 -0.3435  1.2881  0.2946
  149SAPE  H11B16406   3.770   5.018   6.796  1.0941 -1.3628  2.8850
  149SAPE     P16407   3.814   4.736   6.679  0.2578 -0.0621  0.0836
  149SAPE   O1316408   3.729   4.613   6.684 -0.0409  0.3206 -0.1015
  149SAPE   O1416409   3.917   4.738   6.576 -0.4190 -0.6025  0.1220
  149SAPE   O1216410   3.729   4.863   6.665  0.0904 -0.3902  0.5676
  149SAPE   O1116411   3.874   4.746   6.822  0.7350 -0.4243  0.3685
  149SAPE    C116412   3.979   4.840   6.842  0.3661 -0.7210  0.0443
  149SAPE    HA16413   3.994   4.913   6.760 -1.4850 -1.3077 -0.8568
  149SAPE    HB16414   3.969   4.900   6.935  1.0409  0.3118 -0.5340
  149SAPE    C216415   4.115   4.763   6.840 -0.0829 -0.5252  0.5802
  149SAPE    HS16416   4.122   4.703   6.747  2.4130 -1.6434  1.3709
  149SAPE   O2116417   4.116   4.663   6.949  0.4076 -0.2428  0.2826
  149SAPE   C2116418   4.202   4.574   6.934 -0.6475  0.1728  0.5734
  149SAPE   O2216419   4.287   4.561   6.849 -0.5696 -0.0588  0.1593
  149SAPE   C2216420   4.181   4.466   7.047  0.4663 -0.3379 -0.0302
  149SAPE   H2R16421   4.183   4.510   7.149 -1.2018 -0.1117 -0.0779
  149SAPE   H2S16422   4.083   4.420   7.023  0.0952  0.8760 -0.9115
  149SAPE    C316423   4.236   4.859   6.834 -0.5638 -0.4137  0.6614
  149SAPE    HX16424   4.236   4.909   6.735 -1.0823 -0.1005  0.8122
  149SAPE    HY16425   4.327   4.797   6.824 -0.4493 -0.1800  0.2146
  149SAPE   O3116426   4.253   4.951   6.947  0.0789  0.1147 -0.2546
  149SAPE   C3116427   4.198   5.075   6.928  0.0844 -0.3409 -0.5156
  149SAPE   O3216428   4.150   5.117   6.827 -0.1347  0.0506 -0.4714
  149SAPE   C3216429   4.209   5.147   7.067  0.4719 -0.2669  0.1141
  149SAPE   H2X16430   4.172   5.252   7.062  0.8267 -0.1859 -1.0054
  149SAPE   H2Y16431   4.317   5.143   7.092  0.2258 -0.1278  1.2628
  149SAPE   C2316432   4.286   4.346   7.038  0.0875 -0.1490 -0.2562
  149SAPE   H3R16433   4.292   4.303   6.936  0.8721  4.5736 -2.4458
  149SAPE   H3S16434   4.254   4.268   7.111  1.4908  0.2574  0.8390
  149SAPE   C2416435   4.429   4.399   7.083  0.3328 -0.9232  0.0646
  149SAPE   H4R16436   4.417   4.453   7.180 -1.7456 -1.7626  0.3309
  149SAPE   H4S16437   4.461   4.477   7.011  1.8286 -0.8629  0.7744
  149SAPE   C2516438   4.538   4.297   7.103  0.4004 -0.2806 -0.7654
  149SAPE   H5R16439   4.594   4.282   7.010  1.1414  2.3349 -0.8142
  149SAPE   C2616440   4.586   4.263   7.225  0.0373  0.3397  0.7074
  149SAPE   H6R16441   4.664   4.185   7.234 -1.7591 -1.6214  0.2912
  149SAPE   C2716442   4.532   4.303   7.359 -0.9582  0.3963 -0.0598
  149SAPE   H7R16443   4.583   4.394   7.395 -1.7561  0.2087  1.6255
  149SAPE   H7S16444   4.584   4.230   7.425  1.9421  2.4234  0.0665
  149SAPE   C2816445   4.386   4.298   7.388  0.6632 -0.0715  0.0686
  149SAPE   H8R16446   4.314   4.255   7.317 -3.4195 -0.9470  4.2403
  149SAPE   C2916447   4.332   4.327   7.507 -0.7845  0.5998 -0.0666
  149SAPE   H9R16448   4.223   4.315   7.520 -0.7390  0.3617  0.1223
  149SAPE  C21016449   4.412   4.373   7.628  0.4878  0.1115  0.4517
  149SAPE  H10R16450   4.519   4.382   7.600  0.5646  0.0205  0.7214
  149SAPE  H10S16451   4.401   4.296   7.707 -0.3539  0.7923  1.0291
  149SAPE  C21116452   4.373   4.503   7.695 -0.1495  0.1039 -0.9709
  149SAPE  H11R16453   4.318   4.574   7.632 -0.8061  0.4125 -0.0781
  149SAPE  C21216454   4.405   4.533   7.822 -0.2157 -0.4605 -1.2248
  149SAPE  H12R16455   4.357   4.623   7.866  0.6159 -0.0848 -1.0643
  149SAPE  C21316456   4.461   4.441   7.927 -0.5015  0.0803  0.6112
  149SAPE  H13R16457   4.517   4.357   7.880 -0.9605  0.0837  0.0599
  149SAPE  H13S16458   4.379   4.391   7.982 -0.6645  0.6270  0.8651
  149SAPE  C21416459   4.548   4.514   8.025 -0.0609 -0.2002 -0.0975
  149SAPE  H14R16460   4.600   4.601   7.982 -0.7284 -0.4697 -1.5156
  149SAPE  C21516461   4.546   4.495   8.155  0.1107  0.2080  0.3059
  149SAPE  H15R16462   4.592   4.577   8.213 -0.3466  0.0431  0.9058
  149SAPE  C21616463   4.472   4.407   8.246  0.3692 -0.1311 -0.2728
  149SAPE  H16R16464   4.528   4.316   8.273 -0.5357 -0.3518  0.9394
  149SAPE  H16S16465   4.380   4.368   8.197  0.1241 -0.5608  0.5110
  149SAPE  C21716466   4.441   4.476   8.383 -0.3903 -0.1456 -0.7206
  149SAPE  H17R16467   4.535   4.519   8.423  0.5385 -1.3983 -1.4963
  149SAPE  H17S16468   4.430   4.391   8.453  4.5640  0.4100  1.1585
  149SAPE  C21816469   4.327   4.582   8.363 -0.3679 -0.3848  0.7655
  149SAPE  H18R16470   4.233   4.523   8.349 -1.0924  1.0032 -0.4727
  149SAPE  H18S16471   4.345   4.648   8.276 -0.7742 -0.8080  0.3551
  149SAPE  C21916472   4.296   4.668   8.493 -0.8753  0.1550  0.1004
  149SAPE  H19R16473   4.291   4.593   8.575  0.3269 -0.2666 -0.1842
  149SAPE  H19S16474   4.204   4.729   8.483  0.2017  1.8535  0.1285
  149SAPE  C22016475   4.407   4.770   8.509  0.5922  0.0249  0.1800
  149SAPE  H20R16476   4.401   4.834   8.418 -0.3018  0.1384  0.3159
  149SAPE  H20S16477   4.508   4.725   8.518  1.2808  1.3732 -0.4143
  149SAPE  H20T16478   4.399   4.831   8.601  2.5089  1.2170 -0.3686
  149SAPE   C3316479   4.128   5.061   7.169 -0.4433  0.1821  0.2902
  149SAPE   H3X16480   4.181   4.966   7.191  0.1600  0.5559  0.4598
  149SAPE   H3Y16481   4.024   5.041   7.133  0.5977  1.3616 -3.9827
  149SAPE   C3416482   4.117   5.132   7.309  0.5587 -0.3509  0.2388
  149SAPE   H4X16483   4.024   5.090   7.354  1.1184 -0.9166  0.8923
  149SAPE   H4Y16484   4.117   5.241   7.287 -1.2750 -0.0226  1.5724
  149SAPE   C3516485   4.231   5.100   7.398 -0.2443  0.3924 -0.4574
  149SAPE   H5X16486   4.328   5.128   7.353  1.3894 -0.7086  2.1342
  149SAPE   H5Y16487   4.233   4.992   7.423 -0.5288  0.6274  0.6492
  149SAPE   C3616488   4.218   5.169   7.539 -0.2057  0.2052 -0.4176
  149SAPE   H6X16489   4.120   5.136   7.580 -0.0510  2.1826  1.7696
  149SAPE   H6Y16490   4.205   5.277   7.518  0.6786  0.5999  0.9828
  149SAPE   C3716491   4.342   5.149   7.628 -0.7307  0.4336 -0.3538
  149SAPE   H7X16492   4.438   5.183   7.585 -0.7647  0.9602 -0.0241
  149SAPE   H7Y16493   4.358   5.045   7.663 -0.1098  0.5347 -0.3170
  149SAPE   C3816494   4.327   5.231   7.757 -0.1370 -0.4702 -0.7188
  149SAPE   H8X16495   4.224   5.273   7.769 -0.2867 -1.2024  0.7999
  149SAPE   H8Y16496   4.397   5.316   7.744 -0.1112 -0.6712 -2.0822
  149SAPE   C3916497   4.368   5.147   7.887 -0.0657  0.2484 -0.4765
  149SAPE   H9X16498   4.473   5.113   7.875  1.1053  3.1635  0.5775
  149SAPE   H9Y16499   4.315   5.050   7.882  0.2527  0.0453  0.0709
  149SAPE  C31016500   4.352   5.234   8.015 -0.4747 -0.3017 -0.4480
  149SAPE  H10X16501   4.242   5.242   8.027 -0.4173  2.5374 -1.2099
  149SAPE  H10Y16502   4.401   5.330   7.989  1.1029 -0.3603  1.9593
  149SAPE  C31116503   4.425   5.173   8.133 -0.1762  0.0203 -0.1728
  149SAPE  H11X16504   4.534   5.189   8.124 -0.1183 -0.0644  0.3754
  149SAPE  H11Y16505   4.410   5.063   8.140 -1.3883  0.0915 -1.2113
  149SAPE  C31216506   4.385   5.243   8.262  0.3385 -0.0254  0.1214
  149SAPE  H12X16507   4.275   5.227   8.267  0.2299  0.5650 -0.3067
  149SAPE  H12Y16508   4.396   5.353   8.255  0.6700 -0.0664 -0.0547
  149SAPE  C31316509   4.443   5.184   8.397  0.0538  0.6388 -0.6752
  149SAPE  H13X16510   4.550   5.158   8.380  0.1048  0.4415 -0.0739
  149SAPE  H13Y16511   4.390   5.087   8.397  1.0186 -0.0372 -4.3572
  149SAPE  C31416512   4.416   5.287   8.509  0.1831 -0.1230 -0.5262
  149SAPE  H14X16513   4.319   5.338   8.492  0.4099  1.3819  2.1667
  149SAPE  H14Y16514   4.494   5.366   8.502  0.7352 -0.7673 -2.0997
  149SAPE  C31516515   4.404   5.223   8.645 -0.0996 -0.0181 -0.2771
  149SAPE  H15X16516   4.321   5.149   8.635  0.6049 -0.6201 -2.1008
  149SAPE  H15Y16517   4.370   5.311   8.703 -1.2599  0.8813 -2.2220
  149SAPE  C31616518   4.532   5.145   8.687  0.4174  0.1947  0.2907
  149SAPE  H16X16519   4.615   5.218   8.674  2.2627 -2.0908 -1.6319
  149SAPE  H16Y16520   4.562   5.055   8.630  0.5012  0.8665 -0.7424
  149SAPE  C31716521   4.539   5.104   8.828  0.4818  0.8432 -0.0591
  149SAPE  H17X16522   4.445   5.048   8.848  0.0265  0.8600 -1.9534
  149SAPE  H17Y16523   4.534   5.197   8.888  0.0477  1.9990 -1.8078
  149SAPE  C31816524   4.659   5.019   8.870 -0.0003  0.7409 -0.3540
  149SAPE  H18X16525   4.751   5.075   8.843  0.6874  1.0227  2.3351
  149SAPE  H18Y16526   4.664   4.916   8.829  0.1545 -0.0040  1.4727
  149SAPE  H18Z16527   4.668   5.003   8.979  0.8702 -0.7071 -0.6151
  150SAPE     N16528   1.994   6.453   6.716 -0.1629  0.0706 -0.0793
  150SAPE   HN116529   1.904   6.425   6.761 -1.0812  1.0461 -1.2662
  150SAPE   HN216530   2.040   6.366   6.681  0.4662 -0.0657  1.0206
  150SAPE   HN316531   2.055   6.516   6.772 -1.0522  2.6021 -1.7802
  150SAPE   C1216532   1.973   6.525   6.581  1.2517 -0.4257 -0.2455
  150SAPE  H12A16533   1.938   6.629   6.598  0.4360 -0.7669  0.2319
  150SAPE  H12B16534   1.908   6.461   6.518  1.4945 -0.1309 -0.8066
  150SAPE   C1116535   2.108   6.543   6.501  0.2132 -0.0446  0.4384
  150SAPE  H11A16536   2.159   6.632   6.542 -2.0585  1.6128 -0.1413
  150SAPE  H11B16537   2.071   6.567   6.399 -0.2749 -0.9634  0.3882
  150SAPE     P16538   2.344   6.416   6.529  0.0188  0.3705  0.5909
  150SAPE   O1316539   2.375   6.276   6.567  0.1448  0.0141 -0.7962
  150SAPE   O1416540   2.406   6.473   6.408  0.4449 -0.7028 -0.0835
  150SAPE   O1216541   2.182   6.424   6.513 -0.2532  0.3900 -0.5636
  150SAPE   O1116542   2.356   6.512   6.655 -0.1531 -0.1536  0.1166
  150SAPE    C116543   2.432   6.631   6.655 -0.4699  0.4355 -0.5541
  150SAPE    HA16544   2.391   6.712   6.590 -1.7358  0.7846  0.6246
  150SAPE    HB16545   2.435   6.655   6.763 -0.5706 -2.2394  0.1123
  150SAPE    C216546   2.588   6.601   6.629 -0.6489  0.0884  0.1595
  150SAPE    HS16547   2.593   6.568   6.523  0.0077  1.8000 -0.3677
  150SAPE   O2116548   2.617   6.491   6.717  0.0954  0.4030 -0.0214
  150SAPE   C2116549   2.734   6.433   6.718  0.3059  0.1932 -0.4190
  150SAPE   O2216550   2.834   6.471   6.662  0.5481 -0.3834 -0.3260
  150SAPE   C2216551   2.711   6.289   6.777 -0.6848  0.4127 -0.0285
  150SAPE   H2R16552   2.650   6.230   6.705  1.7908 -1.3882 -0.7888
  150SAPE   H2S16553   2.804   6.229   6.784 -0.9752 -0.1642 -0.9295
  150SAPE    C316554   2.677   6.733   6.650  0.2799  0.7357 -0.1021
  150SAPE    HX16555   2.639   6.815   6.586 -1.4822  1.7860  2.1367
  150SAPE    HY16556   2.783   6.722   6.620  0.4093  1.9615 -0.1442
  150SAPE   O3116557   2.655   6.785   6.784 -0.0138  0.2507  0.0177
  150SAPE   C3116558   2.759   6.817   6.860  0.2620  0.1880 -0.3969
  150SAPE   O3216559   2.871   6.787   6.846 -0.1256  0.7322  0.5366
  150SAPE   C3216560   2.708   6.881   6.989  0.0887 -0.4782 -0.3592
  150SAPE   H2X16561   2.634   6.811   7.033 -3.0900  2.0101 -1.3230
  150SAPE   H2Y16562   2.672   6.986   6.978  0.4712 -0.0848  1.6695
  150SAPE   C2316563   2.636   6.301   6.912 -1.0115  0.3170 -0.3335
  150SAPE   H3R16564   2.557   6.379   6.906 -2.0534 -0.7150 -0.2577
  150SAPE   H3S16565   2.699   6.333   6.998 -1.1274  1.8335 -0.7834
  150SAPE   C2416566   2.569   6.167   6.942  0.2608  0.2723 -0.4185
  150SAPE   H4R16567   2.652   6.093   6.946  0.7221  0.4652 -3.7042
  150SAPE   H4S16568   2.498   6.151   6.858 -0.3216  1.4971 -0.1890
  150SAPE   C2516569   2.484   6.182   7.071 -0.9505  0.2445  0.5490
  150SAPE   H5R16570   2.409   6.260   7.050 -0.4149  0.3765 -1.0107
  150SAPE   C2616571   2.506   6.132   7.191  0.4555  0.7489 -0.4960
  150SAPE   H6R16572   2.425   6.132   7.266 -0.8809 -2.5647 -1.7282
  150SAPE   C2716573   2.620   6.032   7.225  0.0653 -0.0399 -0.5844
  150SAPE   H7R16574   2.686   6.015   7.138  1.9666  1.6233  0.4618
  150SAPE   H7S16575   2.569   5.935   7.243  1.3434 -0.3689  1.5911
  150SAPE   C2816576   2.710   6.075   7.340 -0.0239 -0.0073 -1.1704
  150SAPE   H8R16577   2.804   6.105   7.290 -0.3949  0.1894 -1.7539
  150SAPE   C2916578   2.694   6.071   7.476 -0.1743  0.8058 -0.3791
  150SAPE   H9R16579   2.774   6.109   7.542 -0.1918  0.5992 -0.2365
  150SAPE  C21016580   2.569   6.021   7.548  0.4122 -0.1051 -0.5845
  150SAPE  H10R16581   2.492   5.986   7.475 -0.7302  0.8942  0.1024
  150SAPE  H10S16582   2.519   6.106   7.598  0.2031 -1.0660  0.9054
  150SAPE  C21116583   2.614   5.910   7.637 -0.2145  0.1878  0.7282
  150SAPE  H11R16584   2.659   5.825   7.584 -1.0490  1.1253 -1.6248
  150SAPE  C21216585   2.613   5.909   7.772 -1.3538 -0.4620  0.4229
  150SAPE  H12R16586   2.636   5.815   7.824  0.3462 -0.0906  0.3740
  150SAPE  C21316587   2.547   6.013   7.850  0.7138  0.0283  0.3189
  150SAPE  H13R16588   2.544   6.113   7.801  1.0948 -0.0338  0.1602
  150SAPE  H13S16589   2.608   6.038   7.940  1.8482  0.6289 -0.5900
  150SAPE  C21416590   2.401   5.972   7.882 -0.2388  0.3597  0.3874
  150SAPE  H14R16591   2.332   5.966   7.796 -1.8913 -0.0674  1.6894
  150SAPE  C21516592   2.342   5.949   7.994  0.6848 -0.5349 -0.5190
  150SAPE  H15R16593   2.238   5.915   8.002  0.0036  1.7488  1.3124
  150SAPE  C21616594   2.409   5.962   8.129 -0.4141 -0.0609 -0.1899
  150SAPE  H16R16595   2.326   5.939   8.198 -0.4027 -1.5112 -0.6260
  150SAPE  H16S16596   2.450   6.065   8.140  0.7679 -0.2849 -1.9315
  150SAPE  C21716597   2.521   5.856   8.150 -0.1771 -0.0933 -0.1563
  150SAPE  H17R16598   2.622   5.878   8.110  0.9049  0.3621  2.6185
  150SAPE  H17S16599   2.500   5.759   8.100  1.2555 -0.2607 -0.4953
  150SAPE  C21816600   2.551   5.833   8.294  0.7497  0.1521 -1.3040
  150SAPE  H18R16601   2.603   5.739   8.323 -0.4526  0.6998  3.5161
  150SAPE  H18S16602   2.456   5.844   8.351  2.3414 -1.1705  1.8859
  150SAPE  C21916603   2.641   5.945   8.372  0.4152  0.3934  0.9230
  150SAPE  H19R16604   2.592   6.045   8.367  0.4018  0.3309 -2.0179
  150SAPE  H19S16605   2.731   5.972   8.312 -0.5543  0.5083 -0.5466
  150SAPE  C22016606   2.685   5.903   8.508  0.8801 -0.1243  0.0531
  150SAPE  H20R16607   2.603   5.855   8.566  1.3152  0.1742  0.9447
  150SAPE  H20S16608   2.732   5.984   8.569  0.2871 -0.8839  1.5697
  150SAPE  H20T16609   2.762   5.824   8.500  0.8686 -0.1361  0.0603
  150SAPE   C3316610   2.817   6.896   7.089  0.1966 -0.7803  0.1133
  150SAPE   H3X16611   2.901   6.956   7.047  0.1066 -1.7951 -1.5633
  150SAPE   H3Y16612   2.863   6.795   7.091 -1.9375 -1.7939  1.7051
  150SAPE   C3416613   2.758   6.950   7.220 -0.1453 -0.4333 -0.6521
  150SAPE   H4X16614   2.657   6.911   7.244 -0.3058  1.3598  2.1964
  150SAPE   H4Y16615   2.747   7.059   7.203 -0.5315 -0.6173 -1.6346
  150SAPE   C3516616   2.839   6.946   7.347  0.2241  0.6757  0.1436
  150SAPE   H5X16617   2.939   6.993   7.334 -0.4877  2.4986  0.9361
  150SAPE   H5Y16618   2.853   6.843   7.385 -1.2234  0.8360  1.1672
  150SAPE   C3616619   2.777   7.026   7.468  0.6227  0.1623  0.0343
  150SAPE   H6X16620   2.674   6.988   7.481  0.9691 -0.1664  2.1523
  150SAPE   H6Y16621   2.776   7.136   7.449  0.0421  0.2660  0.6183
  150SAPE   C3716622   2.858   6.989   7.597  0.1791  0.3471 -0.6507
  150SAPE   H7X16623   2.968   6.993   7.586  0.4688 -0.2497  1.5842
  150SAPE   H7Y16624   2.835   6.881   7.606  1.6639 -0.1232 -2.0176
  150SAPE   C3816625   2.805   7.051   7.729  0.1375 -0.3502  0.7001
  150SAPE   H8X16626   2.701   7.089   7.725  0.1699 -0.3477 -2.1942
  150SAPE   H8Y16627   2.863   7.142   7.756  0.1648 -0.6508  1.6650
  150SAPE   C3916628   2.812   6.966   7.855 -0.5759  0.4100 -0.1698
  150SAPE   H9X16629   2.914   6.957   7.898 -0.6495 -2.2433 -0.3753
  150SAPE   H9Y16630   2.786   6.862   7.826 -3.9646  1.7819 -2.6688
  150SAPE  C31016631   2.722   7.012   7.962  1.1867 -0.3001 -0.1552
  150SAPE  H10X16632   2.618   7.018   7.923 -0.0235  1.2315  2.9564
  150SAPE  H10Y16633   2.755   7.116   7.985 -0.1549  0.2329 -0.5596
  150SAPE  C31116634   2.739   6.925   8.087 -0.1657  0.3357  0.0187
  150SAPE  H11X16635   2.734   6.819   8.054  2.6655 -0.7606  2.6074
  150SAPE  H11Y16636   2.647   6.934   8.149  0.0595 -2.2696  0.8572
  150SAPE  C31216637   2.868   6.941   8.168  0.9035  1.0784 -0.1390
  150SAPE  H12X16638   2.861   7.047   8.201  2.1164  1.2989 -0.5496
  150SAPE  H12Y16639   2.964   6.916   8.118  0.2829 -1.4059 -0.2222
  150SAPE  C31316640   2.864   6.862   8.301  0.2736 -0.3810  0.0476
  150SAPE  H13X16641   2.853   6.753   8.279 -1.4404 -0.3867  0.7778
  150SAPE  H13Y16642   2.783   6.902   8.366  0.8595  0.1251  0.4814
  150SAPE  C31416643   2.996   6.876   8.376  0.0565  0.1375 -0.8189
  150SAPE  H14X16644   3.024   6.984   8.368 -1.5106  0.5446 -1.0762
  150SAPE  H14Y16645   3.070   6.822   8.313 -0.8488 -1.8199 -0.2576
  150SAPE  C31516646   2.996   6.827   8.523 -0.3060 -0.2669 -0.4057
  150SAPE  H15X16647   3.003   6.716   8.525  2.2706 -0.2507 -2.4095
  150SAPE  H15Y16648   2.899   6.847   8.572 -0.7822  0.2092 -1.5201
  150SAPE  C31616649   3.123   6.885   8.601  0.3402 -0.1890  0.2339
  150SAPE  H16X16650   3.120   6.995   8.590 -0.3935 -0.0828  1.3547
  150SAPE  H16Y16651   3.221   6.842   8.570  0.7358  0.4427  0.5833
  150SAPE  C31716652   3.104   6.856   8.748  0.2755 -0.8650 -0.2264
  150SAPE  H17X16653   3.107   6.746   8.761 -1.3806 -1.1725 -1.9478
  150SAPE  H17Y16654   3.005   6.895   8.780  0.2792 -1.5938  0.7118
  150SAPE  C31816655   3.205   6.939   8.833  0.2605  0.3497  0.2026
  150SAPE  H18X16656   3.208   7.048   8.810  0.0446  0.4588  0.6771
  150SAPE  H18Y16657   3.305   6.892   8.823 -1.4321 -3.6970  0.6191
  150SAPE  H18Z16658   3.183   6.929   8.942  2.8472 -0.5066  0.7165
  151SAPE     N16659   2.456   5.191   6.626  0.1279 -0.2261  0.5694
  151SAPE   HN116660   2.406   5.265   6.679 -0.4130  1.6810 -2.4241
  151SAPE   HN216661   2.557   5.203   6.649  0.4864 -0.5718 -0.7712
  151SAPE   HN316662   2.446   5.207   6.524 -1.4657  0.0780  0.7577
  151SAPE   C1216663   2.407   5.057   6.674  0.2347 -1.0100  0.6177
  151SAPE  H12A16664   2.296   5.060   6.662  0.3226  1.7047 -0.0225
  151SAPE  H12B16665   2.406   5.056   6.785 -2.3881  2.3353  0.7873
  151SAPE   C1116666   2.498   4.944   6.615  0.2382 -0.1486  0.6946
  151SAPE  H11A16667   2.442   4.851   6.640  1.1334 -0.8729  0.0636
  151SAPE  H11B16668   2.590   4.929   6.676 -0.2145 -0.1023  1.4039
  151SAPE     P16669   2.650   4.922   6.401 -0.4169  0.0095 -0.0480
  151SAPE   O1316670   2.632   4.917   6.256  0.0137  0.4726  0.1473
  151SAPE   O1416671   2.755   5.013   6.444  0.2089  0.0028  0.5434
  151SAPE   O1216672   2.516   4.963   6.475  0.0470  0.4448  0.2052
  151SAPE   O1116673   2.691   4.780   6.457  0.0700 -0.2178  0.2121
  151SAPE    C116674   2.608   4.663   6.438  0.7955 -0.3393 -0.3214
  151SAPE    HA16675   2.515   4.683   6.380  0.0648 -0.4898  0.7681
  151SAPE    HB16676   2.670   4.581   6.396 -0.5127 -1.9227  0.7403
  151SAPE    C216677   2.560   4.595   6.574 -0.6246 -0.0362 -0.2783
  151SAPE    HS16678   2.486   4.667   6.616 -1.7530 -1.1556 -0.2769
  151SAPE   O2116679   2.678   4.585   6.658 -0.1364 -0.5961 -0.0198
  151SAPE   C2116680   2.655   4.588   6.789  0.1613  0.3461  0.4951
  151SAPE   O2216681   2.549   4.604   6.846  0.0142 -0.1793  0.0648
  151SAPE   C2216682   2.785   4.599   6.856 -0.8785 -0.7181  0.2140
  151SAPE   H2R16683   2.807   4.499   6.898  1.9783 -0.8246 -1.3052
  151SAPE   H2S16684   2.864   4.621   6.781 -1.8939 -0.7497 -0.8967
  151SAPE    C316685   2.502   4.452   6.548 -0.0214  0.9375  0.0253
  151SAPE    HX16686   2.579   4.395   6.493  0.2409  1.9876 -0.7152
  151SAPE    HY16687   2.415   4.458   6.479 -0.7877 -0.0617  0.8722
  151SAPE   O3116688   2.447   4.404   6.673  1.0589  1.0190  0.3880
  151SAPE   C3116689   2.506   4.311   6.743  0.0843 -0.6150 -0.9439
  151SAPE   O3216690   2.616   4.266   6.713 -0.1453  0.9523 -0.2819
  151SAPE   C3216691   2.426   4.273   6.861 -0.3363 -0.0915 -0.4136
  151SAPE   H2X16692   2.367   4.181   6.842 -1.3391  0.1500  1.3389
  151SAPE   H2Y16693   2.356   4.353   6.893 -0.3642 -0.5850  0.7928
  151SAPE   C2316694   2.798   4.709   6.969 -0.1994 -0.6356  0.1106
  151SAPE   H3R16695   2.734   4.797   6.950  0.3274 -0.4111 -0.6461
  151SAPE   H3S16696   2.901   4.747   6.986 -0.2967  0.2197 -1.1147
  151SAPE   C2416697   2.774   4.654   7.112 -0.0082 -0.2556  0.1527
  151SAPE   H4R16698   2.841   4.567   7.129  1.3881  0.7637 -0.0728
  151SAPE   H4S16699   2.666   4.625   7.120  0.2742 -0.9183  2.7572
  151SAPE   C2516700   2.807   4.747   7.225  0.0456  0.1967  0.0448
  151SAPE   H5R16701   2.768   4.848   7.210  0.9813  0.3996 -1.1792
  151SAPE   C2616702   2.879   4.706   7.334 -0.5598  0.1525  0.8260
  151SAPE   H6R16703   2.893   4.779   7.416  0.4188  2.5447 -1.3218
  151SAPE   C2716704   2.942   4.575   7.369  0.0190 -0.1129 -0.3328
  151SAPE   H7R16705   2.968   4.530   7.271 -1.3643 -1.0817 -0.2828
  151SAPE   H7S16706   2.865   4.507   7.410 -1.3372  1.8598  0.5631
  151SAPE   C2816707   3.068   4.577   7.453  0.1466  0.2909 -0.4035
  151SAPE   H8R16708   3.161   4.618   7.409  1.5806 -2.3431 -0.0461
  151SAPE   C2916709   3.082   4.516   7.567  0.2944 -0.0261 -0.6463
  151SAPE   H9R16710   3.181   4.531   7.613 -0.0348 -0.7151  0.3378
  151SAPE  C21016711   2.980   4.435   7.650 -0.0731  0.7656 -0.1499
  151SAPE  H10R16712   3.018   4.335   7.679 -0.2982  1.2556  1.9905
  151SAPE  H10S16713   2.897   4.405   7.583  1.4313 -0.2927 -1.6248
  151SAPE  C21116714   2.935   4.502   7.774 -0.0844  0.2298  0.1680
  151SAPE  H11R16715   2.826   4.518   7.774  0.0411  1.3770  2.1671
  151SAPE  C21216716   3.000   4.541   7.879 -0.5590 -0.1528  0.1065
  151SAPE  H12R16717   2.947   4.598   7.956 -2.0460 -1.7800  0.3586
  151SAPE  C21316718   3.149   4.533   7.909 -0.3906  0.1998  0.8929
  151SAPE  H13R16719   3.195   4.620   7.960  2.0074 -1.0055  0.9158
  151SAPE  H13S16720   3.221   4.514   7.827  0.3184  2.3491  0.9508
  151SAPE  C21416721   3.175   4.423   8.008 -0.1919 -0.6860  0.5501
  151SAPE  H14R16722   3.238   4.344   7.965  1.9989  0.5903  1.2121
  151SAPE  C21516723   3.149   4.410   8.137 -0.3885 -0.4984 -1.1838
  151SAPE  H15R16724   3.172   4.319   8.194 -1.3386 -0.4883 -0.7628
  151SAPE  C21616725   3.073   4.510   8.223 -0.1748 -0.0673  0.0642
  151SAPE  H16R16726   3.002   4.568   8.162 -1.9698 -2.7549 -0.5947
  151SAPE  H16S16727   3.145   4.585   8.261 -0.8012  1.2024 -1.1984
  151SAPE  C21716728   2.997   4.457   8.350 -0.2716 -0.1137 -0.2337
  151SAPE  H17R16729   3.067   4.411   8.423 -0.5416  0.8403  0.6377
  151SAPE  H17S16730   2.925   4.387   8.302 -1.1567  1.0132 -0.5873
  151SAPE  C21816731   2.909   4.559   8.420 -0.3159 -0.5863 -0.8144
  151SAPE  H18R16732   2.830   4.588   8.348 -1.1287 -0.8749 -0.0549
  151SAPE  H18S16733   2.973   4.641   8.460  1.1264 -1.8934 -0.3537
  151SAPE  C21916734   2.835   4.494   8.542  0.4638  0.3059  0.0202
  151SAPE  H19R16735   2.914   4.459   8.611  1.0398  0.4390 -0.5624
  151SAPE  H19S16736   2.782   4.409   8.495  1.4694 -0.3400  0.0354
  151SAPE  C22016737   2.714   4.568   8.609  0.1655 -0.3474 -0.8421
  151SAPE  H20R16738   2.693   4.519   8.706 -0.3459 -0.1421 -0.8450
  151SAPE  H20S16739   2.740   4.673   8.634 -0.7841  0.4638 -2.9948
  151SAPE  H20T16740   2.630   4.561   8.536 -1.3636 -1.8279  0.9577
  151SAPE   C3316741   2.531   4.256   6.980  0.0036  0.2094 -1.1034
  151SAPE   H3X16742   2.617   4.325   6.972  0.8359 -0.7117 -0.3239
  151SAPE   H3Y16743   2.567   4.151   6.971 -3.3221 -1.2764  1.0367
  151SAPE   C3416744   2.460   4.281   7.112  0.5415 -0.0858  0.1659
  151SAPE   H4X16745   2.367   4.220   7.113  0.9836 -0.7792 -0.1883
  151SAPE   H4Y16746   2.437   4.389   7.129  0.9369 -0.2164  1.6772
  151SAPE   C3516747   2.544   4.239   7.232  0.4763  0.4670  0.2490
  151SAPE   H5X16748   2.642   4.290   7.222 -0.0040  1.3872  0.0889
  151SAPE   H5Y16749   2.560   4.130   7.235 -0.1914  0.3698  2.8866
  151SAPE   C3616750   2.471   4.263   7.370 -0.7036  0.4899 -0.3405
  151SAPE   H6X16751   2.370   4.219   7.362 -1.6530  2.2085  1.3133
  151SAPE   H6Y16752   2.452   4.372   7.384  1.5788  0.7637  1.2886
  151SAPE   C3716753   2.566   4.216   7.480 -0.1893 -0.4456 -0.0053
  151SAPE   H7X16754   2.659   4.277   7.478 -1.1509  1.1636  1.3222
  151SAPE   H7Y16755   2.588   4.108   7.469  0.0979 -0.4121  0.2357
  151SAPE   C3816756   2.497   4.246   7.617 -0.4453 -0.4810 -0.7364
  151SAPE   H8X16757   2.398   4.196   7.617 -1.5721  1.6431 -0.1474
  151SAPE   H8Y16758   2.497   4.357   7.616  0.0273 -0.4713 -0.1413
  151SAPE   C3916759   2.584   4.196   7.741  0.1028  1.1208  0.2850
  151SAPE   H9X16760   2.673   4.263   7.743  0.3940  0.7193  0.9500
  151SAPE   H9Y16761   2.606   4.087   7.737  1.7981  1.4555 -1.1178
  151SAPE  C31016762   2.504   4.225   7.867  0.4202  0.1400  1.1824
  151SAPE  H10X16763   2.406   4.172   7.867  0.2448  0.2324 -2.6593
  151SAPE  H10Y16764   2.472   4.331   7.856 -1.4414 -0.6387 -2.6272
  151SAPE  C31116765   2.572   4.188   8.003  0.0509  0.3476  0.2131
  151SAPE  H11X16766   2.584   4.078   8.010  0.0241  0.2344 -1.2367
  151SAPE  H11Y16767   2.515   4.229   8.089 -1.2069 -1.3351  0.2370
  151SAPE  C31216768   2.714   4.238   8.019 -0.6052 -0.3858 -0.0551
  151SAPE  H12X16769   2.709   4.347   8.040  0.9676 -0.0648 -1.1729
  151SAPE  H12Y16770   2.768   4.231   7.922 -0.2366  1.0514  0.0153
  151SAPE  C31316771   2.801   4.156   8.113 -0.1398 -0.2381 -0.2188
  151SAPE  H13X16772   2.909   4.178   8.123 -0.4306  1.0330  0.3885
  151SAPE  H13Y16773   2.805   4.055   8.067  0.2699  0.6201 -2.1652
  151SAPE  C31416774   2.748   4.144   8.260  0.2670  0.2783 -0.2857
  151SAPE  H14X16775   2.656   4.082   8.259 -0.8878  1.9137  0.4215
  151SAPE  H14Y16776   2.722   4.248   8.289  2.9013  0.7708  0.5927
  151SAPE  C31516777   2.858   4.098   8.348  0.6216  0.2342 -0.0523
  151SAPE  H15X16778   2.946   4.167   8.346 -1.0725  2.4707 -1.3438
  151SAPE  H15Y16779   2.886   3.994   8.322 -0.9001 -0.4127  0.7943
  151SAPE  C31616780   2.807   4.096   8.489  0.0495 -0.5477  0.6832
  151SAPE  H16X16781   2.704   4.054   8.490  0.0959 -0.6852  0.0728
  151SAPE  H16Y16782   2.797   4.199   8.530  0.4865  0.7375 -2.1930
  151SAPE  C31716783   2.901   4.010   8.580  0.0700 -0.6465 -0.5749
  151SAPE  H17X16784   2.890   3.908   8.540 -1.2969 -0.3588 -0.9904
  151SAPE  H17Y16785   2.853   4.016   8.680 -0.3093 -0.4757 -0.7659
  151SAPE  C31816786   3.044   4.056   8.575  0.0808 -0.3753  0.1282
  151SAPE  H18X16787   3.077   4.053   8.469 -1.4835 -0.8579 -0.3808
  151SAPE  H18Y16788   3.102   3.987   8.640 -0.2217 -0.1848  0.6048
  151SAPE  H18Z16789   3.057   4.159   8.615  0.8072 -0.3891 -0.0675
  152SAPE     N16790   3.988   2.018   6.588 -0.1084 -0.2243  0.6837
  152SAPE   HN116791   3.994   2.031   6.691  2.7660 -2.6580  0.9714
  152SAPE   HN216792   4.060   2.071   6.535 -1.9835  1.2248 -0.5357
  152SAPE   HN316793   3.901   2.064   6.553  0.0026 -0.6063 -0.1222
  152SAPE   C1216794   4.007   1.871   6.561 -0.3673 -0.6102  0.3183
  152SAPE  H12A16795   4.110   1.848   6.597  0.1879 -1.5610 -1.7234
  152SAPE  H12B16796   3.993   1.869   6.451 -0.8183 -0.3885  0.3687
  152SAPE   C1116797   3.908   1.784   6.634  0.8304  0.4070 -0.0509
  152SAPE  H11A16798   3.918   1.804   6.743  0.6224 -0.6648  0.1690
  152SAPE  H11B16799   3.941   1.681   6.610 -2.1217 -0.5695 -0.3323
  152SAPE     P16800   3.716   1.736   6.470  0.2056 -0.2948  0.1417
  152SAPE   O1316801   3.583   1.784   6.440 -0.2349  0.5957 -0.2038
  152SAPE   O1416802   3.819   1.731   6.363 -0.1760  0.0350  0.0895
  152SAPE   O1216803   3.774   1.812   6.593  0.3294 -0.2818  0.6720
  152SAPE   O1116804   3.705   1.591   6.532  0.0454  0.0098  0.2734
  152SAPE    C116805   3.605   1.566   6.631  0.2293  0.4315  0.1161
  152SAPE    HA16806   3.572   1.660   6.680 -2.7471 -1.3442  1.8029
  152SAPE    HB16807   3.519   1.523   6.576  1.8054  0.2710 -2.3666
  152SAPE    C216808   3.645   1.464   6.739 -0.0055 -0.3920 -0.1270
  152SAPE    HS16809   3.660   1.517   6.835 -0.2431  0.1995 -0.4102
  152SAPE   O2116810   3.762   1.386   6.705 -0.0869  0.2410  0.2289
  152SAPE   C2116811   3.878   1.437   6.721 -0.4494 -0.7474 -0.1461
  152SAPE   O2216812   3.902   1.538   6.787  0.0376  0.4030  0.3289
  152SAPE   C2216813   3.984   1.347   6.655 -0.1910  0.4801  0.2880
  152SAPE   H2R16814   3.948   1.243   6.671  0.7574  0.1303  0.1871
  152SAPE   H2S16815   3.989   1.370   6.546 -1.8617 -0.2054  0.0367
  152SAPE    C316816   3.538   1.355   6.765 -0.9882 -0.1749  0.5181
  152SAPE    HX16817   3.558   1.279   6.687  0.9496 -0.8316  1.5742
  152SAPE    HY16818   3.435   1.396   6.752 -0.7070  0.2402 -0.4502
  152SAPE   O3116819   3.561   1.280   6.895 -0.4281 -0.5625 -0.5703
  152SAPE   C3116820   3.514   1.360   6.995  0.2200  0.2609 -0.7208
  152SAPE   O3216821   3.471   1.473   6.979 -0.5666 -0.8361 -0.0404
  152SAPE   C3216822   3.534   1.290   7.136  0.4701  0.4094  0.4150
  152SAPE   H2X16823   3.632   1.322   7.177 -0.0943  1.1371  1.2241
  152SAPE   H2Y16824   3.528   1.179   7.137  1.6468  0.3405  2.0176
  152SAPE   C2316825   4.129   1.363   6.715 -0.1224 -0.2742  0.3350
  152SAPE   H3R16826   4.140   1.335   6.822  0.3923  0.5808  0.5185
  152SAPE   H3S16827   4.160   1.468   6.695  0.1867 -0.7152 -1.7280
  152SAPE   C2416828   4.236   1.276   6.642  0.2784 -0.3188  0.4749
  152SAPE   H4R16829   4.232   1.297   6.533 -0.4693  1.7253  0.8352
  152SAPE   H4S16830   4.211   1.170   6.666  0.2745 -0.6859 -1.0410
  152SAPE   C2516831   4.370   1.307   6.705 -0.0894  0.3713  0.1176
  152SAPE   H5R16832   4.400   1.412   6.694  1.7100 -0.0989  0.2198
  152SAPE   C2616833   4.455   1.221   6.765  0.9637 -0.2893 -0.7937
  152SAPE   H6R16834   4.553   1.264   6.791 -0.1061  2.5515 -1.0401
  152SAPE   C2716835   4.429   1.068   6.789 -0.0541  0.2360 -0.9698
  152SAPE   H7R16836   4.512   1.011   6.741 -2.5784 -3.0931 -1.7289
  152SAPE   H7S16837   4.341   1.021   6.741 -1.8912  2.2098  0.2942
  152SAPE   C2816838   4.431   1.036   6.936  0.2844 -0.6828  0.1523
  152SAPE   H8R16839   4.531   1.012   6.977  0.4218 -0.3797 -0.0009
  152SAPE   C2916840   4.327   1.049   7.017  0.8066 -0.0766 -0.5580
  152SAPE   H9R16841   4.340   1.026   7.124  3.1054  0.1757 -0.7396
  152SAPE  C21016842   4.185   1.092   6.972  0.1317  1.0212 -0.4400
  152SAPE  H10R16843   4.108   1.013   6.982 -0.7049  1.9843  1.3336
  152SAPE  H10S16844   4.168   1.119   6.866  0.2326  2.1751 -0.1798
  152SAPE  C21116845   4.154   1.210   7.068  0.8207  0.6424  0.8971
  152SAPE  H11R16846   4.241   1.278   7.069  0.9870  0.4847 -0.6573
  152SAPE  C21216847   4.043   1.222   7.147  0.8348 -0.0761  0.6502
  152SAPE  H12R16848   4.042   1.315   7.205  1.7588  0.4915 -0.1943
  152SAPE  C21316849   3.925   1.131   7.144  0.1832  1.4658  0.4353
  152SAPE  H13R16850   3.918   1.079   7.046 -1.7507 -0.0063  1.2764
  152SAPE  H13S16851   3.833   1.192   7.154  0.7087  2.4522 -0.5729
  152SAPE  C21416852   3.921   1.025   7.250  0.0871 -0.0427 -0.6213
  152SAPE  H14R16853   3.972   0.929   7.232 -1.2549 -1.1696  1.1910
  152SAPE  C21516854   3.868   1.038   7.372 -0.1074 -0.2756  0.7294
  152SAPE  H15R16855   3.869   0.946   7.431  0.3811 -1.2902 -0.7924
  152SAPE  C21616856   3.798   1.158   7.419  0.6361  0.3075  0.4308
  152SAPE  H16R16857   3.701   1.170   7.366  0.7403 -2.0438 -0.4083
  152SAPE  H16S16858   3.852   1.249   7.386  1.5841 -0.1210  0.7741
  152SAPE  C21716859   3.776   1.174   7.572 -0.0057 -0.4812  0.1348
  152SAPE  H17R16860   3.733   1.276   7.578 -0.1472 -0.5769  0.9959
  152SAPE  H17S16861   3.874   1.173   7.625  0.2967  0.8530 -0.3633
  152SAPE  C21816862   3.693   1.063   7.627  0.6648  0.1777  0.6800
  152SAPE  H18R16863   3.733   0.963   7.600  0.7547  0.1230  1.0029
  152SAPE  H18S16864   3.594   1.056   7.577  1.0280 -2.4183  0.2022
  152SAPE  C21916865   3.674   1.074   7.779  0.6030  0.0950  0.1482
  152SAPE  H19R16866   3.652   1.181   7.799  0.6191  0.4062 -1.3401
  152SAPE  H19S16867   3.771   1.051   7.828  0.7728 -1.8926 -1.0015
  152SAPE  C22016868   3.568   0.977   7.836  0.0863  0.3434 -0.3964
  152SAPE  H20R16869   3.593   0.868   7.840  1.5439  0.6764  2.6312
  152SAPE  H20S16870   3.467   0.986   7.792 -0.6485 -2.7229  0.4291
  152SAPE  H20T16871   3.557   0.987   7.946 -0.6054 -1.4666 -0.2610
  152SAPE   C3316872   3.436   1.351   7.240  0.1843  0.2413 -0.0534
  152SAPE   H3X16873   3.331   1.339   7.207  0.4090 -1.8701 -0.1134
  152SAPE   H3Y16874   3.449   1.461   7.247  0.4709  0.1601  0.8631
  152SAPE   C3416875   3.455   1.304   7.380  0.0799  0.1858 -0.1658
  152SAPE   H4X16876   3.555   1.334   7.417 -0.5105  4.2634 -1.4157
  152SAPE   H4Y16877   3.443   1.193   7.384  0.7079  0.1337  0.4622
  152SAPE   C3516878   3.348   1.351   7.487 -0.4716  0.0951  0.6045
  152SAPE   H5X16879   3.249   1.311   7.456  0.0953 -0.6833 -0.2353
  152SAPE   H5Y16880   3.352   1.462   7.486 -2.4998  0.2330  1.9027
  152SAPE   C3616881   3.370   1.298   7.629 -0.9751  0.1873 -0.1018
  152SAPE   H6X16882   3.477   1.325   7.644 -0.6711 -0.3615 -1.1593
  152SAPE   H6Y16883   3.379   1.188   7.643  5.0215  0.6456  3.1178
  152SAPE   C3716884   3.278   1.346   7.746  0.3374  0.4423  0.0203
  152SAPE   H7X16885   3.318   1.303   7.841 -2.7095  0.6827  1.5296
  152SAPE   H7Y16886   3.177   1.307   7.722 -0.0334  0.5810  1.2872
  152SAPE   C3816887   3.271   1.500   7.763 -0.2922  0.5154 -0.3158
  152SAPE   H8X16888   3.227   1.535   7.667  1.6034  2.3324 -0.5923
  152SAPE   H8Y16889   3.374   1.541   7.775 -0.3296  0.8594 -1.1035
  152SAPE   C3916890   3.182   1.540   7.879 -0.5527  0.5991  0.0913
  152SAPE   H9X16891   3.112   1.455   7.894 -1.4191  1.2289 -0.2744
  152SAPE   H9Y16892   3.115   1.621   7.843 -1.7270 -1.2784 -2.2457
  152SAPE  C31016893   3.257   1.570   8.012 -0.0037 -0.0043  0.4097
  152SAPE  H10X16894   3.189   1.614   8.088 -0.6912  0.1393 -0.2689
  152SAPE  H10Y16895   3.347   1.634   8.000  1.6416 -2.0385  1.3120
  152SAPE  C31116896   3.307   1.443   8.083 -0.6670  0.1235  0.0054
  152SAPE  H11X16897   3.252   1.355   8.043  0.8630 -1.5555  1.4485
  152SAPE  H11Y16898   3.281   1.453   8.190  0.3889  2.9806  0.0962
  152SAPE  C31216899   3.457   1.420   8.072 -0.1353  0.4695  0.1332
  152SAPE  H12X16900   3.515   1.493   8.132 -1.1085  0.8521  0.6414
  152SAPE  H12Y16901   3.481   1.436   7.965  1.7450  2.4874  0.7647
  152SAPE  C31316902   3.501   1.279   8.106  0.1306 -0.3790 -0.1105
  152SAPE  H13X16903   3.610   1.259   8.099  0.1979 -1.0581  2.1221
  152SAPE  H13Y16904   3.445   1.209   8.041  1.7335  0.0071 -1.9867
  152SAPE  C31416905   3.462   1.243   8.248  0.7293  0.4149 -0.1306
  152SAPE  H14X16906   3.361   1.282   8.274  0.0461 -0.7447 -0.9581
  152SAPE  H14Y16907   3.533   1.288   8.321  0.2777  2.2188 -0.7418
  152SAPE  C31516908   3.456   1.090   8.266  0.6754  0.1493  0.0758
  152SAPE  H15X16909   3.377   1.040   8.206  1.0573  0.2113 -0.4894
  152SAPE  H15Y16910   3.430   1.068   8.371 -0.0661 -1.1157 -0.3537
  152SAPE  C31616911   3.589   1.027   8.241 -0.0986 -0.2859 -0.7139
  152SAPE  H16X16912   3.675   1.068   8.297  0.4211 -1.0546 -0.9280
  152SAPE  H16Y16913   3.619   1.024   8.134 -0.6978 -2.5356 -0.8892
  152SAPE  C31716914   3.580   0.877   8.273  0.3764  0.6416  0.0533
  152SAPE  H17X16915   3.674   0.835   8.230  0.6163 -0.0725  1.2336
  152SAPE  H17Y16916   3.498   0.826   8.217  2.0285  1.0081 -2.8899
  152SAPE  C31816917   3.581   0.841   8.425 -0.3254  0.6511  0.4565
  152SAPE  H18X16918   3.668   0.886   8.476  0.2108  2.6871 -2.0305
  152SAPE  H18Y16919   3.574   0.733   8.452  1.1725  1.0582  2.7341
  152SAPE  H18Z16920   3.499   0.891   8.479 -1.3770  0.1457 -0.6232
  153SAPE     N16921   5.712   0.742   6.032 -0.0341 -0.4006 -0.5089
  153SAPE   HN116922   5.722   0.673   6.109 -1.1035  1.0677  1.0129
  153SAPE   HN216923   5.614   0.723   6.004 -0.3567 -1.1223  0.9925
  153SAPE   HN316924   5.789   0.726   5.964  0.4578 -0.5122  0.0569
  153SAPE   C1216925   5.724   0.883   6.086  0.2648  0.2255 -0.2262
  153SAPE  H12A16926   5.697   0.959   6.009  2.8160  0.6277 -0.8152
  153SAPE  H12B16927   5.833   0.894   6.107  0.5060 -2.1442  0.1177
  153SAPE   C1116928   5.665   0.899   6.226 -0.3234  0.5229 -0.0098
  153SAPE  H11A16929   5.554   0.896   6.221 -0.3057 -0.9934  0.0261
  153SAPE  H11B16930   5.688   1.002   6.261 -0.9275  0.6292  0.0809
  153SAPE     P16931   5.829   0.832   6.426  0.2667 -0.2315 -0.0934
  153SAPE   O1316932   5.859   0.703   6.493  0.0070  0.0415  0.1997
  153SAPE   O1416933   5.944   0.904   6.374 -0.8982 -0.2220  0.4230
  153SAPE   O1216934   5.717   0.798   6.315  0.0699  0.2444  0.2494
  153SAPE   O1116935   5.750   0.916   6.535 -0.4993  0.2303 -0.0717
  153SAPE    C116936   5.624   0.865   6.576 -0.6310  0.1570 -0.0944
  153SAPE    HA16937   5.549   0.852   6.494  0.0764  2.1115 -1.1054
  153SAPE    HB16938   5.647   0.771   6.632 -0.8632 -0.6593 -1.3144
  153SAPE    C216939   5.553   0.973   6.676  0.3777  0.6024  0.2302
  153SAPE    HS16940   5.557   1.074   6.630 -1.2166  0.9958  0.8846
  153SAPE   O2116941   5.618   0.967   6.803  0.0525 -0.2416 -0.3882
  153SAPE   C2116942   5.702   1.078   6.832  0.6137  0.1619 -0.0339
  153SAPE   O2216943   5.714   1.173   6.762 -0.3019 -1.4081  0.0036
  153SAPE   C2216944   5.763   1.067   6.973 -0.1986 -0.1634 -0.1179
  153SAPE   H2R16945   5.683   1.007   7.022 -0.5274 -0.2001 -0.6971
  153SAPE   H2S16946   5.860   1.012   6.971  1.1474  2.0853 -1.8214
  153SAPE    C316947   5.396   0.936   6.688  0.2297  0.5292  0.2336
  153SAPE    HX16948   5.358   0.942   6.584  1.3838  3.8509 -0.1327
  153SAPE    HY16949   5.338   1.015   6.741 -2.2672  0.0132 -1.5562
  153SAPE   O3116950   5.377   0.808   6.740 -0.1304 -0.8957 -0.5078
  153SAPE   C3116951   5.335   0.793   6.863 -0.4610 -0.1792 -0.5922
  153SAPE   O3216952   5.327   0.881   6.946  0.2519  0.0350  0.3921
  153SAPE   C3216953   5.303   0.641   6.882  0.1744 -0.1579 -0.6282
  153SAPE   H2X16954   5.380   0.582   6.828 -0.2275 -1.7617  0.4716
  153SAPE   H2Y16955   5.203   0.616   6.840  0.4057 -0.1649 -1.1751
  153SAPE   C2316956   5.786   1.200   7.044  0.2900 -0.1211 -0.1167
  153SAPE   H3R16957   5.694   1.259   7.021  1.2107  1.5469  0.2879
  153SAPE   H3S16958   5.874   1.249   6.996  0.5981  1.7534  2.1739
  153SAPE   C2416959   5.809   1.188   7.194  0.0008  0.6319  0.7301
  153SAPE   H4R16960   5.901   1.128   7.215  1.6893  2.9571  0.3144
  153SAPE   H4S16961   5.725   1.142   7.250 -1.5761  0.9597 -1.2956
  153SAPE   C2516962   5.818   1.328   7.252  0.4685  1.1561  0.7254
  153SAPE   H5R16963   5.786   1.405   7.179 -1.3759  0.4339  0.7140
  153SAPE   C2616964   5.852   1.358   7.375  0.0792 -0.3088 -0.8796
  153SAPE   H6R16965   5.874   1.463   7.399  1.6859 -1.2279  2.2909
  153SAPE   C2716966   5.907   1.257   7.480  0.1958  0.5986 -0.0202
  153SAPE   H7R16967   6.018   1.255   7.477  0.2309  0.6119  0.9277
  153SAPE   H7S16968   5.875   1.153   7.456  2.5681 -0.1901  0.0044
  153SAPE   C2816969   5.878   1.279   7.623 -0.0895 -0.0082  0.1816
  153SAPE   H8R16970   5.783   1.232   7.652  0.5044 -1.7470 -0.5516
  153SAPE   C2916971   5.954   1.349   7.706  0.1708 -0.1883  0.6181
  153SAPE   H9R16972   5.909   1.367   7.805 -2.6047  0.7005 -0.6986
  153SAPE  C21016973   6.069   1.428   7.659 -0.2615 -0.6167 -0.1412
  153SAPE  H10R16974   6.066   1.459   7.552 -0.4670  1.2771  0.3850
  153SAPE  H10S16975   6.157   1.363   7.679  0.9569  1.0289  0.0718
  153SAPE  C21116976   6.111   1.558   7.729  1.4706 -0.2950 -0.2009
  153SAPE  H11R16977   6.086   1.650   7.676 -1.3137  1.1695  3.2598
  153SAPE  C21216978   6.163   1.568   7.852 -0.3759  0.2057  0.0569
  153SAPE  H12R16979   6.190   1.670   7.882  2.7121 -0.5652  0.2857
  153SAPE  C21316980   6.199   1.456   7.946 -0.3160  0.0644 -0.1586
  153SAPE  H13R16981   6.195   1.355   7.899 -0.2031  1.3617 -3.1558
  153SAPE  H13S16982   6.126   1.459   8.030 -0.7482  1.7585 -0.5636
  153SAPE  C21416983   6.339   1.480   7.997  0.3338 -1.0454 -0.0782
  153SAPE  H14R16984   6.412   1.514   7.922 -0.5779 -0.1599 -0.5927
  153SAPE  C21516985   6.385   1.470   8.126  0.0834  0.2394 -0.7565
  153SAPE  H15R16986   6.488   1.501   8.149  0.1585 -0.7081  0.2202
  153SAPE  C21616987   6.295   1.427   8.246  0.2430  0.8362  0.4404
  153SAPE  H16R16988   6.321   1.325   8.280  0.0778  0.7321  0.2549
  153SAPE  H16S16989   6.192   1.406   8.210  0.1079  3.2039 -0.7696
  153SAPE  C21716990   6.291   1.521   8.372 -0.2063 -0.4682  0.1958
  153SAPE  H17R16991   6.393   1.560   8.392 -0.3174  0.4060 -0.8809
  153SAPE  H17S16992   6.247   1.465   8.458 -0.1930 -0.9301 -0.0959
  153SAPE  C21816993   6.201   1.645   8.343 -0.6053  0.3135  0.2567
  153SAPE  H18R16994   6.098   1.607   8.356 -1.5836  3.5266  3.5834
  153SAPE  H18S16995   6.232   1.683   8.243 -0.7860  0.1502  0.1393
  153SAPE  C21916996   6.215   1.750   8.448 -0.5050 -0.3899 -1.3362
  153SAPE  H19R16997   6.323   1.773   8.458 -0.7529  1.6554 -2.7796
  153SAPE  H19S16998   6.177   1.712   8.545  2.1252 -1.3613 -0.6053
  153SAPE  C22016999   6.139   1.880   8.413  0.6071  0.1142  0.6237
  153SAPE  H20R17000   6.161   1.945   8.500  4.0885  0.0712 -0.0631
  153SAPE  H20S17001   6.030   1.872   8.392  1.2859 -0.5951 -3.5496
  153SAPE  H20T17002   6.179   1.935   8.325 -0.6991  0.5296  0.2683
  153SAPE   C3317003   5.303   0.621   7.041  0.1324  0.5363  0.3000
  153SAPE   H3X17004   5.396   0.647   7.096 -1.1784 -2.0735  4.1388
  153SAPE   H3Y17005   5.296   0.510   7.046 -0.9825  0.2568 -3.8654
  153SAPE   C3417006   5.172   0.670   7.108  0.3196  0.1136 -0.1443
  153SAPE   H4X17007   5.081   0.635   7.054 -0.2156 -0.4936  1.1276
  153SAPE   H4Y17008   5.175   0.780   7.123  0.1077  0.2608 -1.0776
  153SAPE   C3517009   5.169   0.604   7.247 -0.5877 -0.1316  0.2457
  153SAPE   H5X17010   5.161   0.494   7.231 -0.6613  0.1726 -2.1484
  153SAPE   H5Y17011   5.068   0.627   7.289 -1.5274 -1.3508 -1.2404
  153SAPE   C3617012   5.277   0.635   7.345 -0.7629  0.4685  0.2541
  153SAPE   H6X17013   5.317   0.737   7.324 -2.4933  1.7582  2.7220
  153SAPE   H6Y17014   5.354   0.563   7.309  0.5063  1.1391  1.5080
  153SAPE   C3717015   5.240   0.616   7.496 -0.3697 -0.0543  0.5234
  153SAPE   H7X17016   5.247   0.507   7.518  2.6477 -0.2335 -0.8555
  153SAPE   H7Y17017   5.135   0.638   7.526 -0.3415 -0.5181  0.9714
  153SAPE   C3817018   5.342   0.686   7.580  0.1244  0.1264 -0.0746
  153SAPE   H8X17019   5.337   0.797   7.572  3.2956  0.4388  0.8211
  153SAPE   H8Y17020   5.445   0.649   7.565 -0.1191 -0.2794 -0.7784
  153SAPE   C3917021   5.306   0.651   7.723  0.0819  0.4108  0.6645
  153SAPE   H9X17022   5.325   0.545   7.751 -0.0262  0.2414  0.1266
  153SAPE   H9Y17023   5.198   0.669   7.742 -0.4665  0.5214 -2.0825
  153SAPE  C31017024   5.385   0.729   7.829  0.3429 -0.1201 -0.3059
  153SAPE  H10X17025   5.365   0.835   7.803  1.3773 -0.3275 -2.1419
  153SAPE  H10Y17026   5.494   0.714   7.810  0.2055 -0.7651 -0.6052
  153SAPE  C31117027   5.358   0.707   7.975 -1.1481  0.2305 -0.9886
  153SAPE  H11X17028   5.406   0.612   8.008 -0.7296  0.7602 -0.0271
  153SAPE  H11Y17029   5.252   0.698   8.005 -0.4086 -1.7342  1.3073
  153SAPE  C31217030   5.404   0.829   8.065  0.3429  0.1263  0.0889
  153SAPE  H12X17031   5.349   0.922   8.040 -0.5618  0.0492  1.6585
  153SAPE  H12Y17032   5.510   0.852   8.043  0.4599 -0.4170  0.0548
  153SAPE  C31317033   5.388   0.808   8.217 -0.0371 -0.4400  0.2103
  153SAPE  H13X17034   5.452   0.718   8.230  2.1726  1.0319  0.0629
  153SAPE  H13Y17035   5.283   0.790   8.250 -0.2129 -1.2158 -0.7168
  153SAPE  C31417036   5.452   0.923   8.302 -0.3301  0.2792  0.1635
  153SAPE  H14X17037   5.371   0.999   8.304 -1.0079 -0.4377  0.5666
  153SAPE  H14Y17038   5.540   0.968   8.252  0.2832 -1.8020 -0.7363
  153SAPE  C31517039   5.471   0.893   8.457 -0.0039  0.3471 -0.1762
  153SAPE  H15X17040   5.493   0.993   8.500 -0.1747 -0.5373  2.0815
  153SAPE  H15Y17041   5.557   0.822   8.455 -1.4047 -1.4194 -0.5446
  153SAPE  C31617042   5.352   0.825   8.531  0.5241  0.0338 -0.2768
  153SAPE  H16X17043   5.331   0.729   8.479  2.8206 -0.3490 -0.6217
  153SAPE  H16Y17044   5.259   0.886   8.526  0.0025 -0.8053 -1.1316
  153SAPE  C31717045   5.390   0.808   8.677 -0.2557  0.2812 -1.1056
  153SAPE  H17X17046   5.372   0.905   8.728  2.5815 -0.2352  1.1268
  153SAPE  H17Y17047   5.498   0.787   8.689 -0.5567  0.3281  4.9563
  153SAPE  C31817048   5.314   0.708   8.756 -0.0177  0.3231 -0.2629
  153SAPE  H18X17049   5.219   0.748   8.796 -1.0213 -0.6128 -1.6342
  153SAPE  H18Y17050   5.363   0.663   8.845 -2.3595  0.8838  1.3891
  153SAPE  H18Z17051   5.284   0.628   8.685 -1.4786  0.1384  0.5287
  154SAPE     N17052   4.658   0.879   6.336  0.4937  0.4740 -0.3525
  154SAPE   HN117053   4.607   0.925   6.258 -2.5696 -0.9374  0.6532
  154SAPE   HN217054   4.645   0.939   6.420 -2.6264  0.7660 -0.9289
  154SAPE   HN317055   4.755   0.881   6.299  0.5734 -2.6855 -0.5897
  154SAPE   C1217056   4.617   0.737   6.366  0.2089  0.5670 -0.3034
  154SAPE  H12A17057   4.696   0.687   6.426 -0.5343 -0.9033 -0.5156
  154SAPE  H12B17058   4.611   0.686   6.268  2.3780 -0.6665  0.1547
  154SAPE   C1117059   4.482   0.744   6.441  0.1593 -0.3881  0.2391
  154SAPE  H11A17060   4.494   0.790   6.542 -2.5516  0.3387  0.2950
  154SAPE  H11B17061   4.448   0.639   6.452  1.5218 -1.0146 -1.1199
  154SAPE     P17062   4.328   0.952   6.410  0.0128  0.5731  0.0462
  154SAPE   O1317063   4.440   1.047   6.445 -0.2131  0.2857  0.0148
  154SAPE   O1417064   4.236   0.994   6.303  0.0971 -0.4733  0.7185
  154SAPE   O1217065   4.394   0.820   6.362  0.4199  0.6263 -0.3469
  154SAPE   O1117066   4.244   0.912   6.539 -0.4956 -0.0321 -0.5517
  154SAPE    C117067   4.141   0.812   6.526 -1.0971 -0.4994  0.2624
  154SAPE    HA17068   4.051   0.857   6.478 -0.4194 -0.0525 -0.6214
  154SAPE    HB17069   4.164   0.718   6.471  1.2218 -0.0541  0.3740
  154SAPE    C217070   4.109   0.756   6.674 -0.6508 -0.3357 -0.3670
  154SAPE    HS17071   4.057   0.659   6.659  2.2845 -1.9344 -1.0049
  154SAPE   O2117072   4.025   0.845   6.752 -0.3617 -0.0049  0.7871
  154SAPE   C2117073   3.901   0.860   6.705 -0.5809 -0.2404 -0.4173
  154SAPE   O2217074   3.851   0.813   6.605 -0.3714 -0.3015 -0.3661
  154SAPE   C2217075   3.834   0.967   6.789 -0.3896 -0.3466 -0.2283
  154SAPE   H2R17076   3.902   1.042   6.835 -0.2561 -1.1856  0.9870
  154SAPE   H2S17077   3.800   1.041   6.713 -2.0545 -0.3055  0.5194
  154SAPE    C317078   4.239   0.723   6.739 -0.3762 -0.3764 -0.5925
  154SAPE    HX17079   4.281   0.822   6.768  0.4291 -0.3393 -1.8476
  154SAPE    HY17080   4.303   0.682   6.658  0.4395 -0.1079 -0.0981
  154SAPE   O3117081   4.225   0.641   6.865 -0.9851  0.4838 -0.1223
  154SAPE   C3117082   4.342   0.633   6.925  0.7968 -0.2187 -0.1828
  154SAPE   O3217083   4.450   0.677   6.883 -1.1034  0.5551 -0.5618
  154SAPE   C3217084   4.338   0.565   7.060  0.7667 -0.3492 -0.4275
  154SAPE   H2X17085   4.397   0.471   7.057  0.9542 -0.2749  0.5836
  154SAPE   H2Y17086   4.235   0.545   7.097  0.2891  3.0909  0.4229
  154SAPE   C2317087   3.709   0.923   6.864  0.0616 -0.0857  0.2773
  154SAPE   H3R17088   3.639   0.871   6.796 -0.5956 -2.6943  2.7566
  154SAPE   H3S17089   3.655   1.015   6.895 -2.5629 -1.6360  0.5471
  154SAPE   C2417090   3.731   0.820   6.977  0.6330 -0.4533  0.1743
  154SAPE   H4R17091   3.776   0.865   7.068 -0.7484  0.1757  0.5561
  154SAPE   H4S17092   3.801   0.744   6.935 -0.3722 -1.0752 -0.4038
  154SAPE   C2517093   3.604   0.738   7.002 -0.6520  0.6721  0.4719
  154SAPE   H5R17094   3.563   0.690   6.912 -0.0516  0.2977  0.3892
  154SAPE   C2617095   3.534   0.723   7.112  0.1361  0.4279 -0.2466
  154SAPE   H6R17096   3.450   0.653   7.106  1.7869 -1.7921  1.0050
  154SAPE   C2717097   3.560   0.776   7.252 -0.6316 -0.4051 -0.1993
  154SAPE   H7R17098   3.658   0.827   7.264  2.0736 -4.8936 -0.9438
  154SAPE   H7S17099   3.569   0.685   7.314  2.8275  0.0413  0.1224
  154SAPE   C2817100   3.455   0.875   7.300  0.0609  0.0212  0.9638
  154SAPE   H8R17101   3.411   0.930   7.215 -0.0416 -0.9832  0.3530
  154SAPE   C2917102   3.411   0.894   7.418 -0.0180 -0.7528 -0.1066
  154SAPE   H9R17103   3.327   0.964   7.429 -0.0754 -0.7271 -0.6749
  154SAPE  C21017104   3.468   0.817   7.535  0.4433  0.9009 -0.1790
  154SAPE  H10R17105   3.451   0.883   7.623  0.1830 -1.6936  1.8320
  154SAPE  H10S17106   3.574   0.785   7.529 -0.5263 -2.4591 -2.2785
  154SAPE  C21117107   3.376   0.700   7.557 -0.5112 -0.8465  0.5974
  154SAPE  H11R17108   3.334   0.676   7.459  0.1484  3.0889 -0.8040
  154SAPE  C21217109   3.364   0.613   7.656  0.5456  0.3457  0.1138
  154SAPE  H12R17110   3.296   0.531   7.625  0.4098  0.0256  1.2259
  154SAPE  C21317111   3.438   0.599   7.785  0.8337 -0.0288  0.4851
  154SAPE  H13R17112   3.375   0.544   7.858 -0.4503  1.5183  0.6005
  154SAPE  H13S17113   3.442   0.702   7.824  1.2112  0.3034 -0.4076
  154SAPE  C21417114   3.579   0.545   7.776  0.5050 -0.3784  0.4309
  154SAPE  H14R17115   3.602   0.494   7.681  0.1185 -0.9683  0.6498
  154SAPE  C21517116   3.677   0.548   7.866  0.8959 -0.1821  0.1119
  154SAPE  H15R17117   3.774   0.505   7.836 -0.3748 -3.1059 -0.1388
  154SAPE  C21617118   3.672   0.596   8.011  0.6803  0.4305 -0.0550
  154SAPE  H16R17119   3.567   0.616   8.040  1.1120  2.4361  0.3207
  154SAPE  H16S17120   3.737   0.686   8.020  1.7937 -0.3608  0.0235
  154SAPE  C21717121   3.734   0.484   8.104  0.1474  0.2486 -0.2796
  154SAPE  H17R17122   3.826   0.440   8.060  0.8203 -1.5862  2.7203
  154SAPE  H17S17123   3.660   0.402   8.112  0.5415 -0.0730  0.0481
  154SAPE  C21817124   3.765   0.552   8.237 -0.1762  0.0022 -0.4199
  154SAPE  H18R17125   3.668   0.597   8.265  0.0884 -0.3808  1.1851
  154SAPE  H18S17126   3.840   0.632   8.221 -1.5474  1.9511  2.1694
  154SAPE  C21917127   3.805   0.451   8.348  0.1855 -0.6842 -0.6788
  154SAPE  H19R17128   3.723   0.376   8.354  0.1212 -0.7022 -1.6295
  154SAPE  H19S17129   3.815   0.499   8.447 -0.2251 -0.2175 -0.8610
  154SAPE  C22017130   3.939   0.389   8.333 -0.4587  0.2133 -0.0736
  154SAPE  H20R17131   4.019   0.464   8.313 -1.0929  0.1747 -3.2364
  154SAPE  H20S17132   3.940   0.310   8.255  3.3680 -1.4429  1.3983
  154SAPE  H20T17133   3.961   0.336   8.428 -0.8545 -1.4612 -0.8821
  154SAPE   C3317134   4.388   0.647   7.181  0.1493 -0.4518 -0.2605
  154SAPE   H3X17135   4.468   0.716   7.147  0.1350  1.0888  2.5272
  154SAPE   H3Y17136   4.420   0.574   7.258  1.6948 -0.5654 -0.9796
  154SAPE   C3417137   4.288   0.746   7.250  0.7236 -0.2890  0.8504
  154SAPE   H4X17138   4.204   0.685   7.289  0.1059  0.3894  0.5902
  154SAPE   H4Y17139   4.237   0.807   7.174  1.7091  0.5431  0.8362
  154SAPE   C3517140   4.337   0.850   7.354 -0.2403  0.4301 -0.8099
  154SAPE   H5X17141   4.371   0.948   7.313 -0.7258  0.6020 -0.8059
  154SAPE   H5Y17142   4.421   0.813   7.417 -1.5419  2.0498  2.1003
  154SAPE   C3617143   4.221   0.888   7.456 -0.3353 -0.9261  0.3908
  154SAPE   H6X17144   4.166   0.801   7.496  1.3992 -1.5458  1.5714
  154SAPE   H6Y17145   4.156   0.948   7.389  0.0919 -2.6737 -1.7021
  154SAPE   C3717146   4.273   0.987   7.569  0.7337 -0.3446 -0.4025
  154SAPE   H7X17147   4.356   1.039   7.515  1.6984 -0.2630  1.0918
  154SAPE   H7Y17148   4.310   0.933   7.658 -0.1196  2.9572  2.1542
  154SAPE   C3817149   4.161   1.079   7.612 -0.0210  0.0004  0.1223
  154SAPE   H8X17150   4.080   1.016   7.654  0.6445 -0.1690  1.1989
  154SAPE   H8Y17151   4.115   1.137   7.529  0.4179  1.9243  1.1689
  154SAPE   C3917152   4.201   1.173   7.725 -0.1130  0.5366 -0.4848
  154SAPE   H9X17153   4.250   1.262   7.680 -0.1681  1.1040  0.5399
  154SAPE   H9Y17154   4.270   1.127   7.798 -1.0293  1.2676  0.8869
  154SAPE  C31017155   4.080   1.210   7.821 -0.3178 -0.1987  0.5598
  154SAPE  H10X17156   4.048   1.110   7.858 -2.9648  0.2569 -0.2491
  154SAPE  H10Y17157   3.997   1.254   7.761  0.0351 -2.6367 -1.9014
  154SAPE  C31117158   4.115   1.305   7.937  0.8126 -0.2303 -0.2501
  154SAPE  H11X17159   4.020   1.348   7.978  2.0730  0.3286  2.2593
  154SAPE  H11Y17160   4.177   1.392   7.907 -0.9759  1.6198  1.1177
  154SAPE  C31217161   4.169   1.238   8.062  0.5747  0.2877  0.4370
  154SAPE  H12X17162   4.262   1.191   8.024 -0.1435  0.0853 -1.1791
  154SAPE  H12Y17163   4.102   1.163   8.108  0.1290  0.9259  0.8510
  154SAPE  C31317164   4.206   1.336   8.174 -0.4371 -0.5350  0.0495
  154SAPE  H13X17165   4.293   1.392   8.133 -1.2592  0.7556  0.0141
  154SAPE  H13Y17166   4.244   1.278   8.260 -0.4777 -1.1090 -0.3124
  154SAPE  C31417167   4.096   1.428   8.227  0.5638 -0.4143  0.3068
  154SAPE  H14X17168   4.058   1.496   8.148  0.7869 -2.0331 -1.2511
  154SAPE  H14Y17169   4.135   1.492   8.309  1.2969  0.0303 -0.3712
  154SAPE  C31517170   3.978   1.349   8.291  0.6098  0.0640 -0.6254
  154SAPE  H15X17171   4.017   1.284   8.373 -0.3335  0.4021  0.1030
  154SAPE  H15Y17172   3.929   1.284   8.215 -1.3336  1.6495 -0.7753
  154SAPE  C31617173   3.871   1.444   8.338 -0.1534  0.3324 -0.3256
  154SAPE  H16X17174   3.794   1.467   8.260  0.5070 -1.3122 -1.5350
  154SAPE  H16Y17175   3.930   1.536   8.357  0.5090 -0.1846  0.1501
  154SAPE  C31717176   3.803   1.386   8.462 -0.3063  0.1400  0.1763
  154SAPE  H17X17177   3.773   1.285   8.426 -2.3202  0.9271 -0.4567
  154SAPE  H17Y17178   3.709   1.437   8.492 -0.6121 -0.4986  0.3292
  154SAPE  C31817179   3.896   1.368   8.588 -0.2635  0.6266  0.1814
  154SAPE  H18X17180   3.930   1.464   8.632 -2.4652  0.5925  2.1632
  154SAPE  H18Y17181   3.979   1.301   8.558  1.0565  1.9716  0.7348
  154SAPE  H18Z17182   3.833   1.320   8.665 -0.4105  1.4239  0.5732
  155SAPE     N17183   5.490   0.559   6.350  0.2737 -0.1900  0.2813
  155SAPE   HN117184   5.409   0.500   6.322 -0.0080 -0.0852  0.8679
  155SAPE   HN217185   5.453   0.656   6.356  0.7958 -0.0606  4.0320
  155SAPE   HN317186   5.572   0.560   6.286  1.5564  0.0233  1.8774
  155SAPE   C1217187   5.528   0.541   6.497  0.2351  0.5256 -0.0272
  155SAPE  H12A17188   5.460   0.596   6.565 -0.1106 -0.4442  0.4279
  155SAPE  H12B17189   5.629   0.579   6.521  0.8124 -0.9283 -0.0727
  155SAPE   C1117190   5.517   0.395   6.551 -0.6655 -0.7975  0.0045
  155SAPE  H11A17191   5.418   0.360   6.517 -0.6590 -0.6865 -0.1324
  155SAPE  H11B17192   5.530   0.396   6.661  0.3650 -0.6837 -0.0994
  155SAPE     P17193   5.618   0.196   6.409 -0.0462  0.0377  0.2272
  155SAPE   O1317194   5.503   0.222   6.318 -0.5265  0.7800 -0.5721
  155SAPE   O1417195   5.747   0.162   6.342  0.2833  0.3256  0.3685
  155SAPE   O1217196   5.628   0.328   6.489  0.7351  0.0638  0.5617
  155SAPE   O1117197   5.575   0.089   6.509  0.1923  0.2491  0.0900
  155SAPE    C117198   5.666   0.037   6.612  0.3206  0.1518 -0.2051
  155SAPE    HA17199   5.670  -0.070   6.584 -3.8566  0.0718 -1.1317
  155SAPE    HB17200   5.768   0.080   6.622 -0.2178  1.2395  0.8622
  155SAPE    C217201   5.600   0.048   6.751  0.3368  0.4011 -0.6413
  155SAPE    HS17202   5.634   0.146   6.791  0.3908  1.0991 -2.3156
  155SAPE   O2117203   5.640  -0.068   6.832  0.7736 -0.0133  0.7669
  155SAPE   C2117204   5.765  -0.063   6.870  0.2525 -0.0507 -0.3709
  155SAPE   O2217205   5.840   0.032   6.877 -0.0999 -0.6492 -0.0155
  155SAPE   C2217206   5.815  -0.200   6.913  0.6941  0.5562  0.5592
  155SAPE   H2R17207   5.758  -0.282   6.865  2.1995  0.9245 -2.0539
  155SAPE   H2S17208   5.914  -0.220   6.866 -0.6886 -0.6490 -2.0972
  155SAPE    C317209   5.450   0.050   6.750  0.3073 -0.1828 -0.5611
  155SAPE    HX17210   5.409  -0.042   6.703  0.0809 -0.6603  0.5457
  155SAPE    HY17211   5.416   0.141   6.696 -1.3021  0.8636  2.0209
  155SAPE   O3117212   5.402   0.054   6.885 -0.3487 -0.0533 -0.6440
  155SAPE   C3117213   5.397   0.182   6.935  0.1720 -0.6325  0.0124
  155SAPE   O3217214   5.421   0.285   6.875 -0.3945  0.1238  0.6848
  155SAPE   C3217215   5.377   0.174   7.084 -0.2857 -0.2423 -0.0794
  155SAPE   H2X17216   5.349   0.069   7.106  0.1709 -0.5997 -1.1235
  155SAPE   H2Y17217   5.297   0.248   7.109 -0.0723 -0.2312  0.5814
  155SAPE   C2317218   5.821  -0.216   7.074  0.5165  0.2534  0.6598
  155SAPE   H3R17219   5.810  -0.325   7.096 -0.8425  0.3922  0.7016
  155SAPE   H3S17220   5.726  -0.168   7.104 -1.3495 -2.1012 -1.1377
  155SAPE   C2417221   5.944  -0.158   7.154  0.2808  0.0066 -0.1324
  155SAPE   H4R17222   6.036  -0.190   7.100  0.1977 -1.3743  0.4869
  155SAPE   H4S17223   5.962  -0.214   7.248  0.5636  0.2531 -0.0404
  155SAPE   C2517224   5.929  -0.008   7.170  0.1490 -0.1388 -1.0073
  155SAPE   H5R17225   5.966   0.049   7.083 -0.3092  2.7928  0.5928
  155SAPE   C2617226   5.892   0.047   7.284 -0.6835 -0.9529 -0.4724
  155SAPE   H6R17227   5.903   0.156   7.284  1.8059 -1.0471 -3.2837
  155SAPE   C2717228   5.846  -0.028   7.407  0.3029  0.2478  0.3876
  155SAPE   H7R17229   5.798  -0.119   7.366  0.9905 -0.4540  1.0910
  155SAPE   H7S17230   5.757   0.009   7.462 -0.6853 -3.9205  2.0011
  155SAPE   C2817231   5.961  -0.065   7.494 -0.3169 -0.6032 -0.3519
  155SAPE   H8R17232   6.046  -0.115   7.445  0.2055 -0.4085  0.3402
  155SAPE   C2917233   5.964  -0.069   7.624  0.0584 -0.0605  0.4220
  155SAPE   H9R17234   6.062  -0.091   7.671 -0.0343 -2.2219 -0.2805
  155SAPE  C21017235   5.850  -0.033   7.717 -0.2667 -0.5634 -0.3192
  155SAPE  H10R17236   5.749  -0.049   7.673 -1.8235  4.4369  0.8344
  155SAPE  H10S17237   5.859   0.076   7.735  1.4819 -0.6326 -0.6016
  155SAPE  C21117238   5.866  -0.108   7.850 -0.3734 -0.2227  0.0571
  155SAPE  H11R17239   5.798  -0.194   7.856  1.3665 -1.6634  0.2009
  155SAPE  C21217240   5.949  -0.079   7.955  0.1920  0.1888  0.1885
  155SAPE  H12R17241   5.949  -0.147   8.042  0.4221  1.1034  0.9103
  155SAPE  C21317242   6.054   0.030   7.970 -0.5528  0.2678 -0.0145
  155SAPE  H13R17243   6.064   0.071   7.867 -3.3572 -3.3408 -1.9783
  155SAPE  H13S17244   6.152  -0.013   8.000  0.2452  2.0566  0.0598
  155SAPE  C21417245   6.010   0.137   8.067  0.4987  0.1656 -0.3146
  155SAPE  H14R17246   5.943   0.213   8.023 -0.8581  1.9252  4.1805
  155SAPE  C21517247   6.011   0.130   8.201 -0.1659 -0.7076 -0.1012
  155SAPE  H15R17248   5.958   0.204   8.262  1.8853  0.6332  0.1605
  155SAPE  C21617249   6.064   0.005   8.276  0.4751 -0.0713  0.4276
  155SAPE  H16R17250   6.084  -0.078   8.205 -1.0121 -1.8523  2.0026
  155SAPE  H16S17251   5.997  -0.023   8.360  1.8347  0.3600  1.7001
  155SAPE  C21717252   6.205   0.039   8.342  0.5032  0.2567 -0.4975
  155SAPE  H17R17253   6.194   0.090   8.440  3.1688  0.9122 -0.4637
  155SAPE  H17S17254   6.268   0.101   8.275 -0.6974 -0.3092 -2.2159
  155SAPE  C21817255   6.286  -0.088   8.362  1.5181 -0.3233 -0.1490
  155SAPE  H18R17256   6.290  -0.142   8.265  2.1091  1.0982 -0.9478
  155SAPE  H18S17257   6.233  -0.152   8.436  1.9461 -1.3873 -0.7437
  155SAPE  C21917258   6.423  -0.063   8.419  0.3910  0.2099 -0.4043
  155SAPE  H19R17259   6.410   0.016   8.495  2.8674  0.6806 -0.3842
  155SAPE  H19S17260   6.488  -0.016   8.343  1.3908 -1.8356 -0.9007
  155SAPE  C22017261   6.498  -0.186   8.471  0.1887 -0.0066  0.4652
  155SAPE  H20R17262   6.457  -0.232   8.563 -0.4751 -2.1091 -0.8205
  155SAPE  H20S17263   6.607  -0.164   8.471  0.4015 -1.0378  0.7238
  155SAPE  H20T17264   6.480  -0.263   8.393 -3.3408  0.4128  0.6965
  155SAPE   C3317265   5.505   0.212   7.155  0.6141 -0.6543  0.5334
  155SAPE   H3X17266   5.552   0.300   7.106  0.0152 -1.7660 -2.1670
  155SAPE   H3Y17267   5.581   0.133   7.138  1.3099  0.5748 -2.7956
  155SAPE   C3417268   5.469   0.251   7.302 -0.1368  0.1137 -0.4856
  155SAPE   H4X17269   5.432   0.158   7.349  0.1391 -0.1333 -0.7519
  155SAPE   H4Y17270   5.390   0.330   7.302 -0.7805 -0.5143  0.1869
  155SAPE   C3517271   5.591   0.305   7.382 -0.1870 -0.3868 -0.2580
  155SAPE   H5X17272   5.625   0.403   7.341  2.1189 -1.5883 -1.4042
  155SAPE   H5Y17273   5.676   0.234   7.373 -0.1438 -0.8081  2.6236
  155SAPE   C3617274   5.555   0.320   7.532 -0.8694  0.0643  0.1557
  155SAPE   H6X17275   5.502   0.227   7.564 -0.3777 -0.1653  0.3106
  155SAPE   H6Y17276   5.482   0.401   7.555  0.7962  1.6289  0.0743
  155SAPE   C3717277   5.677   0.334   7.624 -0.4075  0.4156  0.3415
  155SAPE   H7X17278   5.730   0.431   7.611  1.7326 -0.7239  0.1929
  155SAPE   H7Y17279   5.750   0.255   7.597 -1.1761 -0.0337 -0.4752
  155SAPE   C3817280   5.637   0.318   7.767  0.1417 -0.2071  0.6923
  155SAPE   H8X17281   5.630   0.209   7.786 -0.5480 -0.2131  0.4421
  155SAPE   H8Y17282   5.535   0.352   7.795  0.4406 -0.8366  2.7110
  155SAPE   C3917283   5.738   0.359   7.869 -0.0225 -0.1644  0.1447
  155SAPE   H9X17284   5.759   0.468   7.868 -1.4515  0.1236 -1.0214
  155SAPE   H9Y17285   5.835   0.304   7.873 -0.4294 -0.9136 -0.1230
  155SAPE  C31017286   5.678   0.336   8.013 -0.1825 -0.0287  0.5348
  155SAPE  H10X17287   5.718   0.234   8.032  0.5608  0.2063  0.2771
  155SAPE  H10Y17288   5.568   0.320   8.016 -0.2173  0.0972  0.0328
  155SAPE  C31117289   5.731   0.412   8.129 -0.1153 -0.0138 -0.9634
  155SAPE  H11X17290   5.833   0.448   8.103 -0.4012  0.6296 -1.2022
  155SAPE  H11Y17291   5.739   0.363   8.229  2.5311  0.3075 -0.9214
  155SAPE  C31217292   5.659   0.549   8.147  0.4121  0.4975 -0.0754
  155SAPE  H12X17293   5.549   0.535   8.143 -0.0382  3.4338 -0.0251
  155SAPE  H12Y17294   5.680   0.599   8.050 -0.6606  1.3602  0.1142
  155SAPE  C31317295   5.706   0.643   8.265 -0.2163 -0.4187 -0.2923
  155SAPE  H13X17296   5.667   0.608   8.363  1.2149 -1.5022 -0.0823
  155SAPE  H13Y17297   5.665   0.744   8.245  3.0389  0.7454 -1.6922
  155SAPE  C31417298   5.856   0.662   8.271 -0.1652  0.2032  0.1747
  155SAPE  H14X17299   5.883   0.708   8.173 -1.6526 -0.1145 -0.4243
  155SAPE  H14Y17300   5.907   0.564   8.284 -0.9914 -0.2913 -0.1972
  155SAPE  C31517301   5.897   0.746   8.388 -0.5796 -0.6575  0.1553
  155SAPE  H15X17302   5.870   0.706   8.488 -0.8943  2.4998  1.4391
  155SAPE  H15Y17303   5.845   0.844   8.378  0.2421 -0.0995  1.2055
  155SAPE  C31617304   6.048   0.762   8.395  0.5021 -0.2119  0.7763
  155SAPE  H16X17305   6.072   0.833   8.477  1.8936 -0.8080  0.8998
  155SAPE  H16Y17306   6.082   0.805   8.298  3.2768 -0.5500  1.5053
  155SAPE  C31717307   6.122   0.632   8.431 -0.6720  0.4115  0.0022
  155SAPE  H17X17308   6.086   0.542   8.377  0.2350 -1.0348  1.7130
  155SAPE  H17Y17309   6.089   0.616   8.536 -1.7515  0.1327 -0.3653
  155SAPE  C31817310   6.271   0.651   8.430  0.1964  0.1542  0.3820
  155SAPE  H18X17311   6.291   0.654   8.320 -2.3120  0.0855 -0.1478
  155SAPE  H18Y17312   6.322   0.559   8.464  2.1733  0.5890 -1.2419
  155SAPE  H18Z17313   6.308   0.740   8.483  2.1393  0.5205 -1.4487
  156SAPE     N17314   3.072   1.160   6.333 -0.3571  0.4934  0.7406
  156SAPE   HN117315   3.073   1.256   6.371  0.5302  0.2637  1.3176
  156SAPE   HN217316   3.130   1.160   6.247 -2.6337  1.0284 -0.8955
  156SAPE   HN317317   2.976   1.145   6.294  0.1910 -0.6925 -0.2568
  156SAPE   C1217318   3.118   1.088   6.460 -0.0424 -0.5683 -0.0305
  156SAPE  H12A17319   3.202   1.144   6.507  0.0922 -1.2552  0.5631
  156SAPE  H12B17320   3.156   0.986   6.438  0.5917 -0.5438  0.8954
  156SAPE   C1117321   2.991   1.080   6.550  0.3376 -0.5055 -0.8388
  156SAPE  H11A17322   2.953   1.180   6.579  2.3598  0.1592 -0.3620
  156SAPE  H11B17323   3.013   1.035   6.649 -1.0254  2.3761  0.9232
  156SAPE     P17324   2.857   0.862   6.493  0.0496  0.2353 -0.5861
  156SAPE   O1317325   2.965   0.788   6.431  0.2973 -0.4442  0.2650
  156SAPE   O1417326   2.839   0.821   6.638 -0.1906  0.7435  0.1232
  156SAPE   O1217327   2.885   1.016   6.476  0.0110  0.0673  0.5471
  156SAPE   O1117328   2.720   0.841   6.415  0.3386  0.1224 -0.3740
  156SAPE    C117329   2.610   0.947   6.410 -0.0110 -0.0937  0.1108
  156SAPE    HA17330   2.660   1.045   6.393 -1.3094  0.3861 -1.1671
  156SAPE    HB17331   2.547   0.926   6.321 -0.9752 -1.8365  1.1343
  156SAPE    C217332   2.506   0.946   6.527  0.5308  0.6220  0.6127
  156SAPE    HS17333   2.420   1.008   6.494  0.2136 -1.1827 -2.4335
  156SAPE   O2117334   2.562   0.985   6.649 -0.5200 -0.1318 -0.1307
  156SAPE   C2117335   2.579   1.114   6.668 -0.3041  0.6382  0.3614
  156SAPE   O2217336   2.545   1.204   6.592  0.3518 -0.0376  0.4776
  156SAPE   C2217337   2.665   1.128   6.796  0.1906 -0.2139 -0.3641
  156SAPE   H2R17338   2.660   1.038   6.860 -0.6959  0.1986  0.1589
  156SAPE   H2S17339   2.773   1.132   6.768  0.5540 -0.7327  0.8955
  156SAPE    C317340   2.437   0.801   6.534  0.0923 -0.2964 -0.3066
  156SAPE    HX17341   2.520   0.727   6.539  0.2829 -0.0407  0.4027
  156SAPE    HY17342   2.383   0.780   6.439 -0.0926 -0.1696 -0.2293
  156SAPE   O3117343   2.353   0.786   6.652 -0.9257 -0.5621 -0.2278
  156SAPE   C3117344   2.238   0.855   6.653 -0.0558  1.0507  0.4760
  156SAPE   O3217345   2.208   0.926   6.558  0.4272  0.3949 -0.6312
  156SAPE   C3217346   2.165   0.838   6.785  0.6783  0.5094  0.5589
  156SAPE   H2X17347   2.183   0.740   6.833 -0.3567 -0.8829 -1.6926
  156SAPE   H2Y17348   2.055   0.850   6.769  0.4570 -0.6829  1.0925
  156SAPE   C2317349   2.619   1.261   6.864  0.5786 -0.4345  0.3312
  156SAPE   H3R17350   2.508   1.267   6.874  0.6163  2.0547 -0.0808
  156SAPE   H3S17351   2.635   1.347   6.795  1.2265 -0.6638  0.1940
  156SAPE   C2417352   2.674   1.296   7.001  0.0941  0.3125  0.8902
  156SAPE   H4R17353   2.646   1.395   7.042  0.8343  1.3276 -0.9554
  156SAPE   H4S17354   2.784   1.306   6.994  0.0874  2.2616  2.6296
  156SAPE   C2517355   2.634   1.185   7.100  0.3997  0.4163 -0.0065
  156SAPE   H5R17356   2.669   1.081   7.088 -0.9504 -0.3091  1.8235
  156SAPE   C2617357   2.559   1.206   7.216  0.0201 -0.7019  0.0125
  156SAPE   H6R17358   2.551   1.125   7.290 -0.5884 -1.2064 -0.5923
  156SAPE   C2717359   2.500   1.339   7.255 -0.8618  0.0747 -0.0141
  156SAPE   H7R17360   2.395   1.315   7.281 -0.9534 -1.0676 -1.3037
  156SAPE   H7S17361   2.485   1.393   7.159  1.4586  1.3752  0.2891
  156SAPE   C2817362   2.580   1.436   7.345 -0.0392 -0.2966 -0.2574
  156SAPE   H8R17363   2.654   1.500   7.296 -0.7502 -0.3916 -1.4758
  156SAPE   C2917364   2.579   1.439   7.480 -0.1289 -0.3683 -0.3457
  156SAPE   H9R17365   2.644   1.514   7.528  0.9175 -0.1391 -2.0179
  156SAPE  C21017366   2.510   1.339   7.568  0.0509  0.0926 -0.5542
  156SAPE  H10R17367   2.409   1.323   7.526  0.0608 -1.2799 -0.1101
  156SAPE  H10S17368   2.494   1.393   7.664  0.4928  0.2367 -0.5559
  156SAPE  C21117369   2.597   1.218   7.595 -0.0404  0.5555  0.4295
  156SAPE  H11R17370   2.674   1.191   7.522 -1.3043 -0.5032 -0.5740
  156SAPE  C21217371   2.579   1.126   7.699 -0.3244  0.2742  0.7084
  156SAPE  H12R17372   2.639   1.035   7.712 -1.1088 -0.2381  0.7812
  156SAPE  C21317373   2.472   1.141   7.807 -0.1651  0.1829  0.3279
  156SAPE  H13R17374   2.440   1.038   7.830  1.1104 -0.5732 -1.0647
  156SAPE  H13S17375   2.386   1.197   7.765  1.2544  2.3264  0.1196
  156SAPE  C21417376   2.513   1.222   7.924  0.4245  0.3855 -0.0693
  156SAPE  H14R17377   2.551   1.320   7.893  2.6578  0.2277  1.8529
  156SAPE  C21517378   2.510   1.195   8.055  0.2679  0.3762  0.3058
  156SAPE  H15R17379   2.561   1.254   8.133  1.1129 -1.7819  1.4593
  156SAPE  C21617380   2.461   1.063   8.118 -0.7166 -0.7466  0.1375
  156SAPE  H16R17381   2.451   0.986   8.038 -0.0570  0.9711 -1.6834
  156SAPE  H16S17382   2.353   1.079   8.140 -0.4838  3.7833 -0.9677
  156SAPE  C21717383   2.540   1.010   8.240  0.0347  0.1179  0.0884
  156SAPE  H17R17384   2.649   1.031   8.232  0.7635 -2.9549  0.5067
  156SAPE  H17S17385   2.536   0.899   8.237 -2.9961  0.1494  0.0627
  156SAPE  C21817386   2.484   1.054   8.379 -0.0696  0.0010  0.2583
  156SAPE  H18R17387   2.379   1.022   8.392 -0.2745  0.5937  0.0913
  156SAPE  H18S17388   2.485   1.165   8.379 -1.8567  0.0424  0.6555
  156SAPE  C21917389   2.567   1.003   8.498  0.0056  0.3994  0.0717
  156SAPE  H19R17390   2.519   1.051   8.586 -4.9630  0.6906 -2.4753
  156SAPE  H19S17391   2.665   1.055   8.489 -0.9820  3.0865  2.9918
  156SAPE  C22017392   2.584   0.853   8.530 -0.2451 -0.3540  0.4132
  156SAPE  H20R17393   2.487   0.798   8.526 -0.6893  0.1240  2.8048
  156SAPE  H20S17394   2.643   0.819   8.617  1.2016 -1.8721 -1.0917
  156SAPE  H20T17395   2.644   0.810   8.447  0.6720 -1.0814  1.4314
  156SAPE   C3317396   2.213   0.942   6.887  1.2020 -0.2610 -0.7244
  156SAPE   H3X17397   2.200   1.049   6.862 -1.1264 -0.7497 -1.8932
  156SAPE   H3Y17398   2.320   0.925   6.910  1.2781 -1.9352 -2.0549
  156SAPE   C3417399   2.126   0.916   7.016  1.1743 -0.8802  0.9249
  156SAPE   H4X17400   2.143   0.812   7.053  0.5146 -1.4067 -0.1756
  156SAPE   H4Y17401   2.020   0.939   6.996  1.4741 -0.8212 -0.7444
  156SAPE   C3517402   2.156   1.000   7.140 -0.0173 -0.2028 -0.8056
  156SAPE   H5X17403   2.118   1.104   7.138  0.6986  0.1535  1.3515
  156SAPE   H5Y17404   2.267   0.995   7.149 -0.1455 -1.5714  0.5383
  156SAPE   C3617405   2.124   0.925   7.276  0.3425 -0.0306 -0.8404
  156SAPE   H6X17406   2.191   0.837   7.285  1.7522  0.8170 -2.3831
  156SAPE   H6Y17407   2.018   0.893   7.284  0.4439  0.0171  1.6700
  156SAPE   C3717408   2.153   1.007   7.405 -0.1480  0.1585 -0.0988
  156SAPE   H7X17409   2.110   1.109   7.395  2.2198  1.0641 -1.9147
  156SAPE   H7Y17410   2.263   1.012   7.418  0.2922  0.1952 -3.1819
  156SAPE   C3817411   2.089   0.927   7.525  0.5591 -0.0462  0.0150
  156SAPE   H8X17412   2.129   0.824   7.513 -0.1028 -0.2509 -0.4514
  156SAPE   H8Y17413   1.980   0.945   7.536  0.4896  0.1220 -0.8935
  156SAPE   C3917414   2.145   0.979   7.657  0.5284 -0.0439 -0.4988
  156SAPE   H9X17415   2.111   1.084   7.665 -0.2717 -0.3618  0.6339
  156SAPE   H9Y17416   2.255   0.961   7.655  0.9053  1.6072  1.8744
  156SAPE  C31017417   2.077   0.918   7.784 -0.2379  0.0116  0.5904
  156SAPE  H10X17418   2.070   0.810   7.761  0.8342  0.5255 -2.6607
  156SAPE  H10Y17419   1.971   0.952   7.786 -0.4138 -0.3939 -0.6649
  156SAPE  C31117420   2.141   0.950   7.919 -0.6264  0.0685 -0.2875
  156SAPE  H11X17421   2.144   1.060   7.936 -0.7904  0.0212  0.0531
  156SAPE  H11Y17422   2.245   0.912   7.930 -0.4522  0.9804  1.8922
  156SAPE  C31217423   2.066   0.877   8.038  0.0970  0.5433 -0.1665
  156SAPE  H12X17424   2.069   0.772   8.004 -1.0404  0.4614 -0.0538
  156SAPE  H12Y17425   1.965   0.923   8.036  0.5878  1.8220  1.6036
  156SAPE  C31317426   2.137   0.888   8.171 -0.5405  0.2862  0.9351
  156SAPE  H13X17427   2.153   0.998   8.179  1.2987  0.0829  0.4589
  156SAPE  H13Y17428   2.233   0.833   8.169 -1.7987 -2.0197  1.2742
  156SAPE  C31417429   2.062   0.836   8.289 -0.0204  0.7205  0.3369
  156SAPE  H14X17430   2.055   0.726   8.269  1.9825  0.4188  0.9996
  156SAPE  H14Y17431   1.960   0.879   8.291  0.7156  2.6243 -0.7615
  156SAPE  C31517432   2.124   0.864   8.426  0.4704 -0.4292  0.4377
  156SAPE  H15X17433   2.145   0.973   8.422  1.2344 -0.5578  0.6773
  156SAPE  H15Y17434   2.226   0.822   8.418  0.7987  0.2480  0.9384
  156SAPE  C31617435   2.035   0.820   8.546 -0.4247 -0.3034  0.2413
  156SAPE  H16X17436   1.939   0.872   8.528  0.7958  2.2222  0.6552
  156SAPE  H16Y17437   2.079   0.864   8.637 -2.0451 -0.2210  1.0191
  156SAPE  C31717438   2.015   0.672   8.560  0.8846  0.1375 -0.0775
  156SAPE  H17X17439   2.113   0.621   8.567 -0.0636 -1.6803  0.4412
  156SAPE  H17Y17440   1.958   0.636   8.472 -1.8762  4.5634 -0.4157
  156SAPE  C31817441   1.932   0.642   8.687 -0.0226  0.4028  0.1433
  156SAPE  H18X17442   1.854   0.566   8.667  0.1237  0.6856 -1.7085
  156SAPE  H18Y17443   1.877   0.730   8.726 -0.2615  0.7595 -0.9547
  156SAPE  H18Z17444   2.000   0.604   8.766 -2.3783  0.7839  2.4773
  157SAPE     N17445   1.481   3.797   6.270  0.0029  0.7168  0.0968
  157SAPE   HN117446   1.565   3.777   6.212  1.0286  2.2069  1.0087
  157SAPE   HN217447   1.395   3.779   6.215  2.2025  0.1845 -3.4776
  157SAPE   HN317448   1.484   3.896   6.300  0.6937  0.9390 -0.6801
  157SAPE   C1217449   1.481   3.718   6.397 -0.1813  0.0029  0.6093
  157SAPE  H12A17450   1.542   3.758   6.481 -0.4390 -3.0722  2.4240
  157SAPE  H12B17451   1.517   3.619   6.363 -0.8283  0.8652 -2.9337
  157SAPE   C1117452   1.342   3.703   6.452  0.4320  0.6243  0.0034
  157SAPE  H11A17453   1.303   3.799   6.490 -0.8595 -0.0648  0.4756
  157SAPE  H11B17454   1.340   3.627   6.534 -0.0946  0.1671 -0.4262
  157SAPE     P17455   1.119   3.579   6.367 -0.1481 -0.1912  0.0279
  157SAPE   O1317456   0.997   3.669   6.383 -0.2126  0.1265  0.1312
  157SAPE   O1417457   1.120   3.483   6.251 -0.3332 -0.9508  0.4090
  157SAPE   O1217458   1.247   3.663   6.349  0.1525  0.1447 -0.3102
  157SAPE   O1117459   1.150   3.502   6.503  0.1300 -0.0960  0.6617
  157SAPE    C117460   1.177   3.366   6.495  0.0001  0.7963  0.1466
  157SAPE    HA17461   1.091   3.312   6.449  1.2243  0.9099 -2.4810
  157SAPE    HB17462   1.269   3.357   6.433  0.7734  3.1912  0.8382
  157SAPE    C217463   1.206   3.314   6.635  0.0378  0.8584  0.0601
  157SAPE    HS17464   1.217   3.203   6.634  2.1482  1.0297 -1.0335
  157SAPE   O2117465   1.103   3.353   6.732 -0.1062 -0.5187 -0.0495
  157SAPE   C2117466   0.974   3.307   6.715  0.2532 -0.3852 -0.0951
  157SAPE   O2217467   0.938   3.224   6.633 -0.0752 -0.0794 -0.1434
  157SAPE   C2217468   0.883   3.369   6.817  0.4138  0.1486  0.0610
  157SAPE   H2R17469   0.882   3.478   6.792 -0.1643  0.2035  0.3151
  157SAPE   H2S17470   0.782   3.330   6.795  0.3574  1.2218 -1.7862
  157SAPE    C317471   1.352   3.359   6.684 -0.4924  1.2955  1.1946
  157SAPE    HX17472   1.362   3.469   6.672 -1.3064  1.6030  3.0185
  157SAPE    HY17473   1.408   3.312   6.600 -0.8582  1.0834  1.0696
  157SAPE   O3117474   1.386   3.319   6.819  0.1584 -0.3118  0.2059
  157SAPE   C3117475   1.367   3.408   6.915 -0.4896 -0.0836 -0.6132
  157SAPE   O3217476   1.330   3.525   6.891 -0.0626  0.5763  0.0787
  157SAPE   C3217477   1.397   3.353   7.057  0.1245 -0.3881  0.6436
  157SAPE   H2X17478   1.494   3.299   7.067 -0.0062 -0.2962  2.8678
  157SAPE   H2Y17479   1.310   3.284   7.065 -0.2852 -0.0151 -0.4285
  157SAPE   C2317480   0.933   3.346   6.953 -0.6552 -0.5028 -0.2277
  157SAPE   H3R17481   1.030   3.392   6.980  0.6258 -2.5695 -1.1079
  157SAPE   H3S17482   0.944   3.238   6.977  1.2162 -1.0287 -3.0395
  157SAPE   C2417483   0.835   3.392   7.065  0.1430  0.0601  1.0713
  157SAPE   H4R17484   0.881   3.350   7.157  0.9068 -0.7334  0.3440
  157SAPE   H4S17485   0.733   3.350   7.066 -1.2400  3.1184  1.7642
  157SAPE   C2517486   0.800   3.540   7.073  0.8091 -0.1510 -0.1793
  157SAPE   H5R17487   0.732   3.584   6.998  2.2154  0.7483 -0.9545
  157SAPE   C2617488   0.827   3.621   7.178 -0.2338 -0.1263  0.1493
  157SAPE   H6R17489   0.786   3.723   7.167  0.0373 -0.0281  0.0375
  157SAPE   C2717490   0.902   3.602   7.306  0.2940  0.2577  0.0419
  157SAPE   H7R17491   0.954   3.698   7.327 -0.4785  0.5002  0.8869
  157SAPE   H7S17492   0.983   3.527   7.300  1.8697  1.8015  0.9189
  157SAPE   C2817493   0.817   3.557   7.427  0.0097 -0.0190  0.7947
  157SAPE   H8R17494   0.750   3.632   7.471 -0.0483  1.0116 -0.9392
  157SAPE   C2917495   0.819   3.441   7.492  0.6506 -0.2305  0.3413
  157SAPE   H9R17496   0.736   3.419   7.561  0.5060  0.6485  0.4593
  157SAPE  C21017497   0.906   3.326   7.462 -0.4159 -0.2780  0.1964
  157SAPE  H10R17498   0.988   3.354   7.392  2.0085  0.9953  3.2861
  157SAPE  H10S17499   0.844   3.245   7.420  0.5281 -1.3599  0.8337
  157SAPE  C21117500   0.985   3.261   7.573  0.2256  0.5639 -0.3526
  157SAPE  H11R17501   1.083   3.233   7.531 -0.0049  1.8799 -1.8589
  157SAPE  C21217502   0.967   3.218   7.703 -0.1434  0.3431 -0.4968
  157SAPE  H12R17503   1.049   3.175   7.763 -1.6002 -1.5484  0.2662
  157SAPE  C21317504   0.850   3.247   7.785 -0.9841 -0.5217  0.9932
  157SAPE  H13R17505   0.821   3.148   7.826 -1.0838 -1.9203 -2.0993
  157SAPE  H13S17506   0.765   3.282   7.722 -1.3298  0.4157  1.9604
  157SAPE  C21417507   0.884   3.348   7.886  0.2779  0.3014  0.0272
  157SAPE  H14R17508   0.958   3.427   7.865  0.1041  0.7265  0.9519
  157SAPE  C21517509   0.839   3.357   8.012  0.5999  0.5257 -0.1908
  157SAPE  H15R17510   0.864   3.439   8.080  0.7605  0.0574  0.3247
  157SAPE  C21617511   0.739   3.253   8.069 -0.2800  0.1129 -0.0032
  157SAPE  H16R17512   0.763   3.148   8.043  1.1422 -0.2177  2.3304
  157SAPE  H16S17513   0.636   3.276   8.036 -0.8987  1.6690  2.7670
  157SAPE  C21717514   0.739   3.263   8.222  0.5501 -0.1793 -0.3884
  157SAPE  H17R17515   0.738   3.369   8.255 -0.5715 -0.4554  0.5067
  157SAPE  H17S17516   0.829   3.218   8.270  1.4636  2.4940  0.5976
  157SAPE  C21817517   0.617   3.203   8.289 -0.1986 -0.0461 -0.1271
  157SAPE  H18R17518   0.589   3.101   8.257 -0.4121 -0.6072  1.7529
  157SAPE  H18S17519   0.532   3.273   8.272  0.2108  0.3614 -0.5289
  157SAPE  C21917520   0.626   3.189   8.445 -0.4673  0.2511  0.4887
  157SAPE  H19R17521   0.662   3.282   8.494 -2.0123  0.3983  1.4183
  157SAPE  H19S17522   0.690   3.101   8.465 -0.2049  0.0541 -1.0421
  157SAPE  C22017523   0.492   3.161   8.510  0.2793 -0.5334 -0.1997
  157SAPE  H20R17524   0.423   3.242   8.480  1.2411 -0.1141 -1.3717
  157SAPE  H20S17525   0.493   3.172   8.621 -1.2737  0.5387 -0.2683
  157SAPE  H20T17526   0.461   3.057   8.487  2.3306 -1.2386  0.0258
  157SAPE   C3317527   1.398   3.460   7.164 -0.9137 -0.4653  0.0527
  157SAPE   H3X17528   1.295   3.502   7.153 -1.0784 -1.3128 -2.1851
  157SAPE   H3Y17529   1.471   3.541   7.142 -1.6010  0.3790  0.7422
  157SAPE   C3417530   1.415   3.409   7.309  0.2671  0.0055 -0.1011
  157SAPE   H4X17531   1.523   3.412   7.331  0.0433  1.1598  0.9282
  157SAPE   H4Y17532   1.379   3.304   7.311 -2.0628  0.7515  1.8303
  157SAPE   C3517533   1.334   3.492   7.413  0.1759  0.2965  0.4863
  157SAPE   H5X17534   1.227   3.511   7.388 -0.6019  1.6668  4.1372
  157SAPE   H5Y17535   1.386   3.588   7.434 -0.9420  0.5861  2.1133
  157SAPE   C3617536   1.339   3.437   7.558 -0.0675  0.6718  0.1063
  157SAPE   H6X17537   1.445   3.438   7.589  0.0906 -0.6826 -0.3013
  157SAPE   H6Y17538   1.308   3.330   7.563  0.2321  0.5526 -0.4712
  157SAPE   C3717539   1.241   3.507   7.650 -0.0053 -0.3237  0.3475
  157SAPE   H7X17540   1.226   3.439   7.736 -1.4977  0.2848  0.6169
  157SAPE   H7Y17541   1.144   3.516   7.596 -0.4070 -2.4242  0.6488
  157SAPE   C3817542   1.288   3.645   7.691  0.0570 -0.1252  0.7429
  157SAPE   H8X17543   1.247   3.735   7.639 -0.6408 -0.5297  0.5804
  157SAPE   H8Y17544   1.391   3.649   7.648  0.2762  2.6478  1.3056
  157SAPE   C3917545   1.303   3.674   7.839  0.0928 -0.1332 -0.5772
  157SAPE   H9X17546   1.207   3.663   7.893  0.0099 -2.3716 -1.0820
  157SAPE   H9Y17547   1.329   3.780   7.859  0.7643 -0.7359  2.0776
  157SAPE  C31017548   1.416   3.583   7.898 -0.1848 -0.3478  0.5310
  157SAPE  H10X17549   1.500   3.589   7.825 -1.4483  0.1213 -0.9463
  157SAPE  H10Y17550   1.383   3.477   7.903 -2.2309  0.2370  0.3125
  157SAPE  C31117551   1.444   3.616   8.044 -0.0135 -0.6234  0.5468
  157SAPE  H11X17552   1.348   3.623   8.101 -0.2516  1.5425  0.0012
  157SAPE  H11Y17553   1.498   3.713   8.056  2.2562 -1.9086  1.2727
  157SAPE  C31217554   1.527   3.511   8.122  0.1239 -0.1141 -0.2401
  157SAPE  H12X17555   1.631   3.527   8.087  0.2607 -1.0677 -0.2910
  157SAPE  H12Y17556   1.489   3.410   8.094 -0.2837  0.2568 -1.0532
  157SAPE  C31317557   1.507   3.537   8.274  0.2394 -0.4013  0.4643
  157SAPE  H13X17558   1.404   3.508   8.304  0.7340 -3.2009 -0.2268
  157SAPE  H13Y17559   1.527   3.642   8.302 -1.6091  0.0831  0.1473
  157SAPE  C31417560   1.604   3.457   8.362  0.0078  0.4798 -0.0828
  157SAPE  H14X17561   1.711   3.483   8.344 -0.1855  2.1424  0.9087
  157SAPE  H14Y17562   1.591   3.348   8.347  0.0829  0.4686 -0.0706
  157SAPE  C31517563   1.588   3.479   8.514  0.2390  0.1650 -0.6198
  157SAPE  H15X17564   1.481   3.477   8.541  0.8726 -1.2223  2.2154
  157SAPE  H15Y17565   1.627   3.579   8.541  0.5505  0.1137 -0.8666
  157SAPE  C31617566   1.668   3.377   8.591  0.7997 -0.2463 -0.2644
  157SAPE  H16X17567   1.774   3.379   8.560  1.1194 -2.8951  0.3840
  157SAPE  H16Y17568   1.630   3.273   8.579  0.7806 -0.4209  1.1263
  157SAPE  C31717569   1.671   3.402   8.742 -0.3026  0.1798  0.6096
  157SAPE  H17X17570   1.568   3.380   8.775 -0.3408 -0.2515  0.2137
  157SAPE  H17Y17571   1.687   3.509   8.767 -1.4914  0.5130 -0.0015
  157SAPE  C31817572   1.783   3.323   8.814  0.1613 -0.2054 -0.8431
  157SAPE  H18X17573   1.750   3.217   8.818 -1.8651  0.4264  1.1586
  157SAPE  H18Y17574   1.793   3.356   8.920  3.2470 -2.1048 -0.4217
  157SAPE  H18Z17575   1.882   3.336   8.764  0.1346 -4.4536 -2.4412
  158SAPE     N17576   0.275   0.188   6.140  0.4166 -0.1046  0.3655
  158SAPE   HN117577   0.269   0.272   6.078  0.4478 -0.3859 -0.0274
  158SAPE   HN217578   0.372   0.154   6.122 -0.0552 -1.0802 -0.4242
  158SAPE   HN317579   0.212   0.119   6.095  1.3573  0.5579 -2.1719
  158SAPE   C1217580   0.250   0.216   6.283 -0.3170 -1.0168  0.3020
  158SAPE  H12A17581   0.272   0.127   6.346 -0.5636  1.1471  3.7424
  158SAPE  H12B17582   0.143   0.245   6.295  0.1057  1.5833 -1.4791
  158SAPE   C1117583   0.337   0.334   6.332 -0.2139  0.4002  0.9836
  158SAPE  H11A17584   0.440   0.294   6.330 -0.6488 -0.8838  2.2117
  158SAPE  H11B17585   0.305   0.372   6.431  0.4582  1.0953  0.9420
  158SAPE     P17586   0.448   0.551   6.232 -0.0562  0.5259 -0.4403
  158SAPE   O1317587   0.574   0.477   6.192  0.1855 -0.9005 -0.1765
  158SAPE   O1417588   0.400   0.658   6.147 -0.4804  0.1206  0.6432
  158SAPE   O1217589   0.331   0.444   6.238 -0.4222  0.1199  0.0067
  158SAPE   O1117590   0.462   0.605   6.385  0.0783 -0.2455  0.3807
  158SAPE    C117591   0.371   0.701   6.448  0.1569 -0.5697 -0.2600
  158SAPE    HA17592   0.352   0.781   6.373 -0.3377  1.3254  1.8007
  158SAPE    HB17593   0.274   0.654   6.476 -0.1280  0.1330 -0.0314
  158SAPE    C217594   0.428   0.767   6.586  0.2291  0.5839  0.1001
  158SAPE    HS17595   0.516   0.831   6.561  1.3445 -1.1512 -0.5753
  158SAPE   O2117596   0.470   0.667   6.677  0.1608  0.9538  0.2610
  158SAPE   C2117597   0.572   0.690   6.759 -0.3862 -0.1463 -0.0768
  158SAPE   O2217598   0.640   0.790   6.749 -0.2462  0.6457  0.6208
  158SAPE   C2217599   0.587   0.583   6.859  0.1390  0.2738  0.0855
  158SAPE   H2R17600   0.487   0.538   6.870  0.0577  0.0009 -1.4994
  158SAPE   H2S17601   0.651   0.498   6.828 -0.1435  0.2254 -0.3684
  158SAPE    C317602   0.320   0.850   6.653  0.4842 -0.0148 -0.2331
  158SAPE    HX17603   0.239   0.775   6.665  1.4638 -1.1190 -0.3240
  158SAPE    HY17604   0.286   0.935   6.589 -0.7979  0.0358  0.4979
  158SAPE   O3117605   0.355   0.892   6.784 -0.3164  1.0596  0.6376
  158SAPE   C3117606   0.432   0.999   6.781  0.2846 -0.2712 -0.0827
  158SAPE   O3217607   0.475   1.057   6.685  0.0051 -0.1851  0.0394
  158SAPE   C3217608   0.450   1.043   6.930 -0.6172  0.4486  0.4247
  158SAPE   H2X17609   0.398   0.974   7.000  2.5320 -1.5686  0.9987
  158SAPE   H2Y17610   0.409   1.143   6.955  0.0009  0.3274  2.0852
  158SAPE   C2317611   0.641   0.630   7.000 -0.1647 -0.0602  0.3880
  158SAPE   H3R17612   0.635   0.537   7.061  0.1687 -2.1579 -2.5695
  158SAPE   H3S17613   0.580   0.715   7.038 -1.0009 -1.1776  1.6317
  158SAPE   C2417614   0.793   0.670   6.997  0.2101 -0.1494 -0.0823
  158SAPE   H4R17615   0.810   0.734   6.908  2.1459  0.5196  0.7190
  158SAPE   H4S17616   0.861   0.588   6.965  1.6544  1.2885 -0.7945
  158SAPE   C2517617   0.863   0.737   7.118  0.1437 -0.8692  0.5066
  158SAPE   H5R17618   0.969   0.764   7.101  0.9475 -2.4875  2.4811
  158SAPE   C2617619   0.810   0.755   7.239  0.3139 -0.7081 -0.7184
  158SAPE   H6R17620   0.875   0.817   7.302 -0.8770 -0.4924  0.3358
  158SAPE   C2717621   0.675   0.725   7.303  0.5821  0.7032  0.5355
  158SAPE   H7R17622   0.666   0.615   7.311 -1.0860  0.7510 -0.3053
  158SAPE   H7S17623   0.594   0.764   7.237 -0.3517  0.3627  1.4517
  158SAPE   C2817624   0.649   0.803   7.433 -0.8742  0.4847 -0.1826
  158SAPE   H8R17625   0.577   0.887   7.429 -1.3309  0.0759 -0.8181
  158SAPE   C2917626   0.716   0.782   7.548 -0.3255 -0.1488  0.1954
  158SAPE   H9R17627   0.690   0.845   7.634 -3.4699 -0.5498 -0.3237
  158SAPE  C21017628   0.809   0.670   7.566 -0.3521 -0.6840 -0.3136
  158SAPE  H10R17629   0.889   0.690   7.641 -0.2137 -1.3178 -0.2853
  158SAPE  H10S17630   0.865   0.643   7.475  2.0360 -0.2169  0.9414
  158SAPE  C21117631   0.743   0.541   7.613  0.2295  0.0653  0.6019
  158SAPE  H11R17632   0.741   0.466   7.533  1.9197 -1.2334  1.6985
  158SAPE  C21217633   0.701   0.514   7.740  0.0519  0.8787 -0.5309
  158SAPE  H12R17634   0.657   0.416   7.763  2.7275  0.2063  2.4107
  158SAPE  C21317635   0.711   0.627   7.849 -0.8911  0.7149  0.7118
  158SAPE  H13R17636   0.717   0.730   7.808  1.0455  0.8232  1.1734
  158SAPE  H13S17637   0.806   0.620   7.906 -0.2794 -1.0206 -0.4558
  158SAPE  C21417638   0.585   0.617   7.936  0.0625  0.1389  0.4078
  158SAPE  H14R17639   0.490   0.618   7.880  0.2939 -1.3704 -0.0486
  158SAPE  C21517640   0.577   0.624   8.066  0.2768  0.2581  0.0517
  158SAPE  H15R17641   0.478   0.647   8.108  0.5130 -0.0083  0.7678
  158SAPE  C21617642   0.689   0.627   8.164 -0.0328 -0.2517  0.3380
  158SAPE  H16R17643   0.697   0.724   8.218 -1.2172  1.3432 -2.1363
  158SAPE  H16S17644   0.790   0.609   8.121  0.3867  1.9197  0.2737
  158SAPE  C21717645   0.675   0.528   8.280  0.0676  0.5763  0.0229
  158SAPE  H17R17646   0.772   0.514   8.331  0.1008 -1.2216 -0.4612
  158SAPE  H17S17647   0.657   0.426   8.241 -0.5569  1.2343 -1.5094
  158SAPE  C21817648   0.577   0.571   8.393 -0.7311  0.0030 -0.1769
  158SAPE  H18R17649   0.522   0.482   8.432 -1.2718  0.1485 -0.5931
  158SAPE  H18S17650   0.509   0.643   8.344  0.7977  0.5709 -1.5621
  158SAPE  C21917651   0.635   0.650   8.519 -0.5246 -0.3783 -0.0839
  158SAPE  H19R17652   0.720   0.709   8.478  0.1709  0.3623  2.2781
  158SAPE  H19S17653   0.686   0.574   8.583  0.0752  0.7092  0.7648
  158SAPE  C22017654   0.526   0.724   8.596 -0.1922 -0.3799  0.3439
  158SAPE  H20R17655   0.575   0.780   8.679  1.2597  1.0844 -1.4166
  158SAPE  H20S17656   0.457   0.648   8.638  0.1073 -2.1564 -2.1440
  158SAPE  H20T17657   0.479   0.788   8.519  0.8215 -1.1486 -0.9449
  158SAPE   C3317658   0.598   1.055   6.976  0.0296  0.1928 -0.1678
  158SAPE   H3X17659   0.657   1.122   6.910 -1.3872  1.2312 -0.4390
  158SAPE   H3Y17660   0.649   0.957   6.962  0.1861 -0.0262  1.7401
  158SAPE   C3417661   0.601   1.084   7.131 -0.8226 -0.4673  0.0119
  158SAPE   H4X17662   0.706   1.070   7.166  0.3430  3.9120 -1.1551
  158SAPE   H4Y17663   0.534   1.021   7.194 -2.1461  1.4544  0.6167
  158SAPE   C3517664   0.570   1.226   7.156  0.8114 -0.6022 -0.0127
  158SAPE   H5X17665   0.464   1.257   7.147  1.1819  1.0536  0.9547
  158SAPE   H5Y17666   0.630   1.295   7.092  0.8699  2.6137  3.2007
  158SAPE   C3617667   0.607   1.272   7.302  0.1269 -0.8936 -0.3365
  158SAPE   H6X17668   0.655   1.373   7.304  0.2735 -0.9067 -2.0962
  158SAPE   H6Y17669   0.686   1.200   7.333 -0.0805 -1.3700 -0.9012
  158SAPE   C3717670   0.495   1.265   7.407 -0.3999 -0.1761 -0.3401
  158SAPE   H7X17671   0.430   1.354   7.392 -1.1001 -0.1599  2.2797
  158SAPE   H7Y17672   0.427   1.178   7.400  1.1217 -1.5104  0.8179
  158SAPE   C3817673   0.551   1.286   7.548 -0.0048 -0.0588 -0.8143
  158SAPE   H8X17674   0.467   1.311   7.615  1.0251  0.1058  0.4587
  158SAPE   H8Y17675   0.615   1.377   7.545  2.5660 -1.7838 -3.5196
  158SAPE   C3917676   0.638   1.167   7.611 -0.4911 -0.8000  0.1701
  158SAPE   H9X17677   0.701   1.118   7.534  0.3761 -2.3778  1.8081
  158SAPE   H9Y17678   0.565   1.085   7.626 -1.0423 -0.2644  0.4783
  158SAPE  C31017679   0.699   1.199   7.748 -0.2655  0.3182 -0.4803
  158SAPE  H10X17680   0.628   1.262   7.806  0.0474  0.4684 -0.2629
  158SAPE  H10Y17681   0.789   1.257   7.719  1.1318 -1.2120  0.6590
  158SAPE  C31117682   0.744   1.078   7.829  0.6147  0.1709  0.0009
  158SAPE  H11X17683   0.782   1.000   7.760 -0.8631  0.6639 -1.4222
  158SAPE  H11Y17684   0.651   1.044   7.881 -0.1556 -0.6188 -1.8287
  158SAPE  C31217685   0.847   1.112   7.934 -0.1467  0.0506 -0.6511
  158SAPE  H12X17686   0.825   1.204   7.993  1.4057  0.2665 -0.3535
  158SAPE  H12Y17687   0.950   1.134   7.898  0.7281  0.9641  2.1168
  158SAPE  C31317688   0.886   1.003   8.036  0.2663 -0.5409  0.4848
  158SAPE  H13X17689   0.909   0.906   7.988 -1.2773  0.1346 -1.7832
  158SAPE  H13Y17690   0.788   0.992   8.088 -0.2494  3.1931  0.5647
  158SAPE  C31417691   1.010   1.047   8.128  0.4356 -0.2663  0.0300
  158SAPE  H14X17692   0.985   1.134   8.192 -1.2734 -0.1263 -0.7672
  158SAPE  H14Y17693   1.084   1.085   8.055 -3.2288  0.2921 -3.7694
  158SAPE  C31517694   1.045   0.926   8.217  0.4128 -0.3945  0.0846
  158SAPE  H15X17695   1.076   0.843   8.150 -0.6620  0.2233 -1.2158
  158SAPE  H15Y17696   0.952   0.884   8.260  1.2726 -0.7836  1.6270
  158SAPE  C31617697   1.141   0.969   8.326  0.0629  0.0876 -0.0466
  158SAPE  H16X17698   1.088   1.034   8.399  1.5364  1.8154 -0.4219
  158SAPE  H16Y17699   1.220   1.041   8.295  0.7510  0.5340  2.5011
  158SAPE  C31717700   1.200   0.844   8.403 -0.2545 -0.0137 -1.0740
  158SAPE  H17X17701   1.115   0.773   8.416 -1.0233  0.8770 -1.1403
  158SAPE  H17Y17702   1.235   0.866   8.505  0.4412 -2.0728 -0.8217
  158SAPE  C31817703   1.313   0.774   8.323 -0.1318  0.1012 -0.8562
  158SAPE  H18X17704   1.267   0.726   8.234  0.0596 -0.8935 -0.4209
  158SAPE  H18Y17705   1.371   0.700   8.382  1.4365  1.2999 -0.8072
  158SAPE  H18Z17706   1.387   0.851   8.291 -0.5283  2.2527  2.8840
  159SAPE     N17707   2.850   2.803   6.421 -0.4626  0.0806  0.4286
  159SAPE   HN117708   2.835   2.862   6.506 -2.0836 -0.4654  0.5457
  159SAPE   HN217709   2.754   2.790   6.383 -0.4948  0.8963  0.2043
  159SAPE   HN317710   2.906   2.719   6.445  1.5450  1.1787 -0.1436
  159SAPE   C1217711   2.939   2.868   6.325  0.3496 -0.4143 -0.3736
  159SAPE  H12A17712   2.883   2.956   6.285 -0.4670 -1.3832 -1.4076
  159SAPE  H12B17713   2.952   2.808   6.233 -0.7831 -0.3090 -0.6176
  159SAPE   C1117714   3.064   2.922   6.394 -0.9758 -0.3190  0.4290
  159SAPE  H11A17715   3.116   2.995   6.328 -1.1697 -0.3411  0.2526
  159SAPE  H11B17716   3.130   2.833   6.408 -1.0501 -0.2049  1.5630
  159SAPE     P17717   3.142   3.071   6.596 -0.1338  0.0137 -0.0053
  159SAPE   O1317718   3.274   3.056   6.537  0.0206 -0.0712 -0.3443
  159SAPE   O1417719   3.083   3.206   6.588 -0.0915 -0.3623  0.2660
  159SAPE   O1217720   3.046   2.967   6.527 -0.1812  0.2946  0.1374
  159SAPE   O1117721   3.152   3.018   6.741  0.8019  0.1290 -0.4062
  159SAPE    C117722   3.057   2.915   6.784  0.1033 -0.0037 -0.4202
  159SAPE    HA17723   2.959   2.935   6.736  0.2685 -0.0469 -0.7834
  159SAPE    HB17724   3.089   2.814   6.753 -1.9142 -0.0954 -2.4396
  159SAPE    C217725   3.032   2.915   6.935  0.0165 -0.1397 -0.1958
  159SAPE    HS17726   2.962   2.837   6.974  2.1042 -2.0310 -0.0703
  159SAPE   O2117727   2.985   3.043   6.987 -0.2283 -0.4089  0.4408
  159SAPE   C2117728   2.863   3.089   6.963  0.2742 -0.0068 -0.2145
  159SAPE   O2217729   2.779   3.028   6.894 -0.5110  0.3328 -0.5991
  159SAPE   C2217730   2.849   3.236   7.018 -0.7494  0.4461 -0.5081
  159SAPE   H2R17731   2.755   3.268   6.968 -1.2785  1.0082  0.8045
  159SAPE   H2S17732   2.833   3.233   7.128 -0.4414  0.4214 -0.4642
  159SAPE    C317733   3.170   2.888   7.004  0.2523 -0.0457 -0.6859
  159SAPE    HX17734   3.254   2.940   6.953  1.9744 -1.8884  0.1218
  159SAPE    HY17735   3.190   2.780   6.984  0.7860 -0.0938  0.0457
  159SAPE   O3117736   3.156   2.907   7.148 -0.4654 -0.2741 -0.4390
  159SAPE   C3117737   3.244   3.002   7.199 -0.1601  0.7887  0.1352
  159SAPE   O3217738   3.328   3.061   7.138  0.5824 -0.4649 -0.1789
  159SAPE   C3217739   3.195   3.041   7.343 -0.7569  0.2551 -0.0204
  159SAPE   H2X17740   3.200   3.152   7.347 -0.6401  0.2850 -0.8842
  159SAPE   H2Y17741   3.266   2.999   7.418 -1.1110  0.4092  0.4052
  159SAPE   C2317742   2.973   3.315   6.968 -0.5922  0.1478  0.0875
  159SAPE   H3R17743   2.945   3.363   6.872 -0.1058  0.1150 -0.0726
  159SAPE   H3S17744   3.050   3.247   6.926 -1.0202 -1.0726  1.2117
  159SAPE   C2417745   3.024   3.409   7.079  0.2703 -0.3887 -0.5357
  159SAPE   H4R17746   3.055   3.352   7.168  1.7130 -0.4605 -1.0562
  159SAPE   H4S17747   2.944   3.480   7.112 -1.4658 -2.9582  1.0869
  159SAPE   C2517748   3.143   3.494   7.024 -0.4659 -0.4137 -0.4557
  159SAPE   H5R17749   3.109   3.554   6.939  0.6127  1.0569  0.1122
  159SAPE   C2617750   3.272   3.487   7.069  0.5332  0.2374  0.3873
  159SAPE   H6R17751   3.342   3.553   7.016 -0.3172  0.5233 -0.4091
  159SAPE   C2717752   3.322   3.407   7.184  0.4682 -0.4436 -0.1475
  159SAPE   H7R17753   3.431   3.393   7.170  0.1144 -1.5051 -2.2167
  159SAPE   H7S17754   3.283   3.304   7.174  2.4017 -1.1157 -1.2952
  159SAPE   C2817755   3.277   3.460   7.319  0.6056 -0.4230  0.0036
  159SAPE   H8R17756   3.191   3.529   7.318  0.5418 -0.4438  1.8184
  159SAPE   C2917757   3.322   3.431   7.444  0.2117  0.0068 -0.2471
  159SAPE   H9R17758   3.273   3.476   7.532 -1.2634 -0.3323 -0.8639
  159SAPE  C21017759   3.437   3.339   7.483  0.4781 -0.0277 -0.4287
  159SAPE  H10R17760   3.497   3.300   7.399 -0.8108 -1.8317 -0.5879
  159SAPE  H10S17761   3.391   3.258   7.544  1.1530 -1.2746 -1.5209
  159SAPE  C21117762   3.522   3.413   7.587  0.4831 -0.7095 -0.3204
  159SAPE  H11R17763   3.597   3.481   7.546  0.3669  0.5879  1.4854
  159SAPE  C21217764   3.511   3.401   7.721 -0.2841 -0.2720  0.1959
  159SAPE  H12R17765   3.582   3.460   7.782 -0.7111  3.1753 -2.3044
  159SAPE  C21317766   3.421   3.310   7.799  0.8537  0.5537  0.2631
  159SAPE  H13R17767   3.490   3.231   7.835  0.9195 -1.1664 -3.2445
  159SAPE  H13S17768   3.344   3.267   7.731  1.2323 -0.2616  0.3301
  159SAPE  C21417769   3.358   3.390   7.906  0.9847 -0.4966  0.1591
  159SAPE  H14R17770   3.255   3.424   7.889  1.2092  0.2233  0.1757
  159SAPE  C21517771   3.403   3.424   8.030 -0.5979 -0.1445 -0.1122
  159SAPE  H15R17772   3.338   3.499   8.077  0.8273  1.5178 -0.6837
  159SAPE  C21617773   3.535   3.398   8.096 -0.2440 -0.4178  0.2126
  159SAPE  H16R17774   3.553   3.489   8.158 -2.9169  0.9276 -0.8469
  159SAPE  H16S17775   3.616   3.389   8.021  0.5148  1.0823  0.8227
  159SAPE  C21717776   3.521   3.275   8.189  0.2450 -0.1199  0.0417
  159SAPE  H17R17777   3.619   3.254   8.236 -0.6371 -2.6623  0.9368
  159SAPE  H17S17778   3.494   3.181   8.135  0.5900 -0.6451  0.7649
  159SAPE  C21817779   3.421   3.295   8.310 -0.6008  0.6203  0.8856
  159SAPE  H18R17780   3.317   3.279   8.274 -0.1007  1.2234 -0.9074
  159SAPE  H18S17781   3.432   3.400   8.344  2.6695  0.8008 -0.4095
  159SAPE  C21917782   3.451   3.207   8.438  0.3781  1.1959 -0.8792
  159SAPE  H19R17783   3.556   3.231   8.461  0.4342  0.1517  0.0659
  159SAPE  H19S17784   3.445   3.097   8.419  1.0369  0.5268  2.2259
  159SAPE  C22017785   3.346   3.240   8.546  0.1340  0.5355 -0.2383
  159SAPE  H20R17786   3.242   3.217   8.514  0.1188  0.8895 -0.4576
  159SAPE  H20S17787   3.355   3.347   8.576  1.1188 -0.1263  2.0348
  159SAPE  H20T17788   3.375   3.188   8.639  0.0117 -1.5113 -1.2882
  159SAPE   C3317789   3.046   2.997   7.372  0.0656 -0.7840 -0.5356
  159SAPE   H3X17790   3.045   2.886   7.377 -0.7455 -0.8035 -1.0756
  159SAPE   H3Y17791   2.984   3.051   7.298  1.3787  1.4893 -0.0631
  159SAPE   C3417792   2.992   3.052   7.514  0.3601 -0.1925  0.0682
  159SAPE   H4X17793   2.885   3.019   7.518  0.8717 -1.9391  3.0785
  159SAPE   H4Y17794   2.993   3.162   7.506 -2.7744 -0.0413  0.5145
  159SAPE   C3517795   3.061   3.004   7.640  0.2169  0.5908  0.6846
  159SAPE   H5X17796   3.170   3.020   7.624  0.3300  1.6368  2.3046
  159SAPE   H5Y17797   3.059   2.893   7.646  2.2402  0.4459 -0.4900
  159SAPE   C3617798   3.011   3.082   7.765 -0.6825  0.0113  0.4327
  159SAPE   H6X17799   2.900   3.077   7.769 -0.8894  0.2140 -2.4294
  159SAPE   H6Y17800   3.047   3.187   7.756  0.6782  0.1637  5.1585
  159SAPE   C3717801   3.068   3.025   7.892 -0.1415 -0.4023 -0.6003
  159SAPE   H7X17802   3.177   3.029   7.873 -0.1842  2.1527 -0.6661
  159SAPE   H7Y17803   3.046   2.917   7.902 -0.4477 -0.4911 -2.0552
  159SAPE   C3817804   3.030   3.117   8.007  0.5012  0.0053 -0.1750
  159SAPE   H8X17805   2.920   3.129   8.017  0.5763 -0.3249  1.1808
  159SAPE   H8Y17806   3.064   3.220   7.984  1.3289  0.1691  1.6382
  159SAPE   C3917807   3.091   3.089   8.146 -0.2023  0.2017 -0.1676
  159SAPE   H9X17808   3.099   3.193   8.185 -1.5120  0.9360 -1.7496
  159SAPE   H9Y17809   3.194   3.050   8.133 -0.9845 -1.9806 -0.1861
  159SAPE  C31017810   3.009   3.002   8.236  0.2940 -0.4372 -0.5675
  159SAPE  H10X17811   3.025   2.901   8.191  1.3414 -1.4347  1.8907
  159SAPE  H10Y17812   2.901   3.026   8.224 -0.2837 -1.6268  1.7161
  159SAPE  C31117813   3.044   2.995   8.388  0.9104 -1.0229 -0.1821
  159SAPE  H11X17814   3.154   3.015   8.394  0.8615 -0.9183  0.3677
  159SAPE  H11Y17815   3.013   2.896   8.428  0.4156 -0.4106  0.9667
  159SAPE  C31217816   2.974   3.099   8.477  0.2827  0.5631 -0.3672
  159SAPE  H12X17817   2.866   3.094   8.450  0.4261 -0.2801 -0.8185
  159SAPE  H12Y17818   3.016   3.201   8.469  1.3056  0.1776 -0.1407
  159SAPE  C31317819   2.994   3.061   8.627  0.1846 -0.0920  0.4548
  159SAPE  H13X17820   3.104   3.063   8.643  0.2925  0.5694 -0.3035
  159SAPE  H13Y17821   2.964   2.955   8.640  0.6672 -0.6155 -2.1729
  159SAPE  C31417822   2.920   3.159   8.710  0.2550 -0.2154  0.0102
  159SAPE  H14X17823   2.814   3.153   8.678 -0.1329  0.7876  1.0532
  159SAPE  H14Y17824   2.951   3.264   8.693 -0.7622  0.2624  0.9998
  159SAPE  C31517825   2.916   3.109   8.857 -0.9273  0.0097  0.0577
  159SAPE  H15X17826   2.863   3.012   8.869  1.2434 -1.1087  1.2094
  159SAPE  H15Y17827   2.851   3.176   8.917  0.3371 -2.8946  5.3109
  159SAPE  C31617828   3.054   3.100   8.924 -0.5252 -1.0302 -0.2267
  159SAPE  H16X17829   3.100   3.200   8.915  1.6124 -1.9137  0.0800
  159SAPE  H16Y17830   3.120   3.040   8.858  1.3564  0.6902 -0.0149
  159SAPE  C31717831   3.066   3.035   9.063  0.2463  0.8092 -0.1215
  159SAPE  H17X17832   3.008   2.940   9.060  0.9911  0.3436  0.0262
  159SAPE  H17Y17833   3.021   3.108   9.134 -0.2945  1.8374 -1.4696
  159SAPE  C31817834   3.214   3.002   9.102 -0.5573  0.6907  0.2354
  159SAPE  H18X17835   3.267   2.961   9.014  0.4757  1.1826  0.6199
  159SAPE  H18Y17836   3.219   2.924   9.181 -1.1516 -1.7637 -1.9830
  159SAPE  H18Z17837   3.273   3.093   9.125 -1.6769  2.4273 -3.0346
  160SAPE     N17838   1.332   1.351   6.283  0.6376  0.1851  0.1221
  160SAPE   HN117839   1.268   1.421   6.241  1.0051  1.2432  1.2594
  160SAPE   HN217840   1.302   1.356   6.383 -0.8093  0.1021 -0.2750
  160SAPE   HN317841   1.427   1.393   6.283  0.5086  0.5059 -1.1468
  160SAPE   C1217842   1.321   1.220   6.220 -0.1173 -0.4475  0.2941
  160SAPE  H12A17843   1.326   1.222   6.109 -0.9037 -1.7997  0.2022
  160SAPE  H12B17844   1.223   1.176   6.250  0.9711 -2.7952  0.6004
  160SAPE   C1117845   1.425   1.115   6.272  0.4203  0.1789  0.4161
  160SAPE  H11A17846   1.523   1.157   6.242  0.4152 -0.2158 -0.1774
  160SAPE  H11B17847   1.413   1.020   6.216 -2.0876  0.3527  0.5462
  160SAPE     P17848   1.376   0.966   6.479  0.1086  0.1116  0.1227
  160SAPE   O1317849   1.261   0.923   6.402 -0.8962  0.8199  0.5479
  160SAPE   O1417850   1.497   0.879   6.487  0.0560  0.7366  0.8798
  160SAPE   O1217851   1.414   1.105   6.415 -0.7022  0.8284  0.4032
  160SAPE   O1117852   1.329   0.988   6.624  0.6268 -0.2879 -0.0687
  160SAPE    C117853   1.402   1.069   6.721 -0.6749  0.0386 -0.5074
  160SAPE    HA17854   1.510   1.041   6.731 -0.0965  1.8714 -1.1999
  160SAPE    HB17855   1.410   1.176   6.691 -2.4224  0.9054  1.8588
  160SAPE    C217856   1.324   1.062   6.855 -0.3674  0.4710 -0.4797
  160SAPE    HS17857   1.386   1.077   6.946 -1.8022  0.8200  0.4695
  160SAPE   O2117858   1.248   0.940   6.872  0.2682  0.0243 -0.4431
  160SAPE   C2117859   1.328   0.848   6.909 -1.1401  0.6947  0.2627
  160SAPE   O2217860   1.451   0.847   6.924  0.4681  0.7317  0.4647
  160SAPE   C2217861   1.247   0.725   6.932 -0.2201  0.5716 -0.2197
  160SAPE   H2R17862   1.139   0.739   6.955  0.3530  1.3886  2.3306
  160SAPE   H2S17863   1.254   0.661   6.842 -0.2825  0.3973 -0.1026
  160SAPE    C317864   1.224   1.181   6.862 -0.4051  0.2993  0.9109
  160SAPE    HX17865   1.134   1.166   6.798 -0.1641  0.4693  0.5256
  160SAPE    HY17866   1.265   1.268   6.806 -1.6711 -0.6797 -1.6967
  160SAPE   O3117867   1.193   1.230   6.995  0.1650 -0.0517 -0.0480
  160SAPE   C3117868   1.081   1.198   7.046  0.1875 -0.0245  0.4897
  160SAPE   O3217869   0.989   1.135   6.995  0.2863 -0.7140  0.2411
  160SAPE   C3217870   1.060   1.278   7.188  0.3620 -0.6538 -0.1097
  160SAPE   H2X17871   1.018   1.379   7.171 -0.9688 -1.0555  0.6307
  160SAPE   H2Y17872   1.164   1.290   7.228  0.6139  2.1726 -1.3875
  160SAPE   C2317873   1.304   0.642   7.056 -0.1616  0.2694  0.3164
  160SAPE   H3R17874   1.413   0.622   7.043 -0.5017 -3.4567  1.8729
  160SAPE   H3S17875   1.257   0.541   7.059 -1.9487  1.0994  1.5517
  160SAPE   C2417876   1.278   0.705   7.195 -0.3089  0.2732 -0.1232
  160SAPE   H4R17877   1.171   0.684   7.213 -0.6351  0.2106 -1.9311
  160SAPE   H4S17878   1.302   0.813   7.190  1.0650  0.0546  0.9208
  160SAPE   C2517879   1.352   0.642   7.305  0.0087  0.1212 -0.1833
  160SAPE   H5R17880   1.307   0.552   7.349 -1.1094 -0.6168 -2.6740
  160SAPE   C2617881   1.466   0.693   7.365  0.3391  0.0859 -0.4693
  160SAPE   H6R17882   1.507   0.641   7.453  0.8119  0.5919 -0.3841
  160SAPE   C2717883   1.534   0.826   7.330  0.2378  0.0112  0.2049
  160SAPE   H7R17884   1.571   0.875   7.423 -0.0970  1.4899 -0.4116
  160SAPE   H7S17885   1.453   0.895   7.297  0.3089  0.9862  1.9467
  160SAPE   C2817886   1.626   0.818   7.216 -0.5335 -0.0257 -0.5661
  160SAPE   H8R17887   1.631   0.726   7.156  1.9657 -1.3413  1.4565
  160SAPE   C2917888   1.721   0.905   7.172  0.3166 -0.8421 -0.2056
  160SAPE   H9R17889   1.802   0.881   7.101  1.8401  0.5497  0.9944
  160SAPE  C21017890   1.746   1.038   7.233 -0.7918 -0.5325 -0.1204
  160SAPE  H10R17891   1.855   1.054   7.248 -0.1588 -2.3865 -2.2489
  160SAPE  H10S17892   1.705   1.043   7.336  0.6670  0.1491  0.4587
  160SAPE  C21117893   1.702   1.154   7.147  0.3078  0.6402  0.7839
  160SAPE  H11R17894   1.765   1.170   7.058  0.5404  0.6778  0.9522
  160SAPE  C21217895   1.599   1.237   7.173 -0.2101 -0.0107  0.2839
  160SAPE  H12R17896   1.584   1.319   7.101  0.6180  0.6199  0.8056
  160SAPE  C21317897   1.502   1.237   7.292 -0.1081  0.3919 -0.3187
  160SAPE  H13R17898   1.501   1.132   7.327 -0.8208  0.7699  0.8596
  160SAPE  H13S17899   1.408   1.255   7.235 -0.3072 -1.7647 -0.7502
  160SAPE  C21417900   1.537   1.348   7.394  0.1391  0.0974  0.3787
  160SAPE  H14R17901   1.599   1.427   7.349 -1.8214  3.3627  2.9201
  160SAPE  C21517902   1.510   1.340   7.525  0.1432  0.0945  0.0407
  160SAPE  H15R17903   1.515   1.424   7.595 -1.6453  1.1702 -1.0672
  160SAPE  C21617904   1.435   1.221   7.591  0.1080 -0.1815 -0.7515
  160SAPE  H16R17905   1.363   1.180   7.517  1.2672 -2.1348 -0.8674
  160SAPE  H16S17906   1.389   1.246   7.688 -0.8452 -0.5450 -1.1040
  160SAPE  C21717907   1.543   1.109   7.631 -0.1499 -0.6768  0.3748
  160SAPE  H17R17908   1.596   1.080   7.538 -0.8577 -2.1694  0.4025
  160SAPE  H17S17909   1.489   1.015   7.656 -0.2831 -0.4570  0.9373
  160SAPE  C21817910   1.659   1.157   7.736 -0.1766  0.0549  0.3441
  160SAPE  H18R17911   1.710   1.248   7.698 -1.3329  0.6228  0.1301
  160SAPE  H18S17912   1.731   1.072   7.732  0.6150  0.7451 -1.7673
  160SAPE  C21917913   1.609   1.168   7.881  0.6122  0.4317  0.0931
  160SAPE  H19R17914   1.572   1.273   7.883 -0.1750  0.1572  0.3696
  160SAPE  H19S17915   1.691   1.176   7.955  1.1903 -0.8388 -0.3693
  160SAPE  C22017916   1.522   1.047   7.936  0.6238 -0.6180 -0.2598
  160SAPE  H20R17917   1.513   1.064   8.046  0.4341 -0.4662 -0.2979
  160SAPE  H20S17918   1.576   0.951   7.922  0.4275 -1.0679  1.7669
  160SAPE  H20T17919   1.423   1.053   7.887 -0.6192 -1.7883  1.9437
  160SAPE   C3317920   0.965   1.206   7.298 -0.7863  0.5731 -0.3633
  160SAPE   H3X17921   0.893   1.146   7.238  0.3617 -1.8445  0.5592
  160SAPE   H3Y17922   0.913   1.288   7.353  2.1794  0.9153  2.1875
  160SAPE   C3417923   1.053   1.112   7.385  0.5713  0.5665 -0.0275
  160SAPE   H4X17924   1.143   1.167   7.419  1.6450 -2.0408  1.6474
  160SAPE   H4Y17925   1.103   1.025   7.336  0.6546 -0.4655  1.7883
  160SAPE   C3517926   0.972   1.050   7.497 -0.6156  0.3827 -0.5050
  160SAPE   H5X17927   0.904   0.981   7.443 -0.5235 -0.2778  0.1970
  160SAPE   H5Y17928   0.907   1.132   7.537  2.0880  2.7591 -0.6667
  160SAPE   C3617929   1.058   1.002   7.613 -0.0850  0.0882  0.3176
  160SAPE   H6X17930   0.989   0.975   7.695 -1.4343  1.5467 -0.2925
  160SAPE   H6Y17931   1.121   1.082   7.657 -0.9847 -0.3991  2.5959
  160SAPE   C3717932   1.151   0.883   7.586 -0.0473  0.3632 -0.3103
  160SAPE   H7X17933   1.217   0.907   7.499  0.8133  0.7758  0.4377
  160SAPE   H7Y17934   1.074   0.807   7.563 -1.4397  1.3232  1.0105
  160SAPE   C3817935   1.225   0.823   7.709 -0.4801 -0.2654  0.1808
  160SAPE   H8X17936   1.165   0.831   7.803 -0.8209  0.3384 -0.0851
  160SAPE   H8Y17937   1.310   0.891   7.728 -1.7435  1.2480  0.6564
  160SAPE   C3917938   1.259   0.676   7.690  0.9144  0.2027  0.6515
  160SAPE   H9X17939   1.322   0.666   7.599  2.8366  1.1113  1.8097
  160SAPE   H9Y17940   1.161   0.624   7.678  0.4066  1.2346  0.1962
  160SAPE  C31017941   1.342   0.628   7.808 -1.3120  1.2357 -0.1591
  160SAPE  H10X17942   1.317   0.675   7.905  0.9449  0.0397  1.0853
  160SAPE  H10Y17943   1.449   0.649   7.787 -0.8555 -0.2109  0.5847
  160SAPE  C31117944   1.338   0.477   7.816 -0.0499 -0.4326 -0.1635
  160SAPE  H11X17945   1.429   0.447   7.872 -0.9783  1.1317  2.3683
  160SAPE  H11Y17946   1.342   0.420   7.721  0.5428 -1.9285  0.7224
  160SAPE  C31217947   1.220   0.428   7.906 -0.4762 -0.2468  0.3628
  160SAPE  H12X17948   1.205   0.320   7.890 -0.3700 -0.2091 -0.0097
  160SAPE  H12Y17949   1.128   0.477   7.867  1.1218  1.6758 -1.2203
  160SAPE  C31317950   1.240   0.467   8.051 -0.1354  0.1611 -0.5944
  160SAPE  H13X17951   1.279   0.569   8.072  3.0050 -0.8883 -0.7903
  160SAPE  H13Y17952   1.319   0.398   8.086 -0.6461 -0.6961 -1.0946
  160SAPE  C31417953   1.122   0.435   8.148 -0.5242  0.0199  0.6472
  160SAPE  H14X17954   1.089   0.330   8.141 -0.5674  0.0622  0.1640
  160SAPE  H14Y17955   1.045   0.514   8.131  1.8601  2.0341 -1.7782
  160SAPE  C31517956   1.171   0.452   8.291 -0.0490  1.1342 -0.3043
  160SAPE  H15X17957   1.233   0.543   8.309  0.6876  0.8014 -1.0963
  160SAPE  H15Y17958   1.227   0.360   8.318  0.3062  1.1501 -0.9693
  160SAPE  C31617959   1.053   0.448   8.392  0.2551  0.9250  0.4804
  160SAPE  H16X17960   1.010   0.346   8.382 -0.1154  0.8463  2.4416
  160SAPE  H16Y17961   0.978   0.523   8.358  0.7239  0.6503 -1.2222
  160SAPE  C31717962   1.107   0.468   8.532  0.5831  0.1605 -1.0078
  160SAPE  H17X17963   1.175   0.555   8.521  1.5129 -0.4223 -0.0165
  160SAPE  H17Y17964   1.166   0.377   8.555 -0.4552 -0.1075  0.8725
  160SAPE  C31817965   0.990   0.484   8.638 -0.7166 -0.6945 -0.3401
  160SAPE  H18X17966   1.034   0.471   8.739 -0.1018  1.2110 -0.3296
  160SAPE  H18Y17967   0.918   0.400   8.624 -0.9969 -0.3931 -0.7188
  160SAPE  H18Z17968   0.939   0.582   8.635  0.3511 -0.0351  1.3116
  161SOPE     N17969   6.715   5.170  10.434  0.5342  0.1294 -0.2628
  161SOPE   HN117970   6.803   5.119  10.455  1.4344  2.1006  1.1747
  161SOPE   HN217971   6.686   5.147  10.337  1.4450 -0.1355 -0.4844
  161SOPE   HN317972   6.731   5.273  10.443 -1.6810  0.4119  1.2593
  161SOPE   C1217973   6.611   5.131  10.535 -0.1706 -0.0434 -0.2035
  161SOPE  H12A17974   6.559   5.039  10.501  0.8806 -1.3015  1.4568
  161SOPE  H12B17975   6.537   5.214  10.538 -0.9120 -0.7162  0.5729
  161SOPE   C1117976   6.674   5.095  10.671 -0.4545 -0.0632 -0.2182
  161SOPE  H11A17977   6.747   5.172  10.702 -0.5205 -0.5469  1.2224
  161SOPE  H11B17978   6.730   4.999  10.662  0.2873  0.4798 -1.5905
  161SOPE     P17979   6.507   5.215  10.830  0.0113 -0.2967 -0.0463
  161SOPE   O1317980   6.608   5.318  10.829  0.0905 -0.3020  0.7991
  161SOPE   O1417981   6.445   5.195  10.963 -0.1595  0.3518 -0.0284
  161SOPE   O1217982   6.572   5.084  10.774 -0.3705 -0.0520 -0.8451
  161SOPE   O1117983   6.392   5.246  10.734  0.3226  0.1807  0.0420
  161SOPE    C117984   6.261   5.174  10.723 -0.0682 -0.1759 -0.0281
  161SOPE    HA17985   6.170   5.236  10.737 -1.1372 -1.6201 -0.2924
  161SOPE    HB17986   6.245   5.091  10.796  0.3873 -1.5521 -1.4486
  161SOPE    C217987   6.249   5.115  10.582  0.3172  0.0922  0.8429
  161SOPE    HS17988   6.346   5.061  10.575  0.7409  0.8361  0.8745
  161SOPE   O2117989   6.241   5.218  10.481 -0.8115 -0.0749 -0.0477
  161SOPE   C2117990   6.296   5.197  10.362  0.4020 -0.2825  0.2383
  161SOPE   O2217991   6.357   5.097  10.334  0.3382  1.0643  0.5967
  161SOPE   C2217992   6.252   5.306  10.266 -0.0785  0.0750  0.1938
  161SOPE   H2R17993   6.263   5.407  10.310  2.8199 -0.4718  0.9370
  161SOPE   H2S17994   6.148   5.287  10.233  0.0676  0.7698 -0.6802
  161SOPE    C317995   6.129   5.020  10.576  0.1788  0.8902 -0.2795
  161SOPE    HX17996   6.035   5.078  10.565 -0.1540  0.8357  1.8944
  161SOPE    HY17997   6.129   4.958  10.668  1.0296  4.1394  2.0907
  161SOPE   O3117998   6.137   4.937  10.460 -1.0174  0.0260 -0.0641
  161SOPE   C3117999   6.222   4.837  10.462 -0.4654 -0.0537 -0.5502
  161SOPE   O3218000   6.287   4.799  10.555  0.2388 -0.0978  0.1654
  161SOPE   C3218001   6.236   4.777  10.322 -0.0411 -1.1661  0.3943
  161SOPE   H2X18002   6.273   4.673  10.326  0.2459 -1.1219 -0.9205
  161SOPE   H2Y18003   6.301   4.850  10.269 -1.4481 -0.6645 -0.7252
  161SOPE   C2318004   6.350   5.302  10.144  1.3368  0.0439  0.2958
  161SOPE   H3R18005   6.371   5.204  10.097  0.7578  0.4244 -0.8038
  161SOPE   H3S18006   6.447   5.353  10.156  1.5040 -0.2574  0.2282
  161SOPE   C2418007   6.287   5.382  10.024 -0.7723 -0.0720 -0.3002
  161SOPE   H4R18008   6.194   5.334   9.989 -0.1025 -0.3366 -1.7984
  161SOPE   H4S18009   6.263   5.486  10.055 -0.5311  1.0267 -3.4495
  161SOPE   C2518010   6.388   5.403   9.905 -0.2100 -0.4508  0.0695
  161SOPE   H5R18011   6.479   5.450   9.948 -0.8442  1.5599 -0.6687
  161SOPE   H5S18012   6.410   5.301   9.866  0.1821 -1.5766  2.9808
  161SOPE   C2618013   6.323   5.496   9.797 -0.8226  0.2135 -0.9447
  161SOPE   H6R18014   6.235   5.444   9.756 -0.5971 -1.1035  0.1616
  161SOPE   H6S18015   6.288   5.585   9.854 -3.3303 -1.2969  0.0385
  161SOPE   C2718016   6.415   5.545   9.683 -0.2448  0.2813  0.2627
  161SOPE   H7R18017   6.494   5.607   9.729  0.4417  0.1904 -0.7680
  161SOPE   H7S18018   6.457   5.452   9.638 -1.0894  0.2101 -0.3976
  161SOPE   C2818019   6.348   5.624   9.576 -0.0851  0.4101 -0.4814
  161SOPE   H8R18020   6.316   5.721   9.620  2.8404  0.3919  2.1253
  161SOPE   H8S18021   6.428   5.655   9.505  1.9586 -1.6015  0.7836
  161SOPE   C2918022   6.241   5.552   9.502 -0.1477 -0.0121  0.5823
  161SOPE   H9118023   6.174   5.494   9.566 -0.3171  1.9251  2.2753
  161SOPE  C21018024   6.226   5.546   9.366 -0.2270 -0.6044  0.1568
  161SOPE  H10118025   6.137   5.501   9.320 -0.8839 -0.5953  1.3789
  161SOPE  C21118026   6.321   5.611   9.269  0.1424 -0.1663  0.0586
  161SOPE  H11R18027   6.386   5.531   9.227 -1.1000 -0.2149 -1.8885
  161SOPE  H11S18028   6.392   5.684   9.314  2.3752 -2.0569 -0.2299
  161SOPE  C21218029   6.249   5.682   9.152 -0.2791  0.0240  0.7290
  161SOPE  H12R18030   6.257   5.792   9.165  0.3253  0.2997 -1.4591
  161SOPE  H12S18031   6.139   5.672   9.155 -0.5037  0.9039 -1.8186
  161SOPE  C21318032   6.309   5.647   9.013  0.6729 -0.2456  0.2902
  161SOPE  H13R18033   6.284   5.542   8.987 -1.1588  0.0725  0.5886
  161SOPE  H13S18034   6.419   5.646   9.029  0.6052 -1.9044  0.8108
  161SOPE  C21418035   6.285   5.759   8.898  0.1536  0.3187  0.3702
  161SOPE  H14R18036   6.337   5.854   8.922  1.5120 -0.7344  1.8420
  161SOPE  H14S18037   6.176   5.771   8.883  0.3212  0.0615 -1.3459
  161SOPE  C21518038   6.324   5.717   8.752  0.2841  0.3898  0.0346
  161SOPE  H15R18039   6.328   5.607   8.746 -5.4645 -0.1152  0.2896
  161SOPE  H15S18040   6.423   5.762   8.727 -0.1334  2.0550  1.1936
  161SOPE  C21618041   6.220   5.760   8.650 -0.4520 -0.2418  0.1270
  161SOPE  H16R18042   6.193   5.866   8.668 -0.7549 -0.4901  1.1721
  161SOPE  H16S18043   6.131   5.694   8.650  0.2738 -1.2739 -0.9742
  161SOPE  C21718044   6.276   5.759   8.507 -0.2359  0.2522  0.5318
  161SOPE  H17R18045   6.343   5.847   8.491  0.1590 -0.2334 -0.5583
  161SOPE  H17S18046   6.204   5.780   8.426  0.9396  1.2333 -0.2959
  161SOPE  C21818047   6.355   5.636   8.466 -0.6820  0.7579 -0.4944
  161SOPE  H18R18048   6.447   5.652   8.525 -1.7360  1.4185  1.0442
  161SOPE  H18S18049   6.375   5.624   8.357 -1.8356 -0.3988 -0.6112
  161SOPE  H18T18050   6.311   5.540   8.501  1.0827  0.8368  2.1866
  161SOPE   C3318051   6.109   4.784  10.229 -0.6246 -0.3916 -0.4326
  161SOPE   H3X18052   6.060   4.883  10.239  1.9578  0.8065  1.6750
  161SOPE   H3Y18053   6.024   4.720  10.262 -0.9395 -0.1204 -0.7077
  161SOPE   C3418054   6.147   4.763  10.082  0.1755  0.0817  0.1576
  161SOPE   H4X18055   6.065   4.712  10.027  0.6478  1.2964 -1.8021
  161SOPE   H4Y18056   6.247   4.718  10.069  1.2120  1.8789  1.4870
  161SOPE   C3518057   6.149   4.889   9.992  0.2811  0.0883 -0.0701
  161SOPE   H5X18058   6.220   4.968  10.024  1.1301 -0.9753  0.7794
  161SOPE   H5Y18059   6.050   4.938   9.992 -0.4837 -1.3942 -0.1166
  161SOPE   C3618060   6.187   4.856   9.852 -0.4191  0.1608  0.2686
  161SOPE   H6X18061   6.116   4.790   9.798 -1.0868 -0.4017  1.7819
  161SOPE   H6Y18062   6.287   4.809   9.838 -0.6701 -0.3898  0.3150
  161SOPE   C3718063   6.207   4.990   9.765  0.3868  0.0659  0.5366
  161SOPE   H7X18064   6.282   5.051   9.820 -2.9516  1.4361  3.9774
  161SOPE   H7Y18065   6.107   5.038   9.774  0.4035  0.2043  0.0583
  161SOPE   C3818066   6.258   4.958   9.624 -0.5679  0.5236  0.3688
  161SOPE   H8X18067   6.216   4.861   9.591  2.5683 -1.2085  1.1057
  161SOPE   H8Y18068   6.369   4.957   9.621 -0.5401 -2.7038 -1.3970
  161SOPE   C3918069   6.204   5.057   9.526  0.5757 -0.7068  0.7685
  161SOPE   H9X18070   6.225   5.158   9.567 -2.2137  0.0935  0.4748
  161SOPE   H9Y18071   6.093   5.056   9.530  0.4871 -0.3761 -0.8088
  161SOPE  C31018072   6.257   5.040   9.381  0.1137 -0.7388  0.1312
  161SOPE  H10X18073   6.256   4.933   9.351  3.2122 -1.2181  1.3326
  161SOPE  H10Y18074   6.364   5.070   9.384 -0.4300  1.3713 -0.1766
  161SOPE  C31118075   6.193   5.138   9.289  0.7267 -0.2407 -0.1129
  161SOPE  H11X18076   6.182   5.237   9.337 -1.0940 -1.2358  1.6302
  161SOPE  H11Y18077   6.090   5.107   9.259  0.6906 -0.3165  0.0904
  161SOPE  C31218078   6.277   5.140   9.160  0.2934 -0.6262  0.4457
  161SOPE  H12X18079   6.270   5.037   9.120  0.9123 -0.2504 -0.6738
  161SOPE  H12Y18080   6.380   5.167   9.191 -0.2699  1.8838  0.3606
  161SOPE  C31318081   6.224   5.237   9.060 -0.5842  0.3042  0.1430
  161SOPE  H13X18082   6.199   5.335   9.105  3.4013  2.0740 -1.0243
  161SOPE  H13Y18083   6.134   5.184   9.023 -0.4022  0.7926 -1.0419
  161SOPE  C31418084   6.325   5.272   8.952 -0.7827  0.2846  0.2214
  161SOPE  H14X18085   6.400   5.192   8.938  0.8636  1.1108  3.3515
  161SOPE  H14Y18086   6.386   5.358   8.987 -0.0034  0.2958 -1.1167
  161SOPE  C31518087   6.270   5.319   8.816  0.6838  0.1278 -0.8826
  161SOPE  H15X18088   6.350   5.320   8.738 -0.5665 -0.6768 -2.2350
  161SOPE  H15Y18089   6.233   5.423   8.823 -0.3099 -0.1441 -1.7999
  161SOPE  C31618090   6.156   5.227   8.768  0.1880  0.1149 -0.7253
  161SOPE  H16X18091   6.067   5.227   8.835 -0.3914  2.4891 -1.3938
  161SOPE  H16Y18092   6.195   5.124   8.783 -1.3674 -0.3578  0.4009
  161SOPE  C31718093   6.104   5.248   8.628 -0.1535 -0.0166  0.0686
  161SOPE  H17X18094   6.190   5.238   8.558  1.4792 -0.8875  2.0773
  161SOPE  H17Y18095   6.082   5.356   8.617 -1.3735 -0.0837  1.6196
  161SOPE  C31818096   6.005   5.147   8.576 -0.3505 -0.4107 -0.3258
  161SOPE  H18X18097   5.906   5.145   8.626  0.8830  1.1123  2.3910
  161SOPE  H18Y18098   6.044   5.044   8.585  1.2778 -0.1171 -2.9411
  161SOPE  H18Z18099   5.983   5.166   8.468 -1.0927  0.9756  0.0453
  162SOPE     N18100   5.771   4.782  11.515  0.4647  0.2304 -0.0723
  162SOPE   HN118101   5.720   4.693  11.531 -1.1485  0.4300 -3.2868
  162SOPE   HN218102   5.777   4.833  11.605 -1.3420  1.1640 -0.4350
  162SOPE   HN318103   5.710   4.829  11.445 -1.0250 -0.6324  0.5949
  162SOPE   C1218104   5.902   4.742  11.458 -0.5866  0.3383  0.2472
  162SOPE  H12A18105   5.961   4.694  11.538  0.1735  1.0832  0.1453
  162SOPE  H12B18106   5.951   4.833  11.418  1.3305 -0.3750  0.8927
  162SOPE   C1118107   5.881   4.629  11.340 -0.2446 -0.7495 -1.1088
  162SOPE  H11A18108   5.970   4.635  11.274  1.1946 -1.3155  0.7210
  162SOPE  H11B18109   5.790   4.664  11.286 -0.6367  1.1892  0.6812
  162SOPE     P18110   5.753   4.424  11.452 -0.0066 -0.2420 -0.0090
  162SOPE   O1318111   5.677   4.529  11.531 -0.3334  0.1773  0.0972
  162SOPE   O1418112   5.797   4.303  11.517 -0.1729 -0.0141  0.5863
  162SOPE   O1218113   5.879   4.495  11.386 -0.3424  0.4407  0.0607
  162SOPE   O1118114   5.674   4.408  11.321  0.1771 -0.5939  0.6762
  162SOPE    C118115   5.681   4.299  11.233 -0.9719 -0.3198 -0.0989
  162SOPE    HA18116   5.586   4.289  11.175 -0.2017 -1.4055 -1.2139
  162SOPE    HB18117   5.700   4.209  11.295 -2.6997 -0.1406  0.7547
  162SOPE    C218118   5.804   4.299  11.139  0.7783  0.0714 -0.6006
  162SOPE    HS18119   5.898   4.317  11.195  0.8086 -0.1662 -0.5737
  162SOPE   O2118120   5.792   4.398  11.047  0.5788 -0.3912 -0.9544
  162SOPE   C2118121   5.903   4.470  11.020 -0.2106 -0.5785 -0.3021
  162SOPE   O2218122   6.016   4.451  11.062 -0.2191  0.0509 -0.0893
  162SOPE   C2218123   5.870   4.578  10.922  1.0432 -0.2213 -0.1925
  162SOPE   H2R18124   5.865   4.676  10.974  1.3754 -1.0339  1.4221
  162SOPE   H2S18125   5.773   4.558  10.871  1.3977 -0.0191 -0.9614
  162SOPE    C318126   5.806   4.165  11.057  0.0966  0.1130  0.5454
  162SOPE    HX18127   5.822   4.079  11.125  1.7522  2.0327  2.7350
  162SOPE    HY18128   5.902   4.158  11.001 -0.0814 -1.0886  0.3679
  162SOPE   O3118129   5.699   4.135  10.966 -0.4853  0.3603  0.6303
  162SOPE   C3118130   5.726   4.161  10.841 -0.5648  0.5308  0.1926
  162SOPE   O3218131   5.840   4.187  10.797  0.7703  0.0431  0.2592
  162SOPE   C3218132   5.602   4.148  10.757 -0.5622  0.0688 -0.3724
  162SOPE   H2X18133   5.516   4.179  10.820 -0.4873 -0.2087 -0.1350
  162SOPE   H2Y18134   5.597   4.040  10.733  2.0311 -0.4024  0.8752
  162SOPE   C2318135   5.982   4.584  10.812  0.8440 -0.2754 -0.1699
  162SOPE   H3R18136   6.068   4.639  10.854 -0.4179  0.9723  0.9055
  162SOPE   H3S18137   5.939   4.644  10.729 -1.7435  1.7645  2.4067
  162SOPE   C2418138   6.017   4.454  10.740 -0.2390 -0.3172  0.0816
  162SOPE   H4R18139   6.081   4.391  10.806  0.7375  0.4443 -0.1206
  162SOPE   H4S18140   5.931   4.386  10.724  0.8768 -1.4528 -1.4664
  162SOPE   C2518141   6.096   4.487  10.613  0.2006 -0.2652 -0.1039
  162SOPE   H5R18142   6.045   4.568  10.557 -0.3783  0.4505  1.4235
  162SOPE   H5S18143   6.197   4.520  10.643 -0.5331  2.1932 -0.1550
  162SOPE   C2618144   6.112   4.366  10.524 -0.8041  0.2592 -0.0882
  162SOPE   H6R18145   6.174   4.290  10.574 -1.8199  0.0999  0.9704
  162SOPE   H6S18146   6.020   4.314  10.490 -0.0168 -0.9965 -0.3551
  162SOPE   C2718147   6.203   4.398  10.400  0.6330  0.3737  1.3864
  162SOPE   H7R18148   6.256   4.494  10.420 -0.8314  1.7714 -0.9163
  162SOPE   H7S18149   6.270   4.313  10.379  0.9882  0.7340  1.0250
  162SOPE   C2818150   6.116   4.414  10.272 -0.4767  0.2084  0.3229
  162SOPE   H8R18151   6.053   4.497  10.311  3.3025  2.4742  2.1267
  162SOPE   H8S18152   6.186   4.458  10.198 -0.0760  4.5500  2.9387
  162SOPE   C2918153   6.045   4.291  10.220 -0.0930 -0.1669  0.1517
  162SOPE   H9118154   5.993   4.223  10.289 -0.7143 -0.6617 -0.7836
  162SOPE  C21018155   6.036   4.267  10.089  0.7716 -0.1493  0.2289
  162SOPE  H10118156   5.973   4.187  10.048 -0.7636  0.6680  0.8969
  162SOPE  C21118157   6.084   4.349   9.976 -0.3609 -0.9710  0.7367
  162SOPE  H11R18158   6.144   4.291   9.903 -0.4713  0.2523 -0.3731
  162SOPE  H11S18159   6.151   4.431  10.010 -1.9564  1.3685 -1.3573
  162SOPE  C21218160   5.960   4.412   9.901 -0.6999  0.2582  0.1734
  162SOPE  H12R18161   5.911   4.486   9.968  0.0366  1.4533 -0.5770
  162SOPE  H12S18162   5.890   4.328   9.878 -0.5834 -0.1354  1.1855
  162SOPE  C21318163   5.997   4.493   9.767 -0.5174  0.1804 -0.5992
  162SOPE  H13R18164   6.088   4.546   9.801 -1.1472  1.6389 -1.1428
  162SOPE  H13S18165   5.926   4.573   9.740  0.8932  1.0318 -1.9495
  162SOPE  C21418166   6.017   4.407   9.649  0.9969 -0.3559  0.0099
  162SOPE  H14R18167   5.920   4.363   9.615 -0.2733  2.9754 -1.0436
  162SOPE  H14S18168   6.093   4.331   9.678 -0.4131 -1.2022  1.7269
  162SOPE  C21518169   6.090   4.480   9.535 -0.7884 -0.3315  0.1419
  162SOPE  H15R18170   6.128   4.405   9.461 -0.8225  0.2951 -0.5195
  162SOPE  H15S18171   6.176   4.526   9.588 -1.0709 -1.1886  1.3918
  162SOPE  C21618172   6.010   4.580   9.454 -0.1327 -0.3483  0.3664
  162SOPE  H16R18173   5.954   4.649   9.520  0.1320 -0.0948  0.3302
  162SOPE  H16S18174   5.937   4.527   9.389  1.4647 -2.3299  0.0976
  162SOPE  C21718175   6.102   4.654   9.346  0.0384 -0.2748 -0.1421
  162SOPE  H17R18176   6.183   4.717   9.388 -1.8229  2.0193  0.2661
  162SOPE  H17S18177   6.037   4.730   9.297 -0.0379  0.8268  1.5796
  162SOPE  C21818178   6.160   4.569   9.232 -0.7499  0.2948 -0.2958
  162SOPE  H18R18179   6.205   4.644   9.164 -1.3359 -0.4406 -1.5260
  162SOPE  H18S18180   6.076   4.509   9.190 -0.4725 -0.0981 -0.2909
  162SOPE  H18T18181   6.239   4.500   9.268 -0.7183  0.7586  0.5416
  162SOPE   C3318182   5.616   4.222  10.623  0.4835 -0.4549  0.0908
  162SOPE   H3X18183   5.554   4.175  10.543 -2.2601  1.8821  0.6905
  162SOPE   H3Y18184   5.720   4.211  10.585  0.7391 -2.3288  1.1991
  162SOPE   C3418185   5.582   4.373  10.638  0.6265 -0.1337  0.1805
  162SOPE   H4X18186   5.593   4.411  10.742 -0.4082  1.6189 -0.3121
  162SOPE   H4Y18187   5.475   4.384  10.610 -0.4079 -4.4033  1.6463
  162SOPE   C3518188   5.661   4.468  10.547  0.1006 -0.4924 -0.4548
  162SOPE   H5X18189   5.769   4.448  10.562  0.1232 -1.4776 -1.7019
  162SOPE   H5Y18190   5.625   4.563  10.593 -0.4798 -1.4335  1.0988
  162SOPE   C3618191   5.632   4.445  10.400 -0.3187  0.1149  0.3041
  162SOPE   H6X18192   5.526   4.470  10.378 -0.2342  0.6817  0.5079
  162SOPE   H6Y18193   5.644   4.337  10.380 -0.4608  0.1538  0.0088
  162SOPE   C3718194   5.730   4.522  10.305  0.7701  0.4646  0.1070
  162SOPE   H7X18195   5.834   4.493  10.332  0.0290 -0.0329  2.6281
  162SOPE   H7Y18196   5.718   4.630  10.330  1.2886  0.0530  2.3054
  162SOPE   C3818197   5.703   4.496  10.153 -0.3092  0.0255 -0.4142
  162SOPE   H8X18198   5.721   4.388  10.135  0.8753  0.4693 -2.0737
  162SOPE   H8Y18199   5.771   4.561  10.094 -0.5226 -0.0536 -0.7492
  162SOPE   C3918200   5.560   4.537  10.110 -0.5756 -0.6734 -0.2810
  162SOPE   H9X18201   5.539   4.624  10.177 -1.7265 -1.4879  0.4457
  162SOPE   H9Y18202   5.483   4.462  10.136 -0.9460 -0.5797 -1.0687
  162SOPE  C31018203   5.544   4.563   9.968  0.0595 -0.6414 -0.1092
  162SOPE  H10X18204   5.605   4.653   9.948 -0.3676  0.0525  1.5611
  162SOPE  H10Y18205   5.438   4.582   9.941  0.6148  0.9579 -1.2607
  162SOPE  C31118206   5.590   4.444   9.872 -0.1508  0.2308  0.2206
  162SOPE  H11X18207   5.574   4.348   9.928  0.8402  0.3490  0.7473
  162SOPE  H11Y18208   5.700   4.444   9.858  0.0568 -0.2835  1.6457
  162SOPE  C31218209   5.531   4.443   9.728 -0.3029 -0.5425 -1.0140
  162SOPE  H12X18210   5.585   4.526   9.678 -0.5503 -0.0144 -0.4320
  162SOPE  H12Y18211   5.421   4.452   9.714 -0.4297 -3.7028 -2.9434
  162SOPE  C31318212   5.566   4.315   9.645  0.4822  0.3671  0.2181
  162SOPE  H13X18213   5.511   4.227   9.686  1.3318 -0.4419 -0.3182
  162SOPE  H13Y18214   5.676   4.314   9.661  0.5023  2.8294  0.5096
  162SOPE  C31418215   5.542   4.335   9.497 -0.4959  0.2229 -0.4688
  162SOPE  H14X18216   5.436   4.361   9.480 -0.4626 -0.1202 -1.2714
  162SOPE  H14Y18217   5.563   4.239   9.445  1.0678  0.5115 -0.4186
  162SOPE  C31518218   5.622   4.445   9.432  0.0132  0.4050 -0.3455
  162SOPE  H15X18219   5.720   4.397   9.451 -1.6353 -2.9191  0.4718
  162SOPE  H15Y18220   5.609   4.541   9.488 -1.7622  1.7471 -2.8458
  162SOPE  C31618221   5.605   4.473   9.279  0.3186 -0.1486  0.5418
  162SOPE  H16X18222   5.527   4.551   9.269  1.5429  0.8704 -1.8923
  162SOPE  H16Y18223   5.576   4.380   9.226 -0.2178 -0.4596  1.3715
  162SOPE  C31718224   5.729   4.540   9.228  0.3171 -0.2885  0.9475
  162SOPE  H17X18225   5.807   4.463   9.247 -0.2046 -0.4708  2.5527
  162SOPE  H17Y18226   5.757   4.637   9.274  0.2189  1.4041 -2.2979
  162SOPE  C31818227   5.724   4.561   9.078 -0.2411 -0.3172 -0.2631
  162SOPE  H18X18228   5.828   4.572   9.041  0.2426  3.1362  1.6747
  162SOPE  H18Y18229   5.658   4.649   9.062 -0.5185 -0.5771 -0.5664
  162SOPE  H18Z18230   5.687   4.467   9.033  1.6727 -1.3487  0.2438
  163SOPE     N18231   2.152   1.239  10.858  0.1531 -0.3215  0.1643
  163SOPE   HN118232   2.183   1.140  10.856 -0.7500 -0.6100 -2.2754
  163SOPE   HN218233   2.236   1.301  10.865  0.0878 -0.1592 -0.4068
  163SOPE   HN318234   2.100   1.267  10.943  0.5492  1.6020 -0.1807
  163SOPE   C1218235   2.071   1.279  10.734  0.1133 -0.0251  0.7150
  163SOPE  H12A18236   2.133   1.223  10.661  3.3681  2.3942  1.4327
  163SOPE  H12B18237   2.088   1.387  10.718 -0.6213  0.1045  0.7889
  163SOPE   C1118238   1.931   1.240  10.731  0.4300  0.3271 -0.2348
  163SOPE  H11A18239   1.911   1.133  10.707  0.9841  0.2471 -0.3621
  163SOPE  H11B18240   1.874   1.294  10.652 -0.1897  0.7107  0.4681
  163SOPE     P18241   1.791   1.392  10.896 -0.2821  0.1955  0.2914
  163SOPE   O1318242   1.887   1.485  10.964 -0.3335  0.1329  0.5135
  163SOPE   O1418243   1.672   1.360  10.975  0.3775 -0.0502 -0.1144
  163SOPE   O1218244   1.868   1.266  10.854 -0.3301  0.5599 -0.2637
  163SOPE   O1118245   1.741   1.462  10.758 -0.6318 -0.1324 -0.2866
  163SOPE    C118246   1.629   1.410  10.691 -0.2266  0.0293  0.4390
  163SOPE    HA18247   1.544   1.455  10.746  1.4161  2.4281  1.1796
  163SOPE    HB18248   1.620   1.300  10.698 -2.8160  0.0435 -1.1419
  163SOPE    C218249   1.618   1.464  10.539 -0.0924 -0.1491 -0.5262
  163SOPE    HS18250   1.512   1.452  10.508  0.1062 -3.3152 -0.3354
  163SOPE   O2118251   1.707   1.394  10.448 -0.1257 -0.2075  0.0982
  163SOPE   C2118252   1.690   1.255  10.437  0.5734  0.6280 -0.5324
  163SOPE   O2218253   1.588   1.199  10.479  0.1087 -0.3723  0.0533
  163SOPE   C2218254   1.813   1.183  10.380 -0.4952 -0.5019 -0.0911
  163SOPE   H2R18255   1.792   1.074  10.374  0.4808 -0.6760 -0.7156
  163SOPE   H2S18256   1.895   1.208  10.451 -1.9300  4.2987  0.2163
  163SOPE    C318257   1.641   1.616  10.525  0.1597 -0.0203 -0.8851
  163SOPE    HX18258   1.740   1.643  10.566 -0.4178  2.2501 -0.8204
  163SOPE    HY18259   1.565   1.674  10.583 -1.1850 -2.1441 -0.4167
  163SOPE   O3118260   1.621   1.653  10.390  0.1897 -0.0234  0.1572
  163SOPE   C3118261   1.727   1.657  10.309 -0.1888  0.8982 -0.3663
  163SOPE   O3218262   1.841   1.613  10.326  0.5221 -0.0088  0.1161
  163SOPE   C3218263   1.690   1.730  10.183  0.3385  0.3582  0.7291
  163SOPE   H2X18264   1.688   1.839  10.203  0.2671  0.2845  1.1308
  163SOPE   H2Y18265   1.588   1.693  10.160  0.8220 -2.4547  2.6526
  163SOPE   C2318266   1.846   1.238  10.243  0.0362 -0.4732 -0.2260
  163SOPE   H3R18267   1.933   1.182  10.203 -0.7031 -0.9051 -1.2851
  163SOPE   H3S18268   1.864   1.346  10.257 -2.2448 -0.2558  1.6180
  163SOPE   C2418269   1.738   1.217  10.144  0.6432 -0.1814  0.0961
  163SOPE   H4R18270   1.697   1.114  10.140 -1.5890  0.6743 -3.4653
  163SOPE   H4S18271   1.658   1.284  10.181 -1.7676 -3.8663  2.1760
  163SOPE   C2518272   1.781   1.265  10.000 -0.0038 -0.2557  1.0007
  163SOPE   H5R18273   1.683   1.298   9.959  0.6009  0.4757  0.0828
  163SOPE   H5S18274   1.846   1.355  10.006 -0.7151  0.2096  1.8568
  163SOPE   C2618275   1.851   1.159   9.916  0.2513  0.1093 -0.4274
  163SOPE   H6R18276   1.926   1.113   9.983  0.5924 -0.8792 -1.4529
  163SOPE   H6S18277   1.770   1.085   9.900  1.9431 -1.4493 -2.1267
  163SOPE   C2718278   1.915   1.201   9.781  0.7254 -0.0446  0.6322
  163SOPE   H7R18279   1.885   1.304   9.752  1.5819 -0.5834 -2.6221
  163SOPE   H7S18280   2.025   1.195   9.794  1.0003  1.7496 -0.5580
  163SOPE   C2818281   1.882   1.110   9.662 -0.3393  0.5126  0.4640
  163SOPE   H8R18282   1.942   1.122   9.569  0.8466  0.6706  1.2205
  163SOPE   H8S18283   1.921   1.012   9.698  1.5819  0.2016 -2.1869
  163SOPE   C2918284   1.733   1.112   9.621 -0.6417 -0.0736  0.0543
  163SOPE   H9118285   1.656   1.111   9.700 -0.1988 -2.7245  0.5286
  163SOPE  C21018286   1.686   1.117   9.498 -0.2621  0.0669 -0.6711
  163SOPE  H10118287   1.577   1.125   9.487 -1.0800 -3.6552  2.3434
  163SOPE  C21118288   1.760   1.103   9.366  0.7943 -0.1647  0.6393
  163SOPE  H11R18289   1.696   1.070   9.281 -0.9798 -0.8484  2.1669
  163SOPE  H11S18290   1.839   1.026   9.374  0.3936 -0.5427  1.0261
  163SOPE  C21218291   1.841   1.232   9.327  0.1601  0.4230 -0.0973
  163SOPE  H12R18292   1.943   1.229   9.371  0.5458 -0.0448 -0.9874
  163SOPE  H12S18293   1.791   1.315   9.382 -1.1497 -1.7655  2.1881
  163SOPE  C21318294   1.848   1.259   9.177 -0.9639  0.6147  0.7380
  163SOPE  H13R18295   1.899   1.173   9.127  2.4990  1.6578  2.1253
  163SOPE  H13S18296   1.922   1.342   9.167  0.9061 -0.7268  2.5602
  163SOPE  C21418297   1.718   1.304   9.120  0.0231 -0.2927  0.2721
  163SOPE  H14R18298   1.677   1.371   9.198 -1.4362  2.0169 -2.3188
  163SOPE  H14S18299   1.657   1.218   9.084 -0.5498  0.1030  0.2916
  163SOPE  C21518300   1.719   1.400   9.005 -0.2431 -0.3891 -0.0641
  163SOPE  H15R18301   1.745   1.502   9.039  1.8020 -1.0468  0.5094
  163SOPE  H15S18302   1.618   1.395   8.960  0.4950 -0.7332 -1.7786
  163SOPE  C21618303   1.825   1.367   8.897 -0.1644  0.7244  0.6067
  163SOPE  H16R18304   1.818   1.258   8.877 -0.2949  1.0639 -1.4020
  163SOPE  H16S18305   1.926   1.385   8.940 -0.1175 -0.8988  1.2484
  163SOPE  C21718306   1.806   1.441   8.762 -0.1158  0.4407  0.0521
  163SOPE  H17R18307   1.707   1.419   8.717  0.4644 -0.1482 -0.9566
  163SOPE  H17S18308   1.889   1.399   8.702  2.7882  0.4875  3.6870
  163SOPE  C21818309   1.828   1.595   8.769  0.2246 -0.1202 -0.3858
  163SOPE  H18R18310   1.821   1.645   8.670  2.0877 -1.0345 -1.0186
  163SOPE  H18S18311   1.932   1.601   8.808 -0.0736  0.3353  0.3587
  163SOPE  H18T18312   1.760   1.632   8.849  0.5953 -2.9715  1.3771
  163SOPE   C3318313   1.795   1.684  10.079  1.0710 -0.0006  0.6960
  163SOPE   H3X18314   1.781   1.576  10.058 -2.7504  0.2480  1.2366
  163SOPE   H3Y18315   1.896   1.714  10.113  1.4137 -2.1651  1.7269
  163SOPE   C3418316   1.771   1.765   9.944  0.2514  0.1181 -0.1342
  163SOPE   H4X18317   1.804   1.870   9.956 -0.4704  0.2296  1.0969
  163SOPE   H4Y18318   1.662   1.769   9.918  0.8933  0.3034 -3.2164
  163SOPE   C3518319   1.834   1.703   9.821 -0.4152 -0.1454 -0.4255
  163SOPE   H5X18320   1.829   1.594   9.841  2.0184 -0.7308 -2.4218
  163SOPE   H5Y18321   1.937   1.745   9.828 -1.4495  2.1570  3.0912
  163SOPE   C3618322   1.784   1.744   9.687 -0.4156 -0.0236 -0.1237
  163SOPE   H6X18323   1.789   1.855   9.679 -2.1924  0.0978  0.0382
  163SOPE   H6Y18324   1.678   1.713   9.682 -0.6627  0.9484 -2.1067
  163SOPE   C3718325   1.850   1.680   9.560  0.3231 -0.0046 -0.3446
  163SOPE   H7X18326   1.858   1.571   9.581 -1.5690  0.1248  1.2815
  163SOPE   H7Y18327   1.952   1.719   9.540  0.4097  0.0782  0.2317
  163SOPE   C3818328   1.775   1.717   9.437  0.0788  0.1539 -0.1061
  163SOPE   H8X18329   1.776   1.827   9.425  0.2761  0.4777  2.3139
  163SOPE   H8Y18330   1.676   1.667   9.443  0.5018 -0.8483 -1.2411
  163SOPE   C3918331   1.836   1.664   9.307  0.6169  0.2380 -0.6239
  163SOPE   H9X18332   1.766   1.689   9.224 -0.8861 -0.7031  0.3251
  163SOPE   H9Y18333   1.831   1.553   9.315 -2.5586  0.3362 -0.1780
  163SOPE  C31018334   1.974   1.721   9.258 -0.6758 -0.2205 -0.3586
  163SOPE  H10X18335   2.049   1.669   9.322 -1.8020 -2.1855 -0.5640
  163SOPE  H10Y18336   1.974   1.831   9.271 -0.6418  0.0192 -2.1238
  163SOPE  C31118337   2.006   1.674   9.107 -0.2355  0.3792 -0.0923
  163SOPE  H11X18338   1.932   1.733   9.049  0.3432 -0.3558 -1.6181
  163SOPE  H11Y18339   1.985   1.565   9.109 -1.4384  0.6143  1.2962
  163SOPE  C31218340   2.152   1.706   9.080 -1.2475  0.3324  0.3562
  163SOPE  H12X18341   2.226   1.655   9.146 -0.5737 -0.5341 -1.0171
  163SOPE  H12Y18342   2.168   1.816   9.085 -1.3606  0.3743 -0.1282
  163SOPE  C31318343   2.199   1.655   8.936 -0.2990 -0.1410  0.1455
  163SOPE  H13X18344   2.286   1.722   8.917 -0.7113  0.0824 -1.0820
  163SOPE  H13Y18345   2.133   1.686   8.852 -0.0539 -2.4193 -0.9836
  163SOPE  C31418346   2.237   1.505   8.949 -0.1671  0.0282  0.0430
  163SOPE  H14X18347   2.154   1.451   9.000  0.0131 -0.8712 -0.6060
  163SOPE  H14Y18348   2.329   1.500   9.012 -1.4599 -0.5306  1.9956
  163SOPE  C31518349   2.248   1.447   8.809 -0.1057  0.5137  0.8055
  163SOPE  H15X18350   2.314   1.510   8.746 -1.8638  1.1265 -0.4687
  163SOPE  H15Y18351   2.150   1.450   8.758 -0.5751  2.1801  1.7385
  163SOPE  C31618352   2.313   1.309   8.806  0.0519  0.5911 -0.1524
  163SOPE  H16X18353   2.314   1.276   8.700 -1.4500 -3.0580  0.8197
  163SOPE  H16Y18354   2.247   1.228   8.844  1.3147 -0.3515  0.0685
  163SOPE  C31718355   2.445   1.299   8.870 -1.2763  0.7071  0.4252
  163SOPE  H17X18356   2.472   1.194   8.892 -2.8720 -0.0298 -0.9385
  163SOPE  H17Y18357   2.458   1.355   8.965 -1.5245 -0.9384  1.4716
  163SOPE  C31818358   2.568   1.354   8.793  0.3096  0.3705 -0.4390
  163SOPE  H18X18359   2.556   1.464   8.786 -0.1400  0.6312  2.6959
  163SOPE  H18Y18360   2.583   1.310   8.692  2.3814  0.8532 -0.3813
  163SOPE  H18Z18361   2.654   1.332   8.861 -1.0095 -1.1406  0.8297
  164SOPE     N18362   3.567   5.921  10.984 -0.1903 -0.2454  0.2387
  164SOPE   HN118363   3.529   5.852  10.916 -1.4713 -0.9650  1.6225
  164SOPE   HN218364   3.627   5.872  11.053  1.5880  0.7814 -0.5300
  164SOPE   HN318365   3.493   5.971  11.038  1.0919  2.1114 -0.0387
  164SOPE   C1218366   3.652   6.029  10.915  0.2095 -0.4073 -0.5534
  164SOPE  H12A18367   3.738   5.976  10.869  0.5567 -2.2558  2.0064
  164SOPE  H12B18368   3.679   6.102  10.994 -0.7333 -2.0114  1.3345
  164SOPE   C1118369   3.570   6.109  10.812  0.1893 -0.5183  0.0131
  164SOPE  H11A18370   3.535   6.041  10.731  0.0136 -0.5663  0.1273
  164SOPE  H11B18371   3.644   6.183  10.775 -1.7424  2.3094  1.4476
  164SOPE     P18372   3.321   6.192  10.825  0.5006  0.4073 -0.4493
  164SOPE   O1318373   3.248   6.298  10.898  0.3831 -0.7446 -0.4061
  164SOPE   O1418374   3.255   6.059  10.817  0.1344 -0.4641 -0.4818
  164SOPE   O1218375   3.465   6.180  10.884 -0.5775  0.1029 -0.0129
  164SOPE   O1118376   3.355   6.243  10.684  0.6036 -0.2742  0.3212
  164SOPE    C118377   3.341   6.384  10.648  0.0565  0.2590  0.2794
  164SOPE    HA18378   3.396   6.395  10.552  1.1097 -0.6890  0.7567
  164SOPE    HB18379   3.382   6.451  10.726 -0.4451  2.2947 -1.1060
  164SOPE    C218380   3.193   6.410  10.612 -0.0379 -0.6092  0.0997
  164SOPE    HS18381   3.123   6.382  10.694 -0.6377  1.0891  0.2142
  164SOPE   O2118382   3.154   6.318  10.498 -0.2844 -0.6181  0.5996
  164SOPE   C2118383   3.023   6.312  10.473  0.1089 -0.2199  0.1476
  164SOPE   O2218384   2.930   6.353  10.540 -0.1545 -0.5960  0.0452
  164SOPE   C2218385   3.000   6.248  10.339 -0.0125  0.1297 -0.4738
  164SOPE   H2R18386   2.918   6.175  10.357 -0.8105  0.9613 -0.6323
  164SOPE   H2S18387   3.090   6.197  10.299 -0.7859 -0.1681 -1.8808
  164SOPE    C318388   3.173   6.556  10.567  0.4885  0.0868  0.6330
  164SOPE    HX18389   3.208   6.610  10.658  3.8282  0.0998 -0.5325
  164SOPE    HY18390   3.066   6.582  10.552  0.9421  0.4904 -2.4823
  164SOPE   O3118391   3.240   6.584  10.440 -0.3786 -0.1239 -0.4358
  164SOPE   C3118392   3.192   6.683  10.361 -0.2063 -0.1402 -0.5074
  164SOPE   O3218393   3.081   6.731  10.366 -0.5631  0.2445 -0.2942
  164SOPE   C3218394   3.299   6.717  10.258  0.1465  0.5216  0.1324
  164SOPE   H2X18395   3.375   6.638  10.273  2.1996  1.8132 -2.6547
  164SOPE   H2Y18396   3.355   6.806  10.293  1.3229 -1.0619  2.5082
  164SOPE   C2318397   2.938   6.340  10.234  0.2316 -0.4362  0.7255
  164SOPE   H3R18398   3.021   6.387  10.178 -1.1481 -0.7659 -1.7653
  164SOPE   H3S18399   2.877   6.416  10.287 -2.6117 -1.7591 -0.4328
  164SOPE   C2418400   2.843   6.282  10.128  0.1899  0.2816 -0.0898
  164SOPE   H4R18401   2.739   6.273  10.167  0.1714  1.7138  0.2282
  164SOPE   H4S18402   2.839   6.366  10.055 -1.4423  0.0654 -0.2900
  164SOPE   C2518403   2.894   6.152  10.062  0.1961 -0.2757  0.2410
  164SOPE   H5R18404   2.895   6.071  10.138 -0.2047 -1.7080 -1.2085
  164SOPE   H5S18405   2.823   6.122   9.981 -0.7020 -1.1299  1.3062
  164SOPE   C2618406   3.034   6.161   9.996 -0.9825  0.4911  0.9443
  164SOPE   H6R18407   3.050   6.256   9.941 -0.8313  1.4219  2.5408
  164SOPE   H6S18408   3.110   6.161  10.077 -0.5506  0.2790  0.5430
  164SOPE   C2718409   3.061   6.033   9.902 -0.2706  0.0469  0.4780
  164SOPE   H7R18410   3.066   5.950   9.976 -0.3424  2.0862  2.8971
  164SOPE   H7S18411   2.975   6.018   9.834 -0.2885 -0.6321  0.6430
  164SOPE   C2818412   3.192   6.047   9.828 -0.0247 -0.2252 -0.1333
  164SOPE   H8R18413   3.272   6.090   9.891  0.1995 -1.4834  0.4664
  164SOPE   H8S18414   3.246   5.951   9.814  2.7029  0.6049  3.2318
  164SOPE   C2918415   3.178   6.134   9.704  0.3182  0.6068 -0.1325
  164SOPE   H9118416   3.099   6.210   9.708 -0.9933 -0.6412 -1.1557
  164SOPE  C21018417   3.238   6.108   9.588 -0.2002  0.9405 -0.0208
  164SOPE  H10118418   3.212   6.180   9.509  0.2298  0.1121 -0.9373
  164SOPE  C21118419   3.328   5.991   9.549  0.6116  0.4932 -0.1955
  164SOPE  H11R18420   3.359   5.921   9.630  2.0295 -1.6192 -2.4290
  164SOPE  H11S18421   3.425   6.017   9.503  1.8821 -2.9459  0.2123
  164SOPE  C21218422   3.255   5.907   9.444  0.1981 -0.3340  0.4905
  164SOPE  H12R18423   3.153   5.890   9.484  0.6261  0.7601  2.1535
  164SOPE  H12S18424   3.306   5.810   9.423  0.6039 -0.1026  0.3852
  164SOPE  C21318425   3.241   5.976   9.306  0.4124  0.2351 -0.0561
  164SOPE  H13R18426   3.333   6.037   9.294  0.8575 -0.3726  0.1621
  164SOPE  H13S18427   3.150   6.038   9.319 -0.5286 -1.3736  1.4446
  164SOPE  C21418428   3.222   5.872   9.197 -0.0469 -0.1579 -0.3741
  164SOPE  H14R18429   3.148   5.804   9.245 -0.1230  1.5275  2.0530
  164SOPE  H14S18430   3.320   5.821   9.184  0.8868  1.7547 -1.1021
  164SOPE  C21518431   3.169   5.920   9.061 -0.3280 -0.1732 -0.9440
  164SOPE  H15R18432   3.243   5.968   8.994 -0.8616  0.4954 -1.0643
  164SOPE  H15S18433   3.085   5.990   9.079 -1.8959 -1.6979 -2.0863
  164SOPE  C21618434   3.114   5.793   8.986  0.3378 -0.3955  0.2262
  164SOPE  H16R18435   3.036   5.742   9.045 -0.2718 -0.8770 -0.9554
  164SOPE  H16S18436   3.193   5.715   8.979  0.5144 -0.3662  1.7042
  164SOPE  C21718437   3.066   5.843   8.844 -0.2135  0.6764 -0.0885
  164SOPE  H17R18438   3.136   5.914   8.796  1.5158 -1.8705 -1.6020
  164SOPE  H17S18439   2.964   5.887   8.843 -0.3280  0.4759 -2.4365
  164SOPE  C21818440   3.059   5.727   8.750  0.7947  0.1602 -0.0675
  164SOPE  H18R18441   2.981   5.739   8.672  0.8624  0.0623 -0.1490
  164SOPE  H18S18442   3.028   5.637   8.806 -0.9282  0.3888 -0.6022
  164SOPE  H18T18443   3.151   5.690   8.700  0.5692 -0.0099 -0.3563
  164SOPE   C3318444   3.229   6.718  10.123 -0.1061 -0.0014 -0.0629
  164SOPE   H3X18445   3.139   6.783  10.121  1.0310  1.6617  0.7335
  164SOPE   H3Y18446   3.192   6.622  10.080  2.9266 -1.5850  0.5592
  164SOPE   C3418447   3.312   6.785  10.011 -0.1110  0.4890  0.6226
  164SOPE   H4X18448   3.414   6.742  10.014  1.2259  3.4778  1.9951
  164SOPE   H4Y18449   3.314   6.894  10.031  2.7510  0.4848  0.7520
  164SOPE   C3518450   3.265   6.770   9.860 -0.1601  0.5153 -0.5405
  164SOPE   H5X18451   3.160   6.807   9.852 -0.3896 -0.2073 -1.0445
  164SOPE   H5Y18452   3.265   6.660   9.848 -1.1194  0.5231 -0.7006
  164SOPE   C3618453   3.366   6.837   9.765 -0.2921  0.3593  0.1839
  164SOPE   H6X18454   3.464   6.790   9.784 -0.3519  0.2056  0.1122
  164SOPE   H6Y18455   3.379   6.945   9.788 -1.1595  0.5063  0.0425
  164SOPE   C3718456   3.313   6.833   9.622  0.0938 -0.5144  0.3637
  164SOPE   H7X18457   3.210   6.876   9.622  0.0602 -0.5097 -1.6160
  164SOPE   H7Y18458   3.304   6.727   9.592 -0.9503 -0.8145  1.6506
  164SOPE   C3818459   3.403   6.900   9.520 -0.8316 -0.6465 -0.0231
  164SOPE   H8X18460   3.493   6.838   9.499  0.0911  0.6076  0.0866
  164SOPE   H8Y18461   3.441   6.998   9.557 -0.5856 -0.5741 -0.4584
  164SOPE   C3918462   3.341   6.922   9.386  0.0697  0.0381 -0.3351
  164SOPE   H9X18463   3.238   6.954   9.412  0.1393 -1.3840  1.9253
  164SOPE   H9Y18464   3.336   6.826   9.330  0.0575 -0.2682  0.1911
  164SOPE  C31018465   3.422   7.022   9.294  0.1628  0.0667  0.1793
  164SOPE  H10X18466   3.525   6.984   9.276  0.9613 -0.5350  4.7851
  164SOPE  H10Y18467   3.425   7.116   9.352 -1.0449 -0.5241  1.2610
  164SOPE  C31118468   3.356   7.048   9.159  0.1778  0.4448  0.1350
  164SOPE  H11X18469   3.253   7.081   9.184  0.4119  1.0774  0.2819
  164SOPE  H11Y18470   3.362   6.954   9.100 -2.5402  0.5599 -0.4769
  164SOPE  C31218471   3.420   7.172   9.078  0.2065 -0.4211  1.0564
  164SOPE  H12X18472   3.401   7.262   9.139  1.0450 -0.2065  1.0248
  164SOPE  H12Y18473   3.370   7.185   8.980  1.0768  0.3510  0.6960
  164SOPE  C31318474   3.575   7.163   9.064 -0.7197 -0.0749  0.0662
  164SOPE  H13X18475   3.623   7.151   9.163 -0.5008 -2.7836 -0.3007
  164SOPE  H13Y18476   3.621   7.247   9.008  1.9802  0.6637  3.0771
  164SOPE  C31418477   3.614   7.035   8.990 -0.0679 -0.0024  0.2996
  164SOPE  H14X18478   3.554   7.032   8.897 -1.2754  0.4873  1.0392
  164SOPE  H14Y18479   3.597   6.944   9.053 -1.3598  0.6046  0.8634
  164SOPE  C31518480   3.762   7.011   8.963 -0.7675  0.6199 -0.4199
  164SOPE  H15X18481   3.800   6.942   9.042  0.9641  2.1987  0.2112
  164SOPE  H15Y18482   3.823   7.102   8.980 -1.4042  1.0065 -0.1988
  164SOPE  C31618483   3.787   6.966   8.820 -0.4362  0.3070  0.9141
  164SOPE  H16X18484   3.895   6.975   8.800 -0.8210 -0.4972 -2.0086
  164SOPE  H16Y18485   3.734   7.025   8.742 -0.7335 -2.2559 -0.9607
  164SOPE  C31718486   3.762   6.819   8.790  0.1853 -0.3516  0.6821
  164SOPE  H17X18487   3.822   6.760   8.863  1.5052  0.6517  0.4359
  164SOPE  H17Y18488   3.800   6.798   8.688  1.3806  1.4424  0.7127
  164SOPE  C31818489   3.615   6.780   8.778 -0.6474  0.0017 -0.1454
  164SOPE  H18X18490   3.602   6.705   8.698  0.1757  0.5425 -0.8060
  164SOPE  H18Y18491   3.553   6.867   8.748  2.1776  1.9231 -0.8222
  164SOPE  H18Z18492   3.575   6.741   8.874 -0.3644  1.7140  0.7259
  165SOPE     N18493   2.430   6.344  11.184  0.2078 -0.0963  0.3987
  165SOPE   HN118494   2.423   6.433  11.237 -1.4389  0.9762 -1.4923
  165SOPE   HN218495   2.350   6.279  11.194  1.4719 -1.5959  1.2561
  165SOPE   HN318496   2.507   6.284  11.221  0.4240 -0.4994 -0.6795
  165SOPE   C1218497   2.460   6.385  11.046  0.0410 -0.2590  0.5693
  165SOPE  H12A18498   2.566   6.419  11.046 -0.4653  1.4258 -0.0675
  165SOPE  H12B18499   2.389   6.466  11.020 -1.1348 -1.7434 -1.0454
  165SOPE   C1118500   2.420   6.287  10.936  0.1304  0.3463  0.8840
  165SOPE  H11A18501   2.444   6.334  10.838  0.8224  1.0272  1.3653
  165SOPE  H11B18502   2.311   6.272  10.950 -0.0426  1.3346  0.6165
  165SOPE     P18503   2.421   6.027  10.894  0.1680  0.0233  0.3181
  165SOPE   O1318504   2.305   6.007  10.980 -0.7879  0.1429  0.5581
  165SOPE   O1418505   2.517   5.924  10.902  0.0142  0.6602 -0.6928
  165SOPE   O1218506   2.496   6.159  10.932  0.0469 -0.1556 -0.0927
  165SOPE   O1118507   2.386   6.055  10.740  0.7849  0.6676 -0.2037
  165SOPE    C118508   2.500   6.081  10.653  0.5272 -0.2430  0.3095
  165SOPE    HA18509   2.543   5.991  10.603  0.4668 -0.8649  1.3420
  165SOPE    HB18510   2.589   6.118  10.708  0.4665  1.6621 -0.7868
  165SOPE    C218511   2.456   6.179  10.544 -0.0386 -0.4726 -0.6912
  165SOPE    HS18512   2.419   6.271  10.593 -0.6816 -1.3351  0.4791
  165SOPE   O2118513   2.363   6.107  10.466 -0.2485  0.0638  0.2275
  165SOPE   C2118514   2.241   6.151  10.444  0.4921 -0.4332 -0.0683
  165SOPE   O2218515   2.196   6.262  10.478 -0.7069 -0.1277 -0.1183
  165SOPE   C2218516   2.159   6.044  10.374  0.0034 -0.1943  0.2271
  165SOPE   H2R18517   2.051   6.044  10.402 -0.8101  0.4734 -2.5577
  165SOPE   H2S18518   2.208   5.945  10.385  1.3186  0.2006 -1.5501
  165SOPE    C318519   2.579   6.219  10.455 -0.3135  0.2721 -0.1894
  165SOPE    HX18520   2.632   6.133  10.409 -0.6048  0.6124 -1.1963
  165SOPE    HY18521   2.659   6.256  10.522 -0.9378  0.3132  0.5528
  165SOPE   O3118522   2.531   6.306  10.354 -1.1891  0.2626  0.1134
  165SOPE   C3118523   2.524   6.437  10.392  0.5253  0.4591  1.1371
  165SOPE   O3218524   2.565   6.474  10.495  0.9287 -0.1877  0.0283
  165SOPE   C3218525   2.431   6.511  10.293  0.1275 -0.7794 -0.1440
  165SOPE   H2X18526   2.329   6.480  10.325 -0.1421 -0.5382 -0.7380
  165SOPE   H2Y18527   2.440   6.471  10.190 -2.4732  0.8628 -1.1267
  165SOPE   C2318528   2.150   6.073  10.222  0.2697  0.5770  0.4166
  165SOPE   H3R18529   2.248   6.068  10.170 -0.2129 -0.2555 -0.4309
  165SOPE   H3S18530   2.092   6.167  10.216 -1.6153 -0.2695  3.1998
  165SOPE   C2418531   2.069   5.967  10.135  0.2698 -0.3386 -0.5624
  165SOPE   H4R18532   2.134   5.877  10.137  1.5735  0.5677 -0.7842
  165SOPE   H4S18533   1.975   5.934  10.183  1.3257  2.0085  3.6917
  165SOPE   C2518534   2.061   6.015   9.992  0.3079  0.2531 -0.0354
  165SOPE   H5R18535   1.982   6.093   9.993 -0.2199 -0.2380  2.2542
  165SOPE   H5S18536   2.160   6.059   9.967 -0.2453  1.8442  0.4464
  165SOPE   C2618537   2.021   5.910   9.897 -0.0346  0.3319  0.0032
  165SOPE   H6R18538   2.037   5.938   9.791  2.1301 -3.8496 -1.0110
  165SOPE   H6S18539   2.095   5.828   9.912  2.0180  2.4296  2.0945
  165SOPE   C2718540   1.878   5.858   9.913  0.4082 -0.5176 -0.8849
  165SOPE   H7R18541   1.867   5.820  10.017  1.6571  2.4719  0.4543
  165SOPE   H7S18542   1.815   5.948   9.918  2.5134  0.9578  1.5230
  165SOPE   C2818543   1.835   5.756   9.814 -0.1730 -0.1762  0.2342
  165SOPE   H8R18544   1.725   5.741   9.818 -0.3571  0.6616 -0.9382
  165SOPE   H8S18545   1.855   5.809   9.718 -0.5787  4.8026  2.5948
  165SOPE   C2918546   1.890   5.625   9.833 -0.9561  0.0814  0.4661
  165SOPE   H9118547   1.903   5.593   9.937 -1.0712 -0.3585  0.3499
  165SOPE  C21018548   1.931   5.546   9.733 -0.3178 -0.0856  0.3179
  165SOPE  H10118549   1.975   5.450   9.764  2.8890  1.4066  0.8078
  165SOPE  C21118550   1.926   5.561   9.585 -0.3981 -0.5311 -0.8251
  165SOPE  H11R18551   1.928   5.669   9.556  1.2765 -0.5157 -0.7841
  165SOPE  H11S18552   1.833   5.519   9.543 -1.5667 -1.0175  1.9998
  165SOPE  C21218553   2.044   5.489   9.526 -0.7927  0.8288  0.2125
  165SOPE  H12R18554   2.042   5.382   9.557 -2.6860  0.6699 -0.3655
  165SOPE  H12S18555   2.136   5.531   9.573 -0.7014  0.8319  0.0318
  165SOPE  C21318556   2.072   5.513   9.370  0.0207 -0.2769 -0.1215
  165SOPE  H13R18557   2.054   5.622   9.375  0.7697 -0.1365 -0.3563
  165SOPE  H13S18558   1.989   5.464   9.314 -1.6860  0.5219  1.5975
  165SOPE  C21418559   2.221   5.503   9.337 -0.0466 -0.7407  0.0165
  165SOPE  H14R18560   2.265   5.406   9.368  2.8705 -0.2199 -2.0649
  165SOPE  H14S18561   2.281   5.580   9.390  0.9667 -0.5458 -1.3629
  165SOPE  C21518562   2.236   5.510   9.184 -0.4859  0.1151 -0.4316
  165SOPE  H15R18563   2.188   5.414   9.151 -0.5209  0.0011 -0.0492
  165SOPE  H15S18564   2.344   5.507   9.158 -0.2556 -0.5311  0.5407
  165SOPE  C21618565   2.172   5.621   9.102  0.3944 -0.3030  0.2126
  165SOPE  H16R18566   2.203   5.719   9.145 -1.4372  0.8025 -0.8225
  165SOPE  H16S18567   2.065   5.602   9.128  1.1604 -3.3721  1.5706
  165SOPE  C21718568   2.203   5.613   8.956  0.0222  0.3326 -1.2964
  165SOPE  H17R18569   2.178   5.512   8.916  0.4295 -0.4570  0.3516
  165SOPE  H17S18570   2.313   5.620   8.947  0.0622 -1.4842 -3.1451
  165SOPE  C21818571   2.143   5.729   8.870 -0.1246  0.8524 -0.6236
  165SOPE  H18R18572   2.075   5.792   8.931  0.0756  1.4288 -0.9889
  165SOPE  H18S18573   2.076   5.684   8.793 -1.2687 -0.1119  0.8924
  165SOPE  H18T18574   2.217   5.789   8.814  0.0327  0.0812 -1.2709
  165SOPE   C3318575   2.438   6.667  10.287 -0.3089  0.3757 -0.1244
  165SOPE   H3X18576   2.421   6.700  10.392  3.5299 -0.3664  0.8787
  165SOPE   H3Y18577   2.356   6.697  10.219 -0.1489 -0.6832 -0.8032
  165SOPE   C3418578   2.573   6.722  10.236 -0.4768 -0.3313 -0.4762
  165SOPE   H4X18579   2.642   6.701  10.320  0.9704 -0.4958 -1.6505
  165SOPE   H4Y18580   2.579   6.832  10.229  1.0076 -0.3604  0.0443
  165SOPE   C3518581   2.634   6.669  10.107 -0.1459 -0.0890 -0.4239
  165SOPE   H5X18582   2.566   6.702  10.025 -0.5878 -0.0337 -0.0372
  165SOPE   H5Y18583   2.641   6.559  10.117 -1.9731 -0.2054 -0.2344
  165SOPE   C3618584   2.781   6.715  10.092  0.3791  0.2993  0.3374
  165SOPE   H6X18585   2.835   6.704  10.189  2.6067  0.5141 -0.8305
  165SOPE   H6Y18586   2.788   6.823  10.069  0.9956  0.4512  1.1854
  165SOPE   C3718587   2.855   6.656   9.970 -0.4395 -0.2333 -0.7658
  165SOPE   H7X18588   2.861   6.547   9.987  4.1194 -0.1263 -0.5511
  165SOPE   H7Y18589   2.958   6.695   9.980 -0.4828 -0.5584  1.5197
  165SOPE   C3818590   2.798   6.666   9.834  0.3180  0.1291  0.6475
  165SOPE   H8X18591   2.767   6.772   9.824 -1.6590 -0.6011 -2.6808
  165SOPE   H8Y18592   2.710   6.601   9.816  0.7960 -0.7377  1.3682
  165SOPE   C3918593   2.905   6.632   9.722  0.8206  0.3036  0.2020
  165SOPE   H9X18594   2.912   6.521   9.715 -1.8437 -0.0507  1.6865
  165SOPE   H9Y18595   3.000   6.679   9.754  1.6873 -2.1532  1.5190
  165SOPE  C31018596   2.870   6.696   9.587 -0.1087  0.3473  0.4875
  165SOPE  H10X18597   2.878   6.807   9.583  0.1615  0.2903 -1.2352
  165SOPE  H10Y18598   2.766   6.671   9.555  0.8031 -1.9105 -0.9414
  165SOPE  C31118599   2.961   6.647   9.477 -0.5771 -0.6575  0.1077
  165SOPE  H11X18600   2.950   6.541   9.446 -0.7579 -0.9021  0.9877
  165SOPE  H11Y18601   3.065   6.647   9.515 -0.5639  0.4413  0.0871
  165SOPE  C31218602   2.971   6.724   9.347 -0.0459  0.1930  0.4021
  165SOPE  H12X18603   3.062   6.703   9.286  1.4284  1.3020  2.0864
  165SOPE  H12Y18604   2.962   6.828   9.387  0.4652  0.6506 -0.6420
  165SOPE  C31318605   2.849   6.699   9.253  0.7121  0.0975 -0.3570
  165SOPE  H13X18606   2.754   6.684   9.310  0.5123  1.3571 -0.3257
  165SOPE  H13Y18607   2.876   6.611   9.191  0.2736  0.6800 -1.3879
  165SOPE  C31418608   2.824   6.823   9.170 -0.5260  0.0623  0.0928
  165SOPE  H14X18609   2.925   6.862   9.144 -0.3052  0.6961  1.7841
  165SOPE  H14Y18610   2.782   6.908   9.228 -0.7749 -0.4988  0.7468
  165SOPE  C31518611   2.730   6.803   9.049  0.2847  0.0181 -0.2111
  165SOPE  H15X18612   2.626   6.781   9.081 -0.0743  1.0542 -0.6521
  165SOPE  H15Y18613   2.758   6.710   8.995 -2.6832 -0.3993 -1.1972
  165SOPE  C31618614   2.723   6.915   8.947  0.3091  0.2725  0.0580
  165SOPE  H16X18615   2.828   6.919   8.910  0.2264  0.3368 -0.1754
  165SOPE  H16Y18616   2.695   7.008   8.999 -0.6507 -1.0768  2.0540
  165SOPE  C31718617   2.624   6.885   8.835 -0.3730  0.2450 -0.2091
  165SOPE  H17X18618   2.531   6.893   8.895  1.5030  1.0728  2.8013
  165SOPE  H17Y18619   2.643   6.782   8.799  2.9591  0.2783  1.1640
  165SOPE  C31818620   2.634   6.991   8.725 -0.8487 -0.5039 -0.3130
  165SOPE  H18X18621   2.729   6.983   8.668 -1.6425 -0.3422 -1.6875
  165SOPE  H18Y18622   2.635   7.098   8.756  2.8840 -1.0157  2.0223
  165SOPE  H18Z18623   2.560   6.973   8.645  1.2729 -0.3457 -2.4160
  166SOPE     N18624   5.424   2.212  11.110  0.0334 -0.3092 -0.1060
  166SOPE   HN118625   5.517   2.186  11.149  0.6329  0.4831 -0.9588
  166SOPE   HN218626   5.348   2.174  11.169 -1.5464  3.1097  0.2788
  166SOPE   HN318627   5.408   2.179  11.013  2.0928 -2.7993  0.2955
  166SOPE   C1218628   5.413   2.362  11.113  0.6598 -0.5025 -0.2941
  166SOPE  H12A18629   5.421   2.391  11.220  0.2418  0.9611 -0.6255
  166SOPE  H12B18630   5.318   2.395  11.067  0.7898  0.9437  0.4200
  166SOPE   C1118631   5.533   2.426  11.050 -0.4550 -0.8263  0.3566
  166SOPE  H11A18632   5.522   2.533  11.078  1.2664 -0.6677  0.5193
  166SOPE  H11B18633   5.522   2.414  10.940 -0.2251 -2.5372  0.4928
  166SOPE     P18634   5.797   2.452  11.085 -0.6328  0.1003  0.0319
  166SOPE   O1318635   5.893   2.353  11.051 -0.5775 -0.3446  0.0455
  166SOPE   O1418636   5.825   2.526  11.210 -0.2398 -0.4134 -0.0300
  166SOPE   O1218637   5.661   2.381  11.094 -0.1262  0.6801 -0.0295
  166SOPE   O1118638   5.781   2.549  10.971 -0.6372 -0.6346 -0.4884
  166SOPE    C118639   5.867   2.559  10.856  0.3960 -0.3000 -0.0509
  166SOPE    HA18640   5.969   2.523  10.883  0.1745  0.1891  1.5308
  166SOPE    HB18641   5.865   2.666  10.829 -1.7066  0.3555  2.2874
  166SOPE    C218642   5.815   2.475  10.733 -0.4488  0.5268 -0.2809
  166SOPE    HS18643   5.815   2.371  10.771  3.2020  0.7929  0.8883
  166SOPE   O2118644   5.915   2.491  10.633  0.3698 -0.0711  0.7564
  166SOPE   C2118645   5.941   2.381  10.559  0.0090 -0.1003  0.4638
  166SOPE   O2218646   5.885   2.276  10.566 -0.2300  0.0646  0.4197
  166SOPE   C2218647   6.040   2.423  10.450 -0.2200  0.5404  0.3283
  166SOPE   H2R18648   6.143   2.427  10.492  0.2745 -0.3896 -0.7603
  166SOPE   H2S18649   6.015   2.530  10.435  0.5198  0.6750  0.0192
  166SOPE    C318650   5.672   2.511  10.691  0.1106 -0.0523  0.3495
  166SOPE    HX18651   5.669   2.619  10.668  4.2575  0.1563  0.1653
  166SOPE    HY18652   5.600   2.493  10.774  0.7838 -2.4712  0.4969
  166SOPE   O3118653   5.637   2.445  10.571  0.1387  0.6837  0.6809
  166SOPE   C3118654   5.588   2.323  10.586  0.4980 -0.9240 -0.0489
  166SOPE   O3218655   5.583   2.265  10.692 -0.6680 -0.5789  0.1446
  166SOPE   C3218656   5.540   2.263  10.454  0.5420  0.1263 -0.6587
  166SOPE   H2X18657   5.430   2.271  10.443  0.5962 -0.3849 -1.7804
  166SOPE   H2Y18658   5.567   2.156  10.463  1.2819  0.3855  0.3128
  166SOPE   C2318659   6.052   2.344  10.321  0.2129 -0.0399 -0.1616
  166SOPE   H3R18660   5.959   2.365  10.265  0.5328  1.2394 -0.2615
  166SOPE   H3S18661   6.051   2.234  10.329 -2.1829 -0.0539 -0.1520
  166SOPE   C2418662   6.167   2.396  10.235 -0.3690  0.2498  0.1184
  166SOPE   H4R18663   6.128   2.485  10.183 -1.6078 -0.8326 -0.8779
  166SOPE   H4S18664   6.263   2.409  10.289  1.4815 -1.3111 -2.5366
  166SOPE   C2518665   6.195   2.305  10.108  0.5923  0.1036  0.7263
  166SOPE   H5R18666   6.193   2.200  10.144 -1.5512 -0.4379 -0.8315
  166SOPE   H5S18667   6.107   2.302  10.041  0.2485 -3.1171  1.1549
  166SOPE   C2618668   6.313   2.332  10.023  0.0805  0.1389 -0.0021
  166SOPE   H6R18669   6.304   2.431   9.973  1.0381 -0.4883 -1.5008
  166SOPE   H6S18670   6.390   2.352  10.100 -1.2320 -1.9424  1.9613
  166SOPE   C2718671   6.360   2.216   9.939  0.0362  0.4116 -0.3280
  166SOPE   H7R18672   6.350   2.131  10.010 -0.1350  2.5526  2.3844
  166SOPE   H7S18673   6.290   2.206   9.854 -1.1181 -1.1904  0.7443
  166SOPE   C2818674   6.508   2.225   9.898  0.7576  0.4892 -0.5384
  166SOPE   H8R18675   6.542   2.320   9.853  3.2092  0.0197  0.1556
  166SOPE   H8S18676   6.567   2.226   9.992 -0.5011  1.8365  0.2690
  166SOPE   C2918677   6.548   2.110   9.814 -0.9469 -0.0107  0.2715
  166SOPE   H9118678   6.601   2.031   9.869 -1.3496 -0.1833  0.4174
  166SOPE  C21018679   6.516   2.091   9.682  0.0104  0.2457 -0.8462
  166SOPE  H10118680   6.543   1.991   9.644 -1.8931 -0.2764 -0.9466
  166SOPE  C21118681   6.444   2.173   9.579 -0.1697 -0.0955 -0.4705
  166SOPE  H11R18682   6.393   2.254   9.634  0.2011  1.4083 -2.2277
  166SOPE  H11S18683   6.373   2.107   9.524 -0.1472 -1.4525  1.0655
  166SOPE  C21218684   6.556   2.235   9.497 -0.1387 -0.3540  0.0511
  166SOPE  H12R18685   6.632   2.281   9.564 -0.3444 -2.7167  2.0498
  166SOPE  H12S18686   6.514   2.316   9.434 -1.4702 -0.1068  1.2050
  166SOPE  C21318687   6.615   2.137   9.396 -0.0510  0.2592  0.2703
  166SOPE  H13R18688   6.555   2.044   9.389  0.3330  0.0714 -0.6306
  166SOPE  H13S18689   6.704   2.086   9.438  0.4839 -1.5674 -2.7604
  166SOPE  C21418690   6.659   2.205   9.266 -0.1596  0.1467 -0.3674
  166SOPE  H14R18691   6.728   2.290   9.289 -1.8469  0.9997  1.9226
  166SOPE  H14S18692   6.575   2.242   9.204 -0.2886 -0.3797 -0.5094
  166SOPE  C21518693   6.721   2.100   9.173 -0.5183  0.0800  0.6658
  166SOPE  H15R18694   6.643   2.021   9.170  0.2257 -0.8073  2.7542
  166SOPE  H15S18695   6.808   2.049   9.220  1.9703  3.5972  0.2573
  166SOPE  C21618696   6.764   2.148   9.036  0.5414  0.8638  0.3452
  166SOPE  H16R18697   6.672   2.199   9.000 -0.1439 -1.5909 -1.6053
  166SOPE  H16S18698   6.789   2.066   8.966  1.9014  0.1738  1.5780
  166SOPE  C21718699   6.885   2.243   9.041 -0.6546 -0.2610 -0.1063
  166SOPE  H17R18700   6.855   2.338   9.092  2.9304  0.4102  1.0172
  166SOPE  H17S18701   6.916   2.267   8.937  2.8308  0.0628  0.8908
  166SOPE  C21818702   7.008   2.187   9.104  0.0487  0.4786 -0.5084
  166SOPE  H18R18703   7.041   2.093   9.056 -2.4554  0.0186 -1.4827
  166SOPE  H18S18704   7.008   2.171   9.214  0.0724  1.7533 -0.3043
  166SOPE  H18T18705   7.087   2.263   9.087  0.0766  0.5829  0.0660
  166SOPE   C3318706   5.601   2.324  10.326 -0.5683  0.9848 -0.3401
  166SOPE   H3X18707   5.700   2.370  10.345  0.1095  0.0198 -1.4224
  166SOPE   H3Y18708   5.526   2.397  10.287 -0.6699  0.3114 -1.4565
  166SOPE   C3418709   5.641   2.223  10.216 -1.0043 -0.5488  0.1010
  166SOPE   H4X18710   5.558   2.151  10.202 -1.5202  0.0407  0.1335
  166SOPE   H4Y18711   5.735   2.168  10.240  0.3242  0.5882 -2.2161
  166SOPE   C3518712   5.679   2.283  10.078  0.2623  0.5636 -0.0225
  166SOPE   H5X18713   5.770   2.347  10.075  0.7410 -0.0317 -4.5109
  166SOPE   H5Y18714   5.598   2.355  10.056 -0.6608 -1.5324 -4.6653
  166SOPE   C3618715   5.673   2.188   9.958  0.1492  0.3563 -0.0196
  166SOPE   H6X18716   5.570   2.145   9.965 -0.7702  2.4810  0.2053
  166SOPE   H6Y18717   5.737   2.100   9.981 -1.2104 -0.9030 -0.9167
  166SOPE   C3718718   5.698   2.254   9.827 -0.2919 -0.4783 -0.3206
  166SOPE   H7X18719   5.801   2.296   9.830  0.6547 -2.5660 -1.2093
  166SOPE   H7Y18720   5.624   2.328   9.790 -1.6484 -1.3878  0.4872
  166SOPE   C3818721   5.711   2.157   9.709 -0.0273  0.4656  0.3060
  166SOPE   H8X18722   5.615   2.107   9.687  0.8268 -1.1738  0.1386
  166SOPE   H8Y18723   5.776   2.080   9.756 -1.0135 -0.4318  0.2389
  166SOPE   C3918724   5.748   2.225   9.583 -0.1451  0.2866 -0.7855
  166SOPE   H9X18725   5.734   2.334   9.599  0.6750  0.2231  0.5057
  166SOPE   H9Y18726   5.698   2.187   9.491  1.0172 -1.1917 -0.8452
  166SOPE  C31018727   5.897   2.201   9.557 -0.1505 -0.9578 -0.1686
  166SOPE  H10X18728   5.902   2.090   9.552 -0.2085 -1.0391  1.2037
  166SOPE  H10Y18729   5.963   2.239   9.638  0.7626 -1.2540 -0.7575
  166SOPE  C31118730   5.949   2.258   9.419  0.0666  0.7580  0.3117
  166SOPE  H11X18731   5.940   2.368   9.426 -0.6057  0.7671 -0.6208
  166SOPE  H11Y18732   5.869   2.226   9.350 -1.0708  1.7254  1.1342
  166SOPE  C31218733   6.087   2.193   9.398  0.2877  0.4194 -0.1131
  166SOPE  H12X18734   6.078   2.083   9.401 -2.6524  0.5959  2.2215
  166SOPE  H12Y18735   6.148   2.223   9.486  0.9205  1.8973 -1.0093
  166SOPE  C31318736   6.117   2.224   9.254 -1.0231  0.4575 -0.0983
  166SOPE  H13X18737   6.107   2.331   9.226 -1.7103  0.4355  0.0481
  166SOPE  H13Y18738   6.059   2.159   9.184 -0.7329  1.0889 -0.9336
  166SOPE  C31418739   6.268   2.188   9.226  0.7685  0.0520  0.1718
  166SOPE  H14X18740   6.285   2.079   9.237  1.4767  0.0182 -1.1058
  166SOPE  H14Y18741   6.340   2.244   9.290  0.2463 -0.0250  0.8454
  166SOPE  C31518742   6.319   2.219   9.083 -0.3169 -0.0912 -0.0028
  166SOPE  H15X18743   6.428   2.212   9.065 -0.1198 -0.7903  1.2936
  166SOPE  H15Y18744   6.277   2.319   9.060  0.4629  0.3148  0.2736
  166SOPE  C31618745   6.258   2.116   8.984 -0.1177  0.1458  0.5601
  166SOPE  H16X18746   6.148   2.129   8.989 -0.2850 -1.1798  0.7748
  166SOPE  H16Y18747   6.285   2.015   9.023 -3.2458 -2.3889 -3.0491
  166SOPE  C31718748   6.301   2.123   8.833 -0.5414 -0.0246 -0.1487
  166SOPE  H17X18749   6.256   2.033   8.787 -1.8697  0.2704  0.5449
  166SOPE  H17Y18750   6.409   2.125   8.805 -0.7433  0.5790 -0.9176
  166SOPE  C31818751   6.240   2.243   8.762  0.0532  0.3973  0.6564
  166SOPE  H18X18752   6.253   2.245   8.652 -0.3069  2.2650  0.6083
  166SOPE  H18Y18753   6.273   2.335   8.815  1.0140  0.1296  0.5420
  166SOPE  H18Z18754   6.130   2.230   8.776  0.3815 -1.6325  1.7102
  167SOPE     N18755   0.189   5.590   6.098  0.3952 -0.2413 -0.5512
  167SOPE   HN118756   0.092   5.564   6.068  0.1285 -0.1669  0.2202
  167SOPE   HN218757   0.235   5.504   6.134 -1.5365 -0.1586  2.4039
  167SOPE   HN318758   0.182   5.652   6.180  3.8898 -0.9643  0.4508
  167SOPE   C1218759   0.259   5.657   5.992  0.0650 -0.5897 -0.2410
  167SOPE  H12A18760   0.201   5.740   5.947 -0.0832 -0.3827  0.3349
  167SOPE  H12B18761   0.292   5.581   5.918  1.4985  1.1538 -1.5006
  167SOPE   C1118762   0.392   5.731   6.042  0.6992  0.7533  0.0246
  167SOPE  H11A18763   0.381   5.780   6.141  2.0317  3.1957 -0.9634
  167SOPE  H11B18764   0.415   5.815   5.973 -1.7991  1.0901 -0.5061
  167SOPE     P18765   0.554   5.583   6.182  0.4794  0.1310 -0.1817
  167SOPE   O1318766   0.663   5.491   6.163 -0.3616 -0.8152 -0.1511
  167SOPE   O1418767   0.431   5.537   6.248  0.2616  0.2938  0.3819
  167SOPE   O1218768   0.504   5.646   6.044 -0.2502  0.4758 -0.4268
  167SOPE   O1118769   0.601   5.712   6.263 -0.4000 -0.3054 -0.2470
  167SOPE    C118770   0.730   5.728   6.320  0.2498  0.2559 -0.5403
  167SOPE    HA18771   0.721   5.837   6.343 -2.2616  0.0232 -0.1538
  167SOPE    HB18772   0.803   5.722   6.237  0.7973 -1.2577  0.0239
  167SOPE    C218773   0.767   5.662   6.456  0.0371 -0.6788  0.0451
  167SOPE    HS18774   0.776   5.553   6.440  0.5656 -0.7241  0.6046
  167SOPE   O2118775   0.667   5.697   6.554  0.3385  0.0934  0.6011
  167SOPE   C2118776   0.615   5.588   6.615 -0.2460 -0.6279 -0.0474
  167SOPE   O2218777   0.634   5.474   6.592 -0.1744 -0.1935 -0.6458
  167SOPE   C2218778   0.541   5.645   6.737 -0.4025 -0.0751  0.5679
  167SOPE   H2R18779   0.480   5.735   6.713  1.0953  1.0403  0.8090
  167SOPE   H2S18780   0.620   5.678   6.808  0.7092 -2.0108  0.3013
  167SOPE    C318781   0.912   5.701   6.507  0.0223  0.1562  0.4160
  167SOPE    HX18782   0.985   5.648   6.442 -1.5921  0.1511 -1.4816
  167SOPE    HY18783   0.904   5.655   6.608  1.3709 -0.8584  0.0906
  167SOPE   O3118784   0.934   5.836   6.519 -0.3248  0.2566 -0.8642
  167SOPE   C3118785   1.041   5.870   6.597  0.7655 -0.1807 -0.0905
  167SOPE   O3218786   1.110   5.787   6.653 -0.2823  0.0200 -0.0480
  167SOPE   C3218787   1.046   6.024   6.615  0.6529  0.2202  0.3438
  167SOPE   H2X18788   1.097   6.063   6.524 -0.5214  0.1209 -0.3711
  167SOPE   H2Y18789   1.121   6.024   6.698 -0.7529 -0.5933  1.6674
  167SOPE   C2318790   0.457   5.551   6.815 -0.0729  0.1398 -0.7601
  167SOPE   H3R18791   0.500   5.450   6.830 -2.5612 -0.8317  0.3252
  167SOPE   H3S18792   0.365   5.539   6.753  0.3767  1.5370 -1.7510
  167SOPE   C2418793   0.410   5.610   6.947  0.7325 -0.0387  0.2829
  167SOPE   H4R18794   0.324   5.674   6.921  0.0084 -0.4031  1.7028
  167SOPE   H4S18795   0.376   5.532   7.018  1.0823  0.2305  0.7547
  167SOPE   C2518796   0.504   5.703   7.020 -0.1079 -0.0388 -0.0890
  167SOPE   H5R18797   0.596   5.644   7.039 -0.6886 -0.5637  1.2645
  167SOPE   H5S18798   0.527   5.793   6.961  0.3152  0.6408  1.0756
  167SOPE   C2618799   0.457   5.756   7.156  0.1518 -0.0614 -0.9814
  167SOPE   H6R18800   0.534   5.824   7.199  1.2410 -2.6134  1.4489
  167SOPE   H6S18801   0.367   5.821   7.149 -1.9398 -2.3986  1.6611
  167SOPE   C2718802   0.435   5.639   7.258 -0.5210  0.4778  0.0200
  167SOPE   H7R18803   0.330   5.609   7.277  0.0152 -0.9639  0.8377
  167SOPE   H7S18804   0.477   5.548   7.212 -1.5267 -0.8106  1.5518
  167SOPE   C2818805   0.520   5.664   7.385 -0.4877  0.3531  1.0813
  167SOPE   H8R18806   0.547   5.565   7.427 -0.7490 -0.9039 -1.4876
  167SOPE   H8S18807   0.610   5.722   7.357  0.5441 -1.7266 -0.2073
  167SOPE   C2918808   0.432   5.740   7.476 -0.0419 -0.5628  0.0530
  167SOPE   H9118809   0.382   5.826   7.430  0.8001  0.1295  0.4138
  167SOPE  C21018810   0.438   5.741   7.614  0.6537 -0.8339 -0.1326
  167SOPE  H10118811   0.368   5.801   7.673  0.3908 -1.7239  0.4780
  167SOPE  C21118812   0.517   5.650   7.714 -0.0113  0.7329  0.2575
  167SOPE  H11R18813   0.617   5.695   7.729 -0.3227  0.9899  1.7737
  167SOPE  H11S18814   0.528   5.552   7.662  1.1320  1.5856 -1.1809
  167SOPE  C21218815   0.450   5.615   7.847  0.7226  0.3294 -0.3997
  167SOPE  H12R18816   0.341   5.591   7.842  0.6051 -0.2362  2.7656
  167SOPE  H12S18817   0.461   5.704   7.913  0.9394 -0.7844  1.1029
  167SOPE  C21318818   0.517   5.493   7.924 -0.4107  0.0360  0.3386
  167SOPE  H13R18819   0.497   5.404   7.860 -0.1519  0.1560  0.0865
  167SOPE  H13S18820   0.453   5.470   8.012 -0.0569 -0.5774  0.4433
  167SOPE  C21418821   0.663   5.502   7.973  0.3092 -1.2582 -0.2226
  167SOPE  H14R18822   0.675   5.595   8.032 -1.7725 -1.5299  0.7282
  167SOPE  H14S18823   0.728   5.511   7.883 -0.9365 -0.3953 -1.0666
  167SOPE  C21518824   0.708   5.389   8.064 -0.0456  0.5735  0.3497
  167SOPE  H15R18825   0.816   5.408   8.081  0.6404 -3.1987  1.1589
  167SOPE  H15S18826   0.691   5.295   8.007  1.0188 -0.0089  0.9644
  167SOPE  C21618827   0.643   5.384   8.209 -0.4708  0.1202  0.3219
  167SOPE  H16R18828   0.705   5.313   8.267  1.7353  3.0324  1.8158
  167SOPE  H16S18829   0.536   5.359   8.196 -0.9565  2.4377 -0.6504
  167SOPE  C21718830   0.647   5.525   8.272 -0.4762  0.1953 -0.1063
  167SOPE  H17R18831   0.580   5.589   8.212  1.1317 -0.5062 -2.8342
  167SOPE  H17S18832   0.746   5.570   8.252 -0.5472 -0.6223 -2.6198
  167SOPE  C21818833   0.604   5.527   8.418 -0.2379  0.2816 -0.2017
  167SOPE  H18R18834   0.565   5.625   8.450 -0.2983  1.1127 -2.5954
  167SOPE  H18S18835   0.676   5.478   8.488 -2.4636 -2.3530  0.4122
  167SOPE  H18T18836   0.526   5.449   8.428 -0.9879  1.1399  0.9637
  167SOPE   C3318837   0.906   6.098   6.645 -0.3453  0.6878  0.8557
  167SOPE   H3X18838   0.845   6.079   6.554  1.6943  0.9606 -0.6408
  167SOPE   H3Y18839   0.926   6.207   6.636  1.2643  0.4783  1.5779
  167SOPE   C3418840   0.835   6.052   6.771  0.0723 -0.0196  0.3224
  167SOPE   H4X18841   0.815   5.943   6.780  2.4569 -0.4091  1.8742
  167SOPE   H4Y18842   0.731   6.090   6.768  0.5222  1.2068 -1.9589
  167SOPE   C3518843   0.909   6.092   6.900 -0.2498  0.2310 -0.4073
  167SOPE   H5X18844   0.944   6.197   6.895  0.5319  0.1595  2.3334
  167SOPE   H5Y18845   0.999   6.029   6.916  0.1660  1.1317  0.9153
  167SOPE   C3618846   0.822   6.092   7.020  0.4022  0.0888 -0.0022
  167SOPE   H6X18847   0.750   6.010   6.998 -0.7795  0.6770  1.5039
  167SOPE   H6Y18848   0.753   6.178   7.027  1.4716  0.8162  2.4595
  167SOPE   C3718849   0.892   6.053   7.147 -0.4194 -0.6227 -0.5363
  167SOPE   H7X18850   0.955   6.142   7.167 -0.5449 -0.6272 -0.1314
  167SOPE   H7Y18851   0.959   5.966   7.132  0.9100  0.6588 -2.5938
  167SOPE   C3818852   0.802   6.022   7.263  0.6542 -0.0239  0.4059
  167SOPE   H8X18853   0.751   5.926   7.240 -2.0661  0.6389  3.0537
  167SOPE   H8Y18854   0.720   6.097   7.266  0.4373 -0.2781  1.0057
  167SOPE   C3918855   0.877   6.019   7.392  0.0922  0.1600  0.6924
  167SOPE   H9X18856   0.936   6.112   7.403  0.9822 -0.4250  1.0048
  167SOPE   H9Y18857   0.951   5.937   7.405  0.6750  0.5684  0.0317
  167SOPE  C31018858   0.782   6.028   7.514 -0.5273 -0.1731  0.5754
  167SOPE  H10X18859   0.857   6.044   7.594 -1.1356  3.2077  0.6206
  167SOPE  H10Y18860   0.737   5.930   7.541  0.4250  0.3940  4.8025
  167SOPE  C31118861   0.682   6.136   7.510  0.3077  0.4363 -0.6988
  167SOPE  H11X18862   0.596   6.109   7.446 -0.7169  1.6506  0.1132
  167SOPE  H11Y18863   0.719   6.229   7.461  0.7850  0.7506  0.2359
  167SOPE  C31218864   0.644   6.190   7.648 -0.2501  0.6768  0.1899
  167SOPE  H12X18865   0.567   6.267   7.630 -0.7981 -0.1221 -1.0280
  167SOPE  H12Y18866   0.735   6.239   7.690 -1.4407  2.2884  0.9761
  167SOPE  C31318867   0.589   6.085   7.744 -0.5158  0.2786  0.2419
  167SOPE  H13X18868   0.661   6.001   7.756  0.1196  0.5393 -1.4459
  167SOPE  H13Y18869   0.497   6.042   7.699 -0.4081 -0.1283  0.4009
  167SOPE  C31418870   0.567   6.140   7.887 -0.3689 -0.4001  0.5504
  167SOPE  H14X18871   0.496   6.225   7.878 -0.2915 -0.2546  1.2516
  167SOPE  H14Y18872   0.656   6.183   7.938 -2.1657  2.2267  1.6914
  167SOPE  C31518873   0.513   6.035   7.974  0.6502  0.6097 -0.6499
  167SOPE  H15X18874   0.571   5.941   7.964 -0.1901 -0.1150  0.9238
  167SOPE  H15Y18875   0.403   6.022   7.965  0.6997  1.0011 -1.9457
  167SOPE  C31618876   0.520   6.087   8.117  0.2374  0.3123  0.1585
  167SOPE  H16X18877   0.448   6.172   8.117 -0.6045 -0.3944  0.1966
  167SOPE  H16Y18878   0.616   6.134   8.146 -0.0704  0.8176  0.3645
  167SOPE  C31718879   0.475   5.989   8.222 -0.6067  0.4152 -1.1768
  167SOPE  H17X18880   0.546   5.903   8.226  1.2374  1.9351  1.4511
  167SOPE  H17Y18881   0.374   5.944   8.215 -0.6765  0.4179 -0.2235
  167SOPE  C31818882   0.484   6.051   8.356 -0.5465  0.1996 -0.0036
  167SOPE  H18X18883   0.424   5.998   8.433 -1.6559 -1.6979 -2.0362
  167SOPE  H18Y18884   0.451   6.157   8.348  1.0107  1.0562  3.2837
  167SOPE  H18Z18885   0.590   6.051   8.387 -0.6024 -2.8017  0.5046
  168SOPE     N18886   6.055   3.670   6.749 -0.2916  0.3843  0.3018
  168SOPE   HN118887   5.967   3.632   6.790 -1.0174  0.6800 -0.9238
  168SOPE   HN218888   6.068   3.635   6.652  2.8811  0.9770  0.4176
  168SOPE   HN318889   6.128   3.615   6.798 -0.9588  0.4834  1.4358
  168SOPE   C1218890   6.079   3.814   6.775  0.3078  0.2195 -0.0307
  168SOPE  H12A18891   6.056   3.831   6.882  0.8693  1.3028 -0.0669
  168SOPE  H12B18892   6.016   3.882   6.714  1.6003  0.9309 -0.6112
  168SOPE   C1118893   6.221   3.846   6.726  0.1973  0.1446 -0.0892
  168SOPE  H11A18894   6.238   3.953   6.748 -1.1172  0.4484 -0.4958
  168SOPE  H11B18895   6.218   3.844   6.615  0.7053  1.9664 -0.1698
  168SOPE     P18896   6.463   3.784   6.777 -0.0977 -0.0251 -0.4289
  168SOPE   O1318897   6.494   3.808   6.633 -0.8149 -0.1387  0.1206
  168SOPE   O1418898   6.535   3.672   6.837  0.1225 -0.1327  0.0748
  168SOPE   O1218899   6.313   3.756   6.789 -0.3710 -0.5214  0.0372
  168SOPE   O1118900   6.491   3.919   6.863  0.2684  0.1670  0.2133
  168SOPE    C118901   6.418   3.957   6.984  0.5489  0.0882 -0.2390
  168SOPE    HA18902   6.314   3.920   6.976  1.6819 -3.1649 -1.3389
  168SOPE    HB18903   6.413   4.068   6.985  1.5787  0.1876 -1.9388
  168SOPE    C218904   6.488   3.904   7.114 -0.2751  0.7296  0.1340
  168SOPE    HS18905   6.490   3.794   7.097 -2.8882  0.8557 -1.5687
  168SOPE   O2118906   6.405   3.936   7.225 -0.3673  0.0552  0.2776
  168SOPE   C2118907   6.399   3.844   7.315  0.1501 -0.6698 -0.4456
  168SOPE   O2218908   6.453   3.733   7.323 -0.1489  0.3000 -0.3657
  168SOPE   C2218909   6.294   3.890   7.424 -0.6435  0.1551  0.1627
  168SOPE   H2R18910   6.205   3.916   7.362  0.5152  3.4015 -0.3045
  168SOPE   H2S18911   6.341   3.981   7.466 -2.1851  0.9135  0.3357
  168SOPE    C318912   6.642   3.940   7.138 -0.3394 -0.7612  0.4807
  168SOPE    HX18913   6.643   4.051   7.132 -0.3909 -0.8333 -1.4277
  168SOPE    HY18914   6.694   3.908   7.045 -0.4747  2.4106 -0.8062
  168SOPE   O3118915   6.690   3.894   7.266 -0.0525  0.1398 -0.2152
  168SOPE   C3118916   6.735   3.767   7.271 -0.6603  0.2052 -0.5741
  168SOPE   O3218917   6.742   3.691   7.180 -0.3078  0.1995 -0.4058
  168SOPE   C3218918   6.803   3.745   7.407  0.4231 -0.2923 -0.2955
  168SOPE   H2X18919   6.911   3.769   7.398  0.0137  3.0885  2.0085
  168SOPE   H2Y18920   6.797   3.639   7.440  2.4379 -0.1320  0.7250
  168SOPE   C2318921   6.274   3.803   7.543 -0.2567  0.0078 -0.4969
  168SOPE   H3R18922   6.372   3.787   7.593 -1.6657  1.7583  3.1824
  168SOPE   H3S18923   6.242   3.701   7.511  2.8650 -1.1323 -0.3416
  168SOPE   C2418924   6.185   3.851   7.651 -0.3854 -0.4193 -0.1422
  168SOPE   H4R18925   6.082   3.874   7.615 -0.5581  0.1762  0.7037
  168SOPE   H4S18926   6.178   3.771   7.729 -3.7100  1.7156  2.0127
  168SOPE   C2518927   6.234   3.975   7.728  0.2272  1.6712  0.7535
  168SOPE   H5R18928   6.331   3.941   7.771  0.5287 -2.8572 -2.6614
  168SOPE   H5S18929   6.267   4.058   7.662 -0.6076  0.0815 -1.8210
  168SOPE   C2618930   6.149   4.015   7.842  0.6203  0.3418 -0.2434
  168SOPE   H6R18931   6.182   4.116   7.873 -1.4173  1.3081 -1.0355
  168SOPE   H6S18932   6.042   4.015   7.810  1.0635  0.9920 -1.8032
  168SOPE   C2718933   6.163   3.921   7.966  0.8868  0.2040  0.3116
  168SOPE   H7R18934   6.137   3.821   7.926  0.1902  0.5898 -0.2173
  168SOPE   H7S18935   6.269   3.938   7.996 -0.0295  3.0672  2.3334
  168SOPE   C2818936   6.087   3.976   8.085 -0.0409  0.2561 -0.4416
  168SOPE   H8R18937   6.116   4.082   8.094 -0.0344  0.2710 -0.6215
  168SOPE   H8S18938   5.981   3.960   8.057  0.5364  1.0480 -3.4617
  168SOPE   C2918939   6.124   3.909   8.208 -0.2256  0.3871 -0.1880
  168SOPE   H9118940   6.224   3.937   8.242  2.3429 -3.0830 -3.9772
  168SOPE  C21018941   6.055   3.826   8.293 -0.2133 -0.3629 -0.5391
  168SOPE  H10118942   6.118   3.767   8.361 -0.0587  0.2435 -0.1398
  168SOPE  C21118943   5.919   3.770   8.260 -0.2668 -0.1452  0.4054
  168SOPE  H11R18944   5.906   3.770   8.149 -1.2068 -0.3630  0.5082
  168SOPE  H11S18945   5.847   3.845   8.300 -0.1019  1.1158 -1.5223
  168SOPE  C21218946   5.895   3.634   8.316  0.9918 -0.3607  0.2882
  168SOPE  H12R18947   5.970   3.563   8.277  0.4222 -0.6399 -0.3274
  168SOPE  H12S18948   5.799   3.600   8.270  0.7623 -0.6721  0.9640
  168SOPE  C21318949   5.863   3.634   8.471  0.0010  0.4048  0.1922
  168SOPE  H13R18950   5.784   3.710   8.486 -1.0094 -0.2458 -1.5452
  168SOPE  H13S18951   5.961   3.657   8.519 -1.1096  2.2732  1.6943
  168SOPE  C21418952   5.816   3.501   8.536  0.1954  0.2527 -0.2318
  168SOPE  H14R18953   5.898   3.427   8.547  0.8878  1.2008  1.2414
  168SOPE  H14S18954   5.739   3.453   8.471  0.0477 -0.6167  0.5765
  168SOPE  C21518955   5.768   3.522   8.678 -0.2059 -0.2197  0.2790
  168SOPE  H15R18956   5.663   3.553   8.659 -0.3277 -0.4413  0.5821
  168SOPE  H15S18957   5.820   3.613   8.713 -0.7577 -0.2394  1.2017
  168SOPE  C21618958   5.777   3.404   8.769  0.2858  0.3517 -0.0945
  168SOPE  H16R18959   5.737   3.446   8.864  1.6621  2.3373 -0.3436
  168SOPE  H16S18960   5.879   3.365   8.791  0.6050  0.6950 -0.9161
  168SOPE  C21718961   5.685   3.285   8.718 -0.3373 -1.6373 -0.6901
  168SOPE  H17R18962   5.750   3.213   8.664 -1.6901 -3.6068  0.2073
  168SOPE  H17S18963   5.616   3.328   8.642 -0.7877 -0.5135  0.3189
  168SOPE  C21818964   5.604   3.210   8.827  0.0986 -0.7558 -0.1627
  168SOPE  H18R18965   5.535   3.287   8.868  1.0219 -1.0679  2.1809
  168SOPE  H18S18966   5.667   3.192   8.917  2.8020  0.4512 -1.6778
  168SOPE  H18T18967   5.551   3.117   8.798 -0.0098 -0.8388  0.2834
  168SOPE   C3318968   6.737   3.835   7.521 -0.4357  0.4314  0.2544
  168SOPE   H3X18969   6.629   3.819   7.540 -0.4748  3.0363  2.9091
  168SOPE   H3Y18970   6.740   3.944   7.499 -3.1148  0.0051 -3.1275
  168SOPE   C3418971   6.798   3.794   7.655  0.0798 -1.0054  0.6775
  168SOPE   H4X18972   6.905   3.822   7.646  0.0623 -0.3789  2.1775
  168SOPE   H4Y18973   6.798   3.683   7.667  1.3057 -0.8848  2.1571
  168SOPE   C3518974   6.736   3.843   7.782  0.1957  0.1464  0.0399
  168SOPE   H5X18975   6.628   3.820   7.788 -0.0889  1.5773  0.6749
  168SOPE   H5Y18976   6.741   3.954   7.779  0.1889  0.1268 -1.6770
  168SOPE   C3618977   6.804   3.784   7.904 -0.6339 -0.5066  0.0904
  168SOPE   H6X18978   6.906   3.827   7.911 -1.1039  1.0560 -1.7421
  168SOPE   H6Y18979   6.811   3.673   7.900  0.1611 -0.4200 -2.0790
  168SOPE   C3718980   6.730   3.832   8.027 -0.2525  0.9258 -0.7095
  168SOPE   H7X18981   6.621   3.824   8.010 -0.2676 -0.5655 -0.0463
  168SOPE   H7Y18982   6.751   3.941   8.030 -0.4460  1.0223 -2.0968
  168SOPE   C3818983   6.767   3.755   8.155  0.6703  0.0968  0.9186
  168SOPE   H8X18984   6.865   3.792   8.191  0.4886 -0.6060  2.1978
  168SOPE   H8Y18985   6.763   3.646   8.130 -1.0084  0.4327 -0.5240
  168SOPE   C3918986   6.654   3.781   8.255  0.5284 -0.0990  0.0455
  168SOPE   H9X18987   6.558   3.758   8.204  0.9413 -1.7943 -0.0549
  168SOPE   H9Y18988   6.654   3.887   8.286  0.4713 -0.2313  0.5134
  168SOPE  C31018989   6.675   3.697   8.382 -0.7340  0.0686  0.2018
  168SOPE  H10X18990   6.781   3.699   8.416 -1.2122  0.9884  1.6820
  168SOPE  H10Y18991   6.638   3.593   8.365 -0.8112 -0.4076  2.8667
  168SOPE  C31118992   6.576   3.742   8.496 -0.4718  0.8104  0.4989
  168SOPE  H11X18993   6.602   3.674   8.580  1.5701  0.6607 -0.2047
  168SOPE  H11Y18994   6.471   3.732   8.463 -1.0031  1.0900  1.9890
  168SOPE  C31218995   6.603   3.885   8.551  0.7867  0.0242 -0.3806
  168SOPE  H12X18996   6.581   3.958   8.470 -1.2154 -2.4982 -2.2803
  168SOPE  H12Y18997   6.713   3.883   8.563  0.9275 -0.9705 -1.6388
  168SOPE  C31318998   6.548   3.913   8.696 -0.9122 -0.0941 -0.2010
  168SOPE  H13X18999   6.606   3.994   8.745 -0.8725 -1.0940  1.4828
  168SOPE  H13Y19000   6.578   3.823   8.754 -1.3832  0.7279  1.3825
  168SOPE  C31419001   6.396   3.928   8.710 -0.5072 -0.0082 -0.1046
  168SOPE  H14X19002   6.341   3.844   8.664 -3.0864  2.2191 -1.3621
  168SOPE  H14Y19003   6.371   4.018   8.649 -0.6304  0.4702  0.6335
  168SOPE  C31519004   6.345   3.936   8.849  0.4531  1.3719  0.8425
  168SOPE  H15X19005   6.415   4.002   8.906  0.9505  1.6328 -0.0547
  168SOPE  H15Y19006   6.338   3.840   8.904 -0.9489  0.7538 -0.3416
  168SOPE  C31619007   6.203   3.986   8.863  0.1114 -0.0616  0.5002
  168SOPE  H16X19008   6.191   4.087   8.818 -2.7169 -0.0748  1.0406
  168SOPE  H16Y19009   6.172   4.005   8.968 -0.4769  3.7621 -0.2161
  168SOPE  C31719010   6.110   3.895   8.779  0.2768 -0.2146 -0.4489
  168SOPE  H17X19011   6.122   3.792   8.819  1.5910  0.2330  0.3595
  168SOPE  H17Y19012   6.138   3.900   8.672  2.7604  1.9118  0.1877
  168SOPE  C31819013   5.973   3.956   8.802  0.0537 -0.5481 -0.5153
  168SOPE  H18X19014   5.977   4.062   8.769  2.3116 -1.0976 -2.2333
  168SOPE  H18Y19015   5.934   3.946   8.906 -1.8463 -1.2923 -1.2574
  168SOPE  H18Z19016   5.900   3.905   8.735 -0.2321 -0.4704 -0.2668
  169SOPE     N19017   3.529   4.436   6.744 -0.0049  0.3698 -0.6204
  169SOPE   HN119018   3.577   4.354   6.786 -1.1326 -0.4922 -0.9389
  169SOPE   HN219019   3.506   4.415   6.645  1.3312 -1.8278 -0.5402
  169SOPE   HN319020   3.602   4.508   6.736  0.4649 -0.2242 -2.1143
  169SOPE   C1219021   3.425   4.490   6.843 -0.4985 -0.7165  0.3861
  169SOPE  H12A19022   3.465   4.469   6.945 -1.6357 -0.2779  0.9340
  169SOPE  H12B19023   3.329   4.437   6.825 -0.6324 -0.0740 -0.8268
  169SOPE   C1119024   3.417   4.644   6.822 -0.0983  0.1933 -0.0790
  169SOPE  H11A19025   3.520   4.684   6.836 -0.1906  0.8328 -1.0741
  169SOPE  H11B19026   3.358   4.694   6.901  1.1147 -0.8129  1.5333
  169SOPE     P19027   3.219   4.702   6.653 -0.0957  0.2357  0.2939
  169SOPE   O1319028   3.150   4.601   6.739  0.6894 -0.0717  0.1925
  169SOPE   O1419029   3.204   4.679   6.506 -0.0786 -0.5463 -0.0599
  169SOPE   O1219030   3.375   4.685   6.690 -1.3864 -0.2382  0.0685
  169SOPE   O1119031   3.181   4.849   6.697  0.0166  0.5857  0.3254
  169SOPE    C119032   3.050   4.889   6.710  0.2469  0.3659 -0.2195
  169SOPE    HA19033   2.981   4.802   6.706 -1.0530  1.3562  0.1672
  169SOPE    HB19034   3.027   4.952   6.621 -2.0705  1.2346  0.9221
  169SOPE    C219035   3.022   4.990   6.825 -0.2801 -0.5076 -0.1736
  169SOPE    HS19036   3.074   5.086   6.804  1.4858 -1.1643  0.9534
  169SOPE   O2119037   3.057   4.941   6.952 -0.0259  0.1427 -0.0506
  169SOPE   C2119038   3.190   4.945   6.974  0.1464 -0.4107  0.0648
  169SOPE   O2219039   3.271   5.007   6.904  0.3131  0.2601  0.4890
  169SOPE   C2219040   3.220   4.871   7.106  0.2054 -0.2428  1.0670
  169SOPE   H2R19041   3.197   4.765   7.082 -1.0915 -0.1378  1.7594
  169SOPE   H2S19042   3.156   4.914   7.185 -1.2409 -1.8073  0.7961
  169SOPE    C319043   2.869   5.028   6.810 -0.4209  0.7990 -0.1131
  169SOPE    HX19044   2.814   4.936   6.837 -0.2847  0.2729 -1.5366
  169SOPE    HY19045   2.855   5.060   6.704  0.1256  0.7088 -0.2159
  169SOPE   O3119046   2.846   5.139   6.896  0.2012  0.4359 -0.1580
  169SOPE   C3119047   2.720   5.154   6.933  0.0341  0.2669  0.1830
  169SOPE   O3219048   2.618   5.096   6.892  0.2251  0.2442  0.4989
  169SOPE   C3219049   2.718   5.268   7.038 -0.2615 -0.1517 -0.2978
  169SOPE   H2X19050   2.780   5.347   6.991  0.0731 -0.9593 -1.2368
  169SOPE   H2Y19051   2.751   5.235   7.139 -1.4897  1.1946  0.5851
  169SOPE   C2319052   3.365   4.885   7.153 -0.4709 -0.7701  0.3011
  169SOPE   H3R19053   3.400   4.990   7.161 -1.3616 -0.3816 -0.6936
  169SOPE   H3S19054   3.419   4.839   7.068 -0.5292  2.7811 -1.8506
  169SOPE   C2419055   3.391   4.819   7.298  0.2589  0.0634  0.2417
  169SOPE   H4R19056   3.343   4.719   7.291 -1.2981  0.8771 -1.1481
  169SOPE   H4S19057   3.501   4.812   7.312  0.3253  1.0020  0.2779
  169SOPE   C2519058   3.321   4.893   7.410 -0.4749 -1.1559 -0.2387
  169SOPE   H5R19059   3.343   5.001   7.402  0.4187 -1.3743 -0.8678
  169SOPE   H5S19060   3.212   4.872   7.405 -0.6424 -0.1207 -1.1077
  169SOPE   C2619061   3.372   4.848   7.548 -0.0000 -0.6286  0.3078
  169SOPE   H6R19062   3.360   4.738   7.544  1.5705 -0.8374  0.4853
  169SOPE   H6S19063   3.480   4.877   7.547 -0.0818 -0.2272  1.6064
  169SOPE   C2719064   3.286   4.905   7.664 -0.5376  0.5852 -0.3060
  169SOPE   H7R19065   3.325   5.009   7.670  3.0678 -0.6718  0.7815
  169SOPE   H7S19066   3.179   4.898   7.637 -0.9795  2.7175  0.6516
  169SOPE   C2819067   3.301   4.839   7.800  0.0611 -0.9376  0.2749
  169SOPE   H8R19068   3.246   4.898   7.876  0.9299 -1.1676  1.1057
  169SOPE   H8S19069   3.262   4.735   7.796  2.0455 -1.7811  1.3739
  169SOPE   C2919070   3.451   4.834   7.832 -0.1460  0.1174 -0.9555
  169SOPE   H9119071   3.521   4.782   7.764 -0.9350 -0.4553 -1.3471
  169SOPE  C21019072   3.506   4.906   7.935  0.7662  0.0294  0.5109
  169SOPE  H10119073   3.611   4.882   7.959 -0.2356 -1.5386  4.0860
  169SOPE  C21119074   3.437   4.988   8.039  0.1935 -0.4286 -0.0541
  169SOPE  H11R19075   3.490   4.964   8.134 -0.4236 -1.2177  0.1009
  169SOPE  H11S19076   3.334   4.950   8.056 -0.3496  1.0968  0.2040
  169SOPE  C21219077   3.447   5.138   8.026 -1.0269 -0.3635 -0.5179
  169SOPE  H12R19078   3.553   5.172   8.026 -0.0884 -3.0024  1.4060
  169SOPE  H12S19079   3.398   5.185   8.114 -0.0253  0.5118 -0.4063
  169SOPE  C21319080   3.366   5.190   7.911 -0.0470 -0.3242 -0.8111
  169SOPE  H13R19081   3.262   5.153   7.908 -0.4203  0.5623  0.1834
  169SOPE  H13S19082   3.437   5.155   7.834 -0.3507 -1.5307 -0.5601
  169SOPE  C21419083   3.355   5.345   7.915 -1.3736 -0.0405 -0.2252
  169SOPE  H14R19084   3.460   5.382   7.907 -1.1807 -0.7472 -1.1047
  169SOPE  H14S19085   3.313   5.372   8.014 -3.3092 -0.7676 -0.8110
  169SOPE  C21519086   3.275   5.405   7.797 -0.8217 -0.1908  0.3918
  169SOPE  H15R19087   3.300   5.513   7.793  1.7718 -0.7620 -0.8145
  169SOPE  H15S19088   3.169   5.398   7.830 -1.0807 -0.9840 -0.5757
  169SOPE  C21619089   3.278   5.334   7.661 -0.3487 -0.3655 -0.3389
  169SOPE  H16R19090   3.207   5.380   7.589  0.4588 -0.9240 -1.5370
  169SOPE  H16S19091   3.257   5.225   7.666 -0.7651 -0.3311 -1.1560
  169SOPE  C21719092   3.426   5.341   7.588  0.1360 -0.0033 -0.0178
  169SOPE  H17R19093   3.492   5.262   7.630 -0.5197  0.2678  1.5859
  169SOPE  H17S19094   3.473   5.438   7.612  1.3821 -0.4730 -0.4624
  169SOPE  C21819095   3.427   5.333   7.435  0.3573  0.0907  0.1122
  169SOPE  H18R19096   3.362   5.416   7.398  2.2364  0.8236 -1.7730
  169SOPE  H18S19097   3.400   5.236   7.388  1.5199  0.3590 -1.1711
  169SOPE  H18T19098   3.527   5.368   7.400 -0.5799 -0.2618 -3.2487
  169SOPE   C3319099   2.574   5.332   7.056 -0.7111  0.0529 -0.2919
  169SOPE   H3X19100   2.529   5.344   6.956 -1.1437  1.3729  0.0463
  169SOPE   H3Y19101   2.578   5.438   7.090 -0.8697  0.5221 -1.6568
  169SOPE   C3419102   2.484   5.245   7.146 -0.0146 -0.1656  0.2836
  169SOPE   H4X19103   2.502   5.142   7.109  0.2548  0.5647 -1.7838
  169SOPE   H4Y19104   2.378   5.270   7.124  0.6244  2.6370  0.0104
  169SOPE   C3519105   2.503   5.266   7.294  0.5999  0.1757  0.0973
  169SOPE   H5X19106   2.514   5.375   7.308 -0.1106  0.3895 -0.8807
  169SOPE   H5Y19107   2.596   5.215   7.327  1.3266  0.6425 -1.1701
  169SOPE   C3619108   2.390   5.218   7.381  0.4861 -0.1269  0.3835
  169SOPE   H6X19109   2.376   5.108   7.369  1.2815 -0.2513  0.5725
  169SOPE   H6Y19110   2.292   5.254   7.343 -1.0872 -0.9346  3.3516
  169SOPE   C3719111   2.399   5.252   7.529 -0.1820 -0.2966 -0.4763
  169SOPE   H7X19112   2.305   5.304   7.558 -0.2945 -1.3704  1.1951
  169SOPE   H7Y19113   2.473   5.331   7.552 -1.6262  0.8996  0.2167
  169SOPE   C3819114   2.420   5.125   7.615 -0.0133  0.2617 -0.6863
  169SOPE   H8X19115   2.347   5.047   7.587 -2.7977  3.3707 -2.7486
  169SOPE   H8Y19116   2.523   5.090   7.589 -0.6094  0.0346 -2.8958
  169SOPE   C3919117   2.426   5.135   7.769  0.1056 -0.0859  0.5586
  169SOPE   H9X19118   2.464   5.237   7.790 -1.5418  0.7252 -0.1693
  169SOPE   H9Y19119   2.497   5.055   7.799 -0.0372 -1.1965 -1.7995
  169SOPE  C31019120   2.288   5.118   7.834 -0.3856 -0.2171  0.3200
  169SOPE  H10X19121   2.218   5.049   7.781 -2.3641  0.8613  1.4121
  169SOPE  H10Y19122   2.237   5.217   7.833  0.2291  0.0995 -0.8964
  169SOPE  C31119123   2.301   5.080   7.980  0.1946  0.3640 -0.6013
  169SOPE  H11X19124   2.371   5.147   8.034  2.3023 -0.8127 -1.7372
  169SOPE  H11Y19125   2.346   4.979   7.984  1.0381  0.7592  0.1898
  169SOPE  C31219126   2.169   5.066   8.056  0.0670 -1.0547 -0.7169
  169SOPE  H12X19127   2.086   5.020   7.999  0.6761 -0.9664 -1.6990
  169SOPE  H12Y19128   2.146   5.173   8.076 -1.0779 -0.9696 -2.3519
  169SOPE  C31319129   2.184   5.000   8.194 -0.4069 -0.3674 -0.0567
  169SOPE  H13X19130   2.281   5.037   8.235 -1.0527 -1.3850  2.5312
  169SOPE  H13Y19131   2.189   4.892   8.169 -1.0207 -0.2430 -0.7660
  169SOPE  C31419132   2.073   5.022   8.279  0.2455 -0.2607 -0.6993
  169SOPE  H14X19133   1.974   4.989   8.240  1.0970 -3.6750 -0.3481
  169SOPE  H14Y19134   2.067   5.130   8.302 -3.0757 -0.4937  0.0385
  169SOPE  C31519135   2.084   4.972   8.428 -0.3828 -0.5074 -0.0377
  169SOPE  H15X19136   2.185   5.008   8.459 -0.3485 -1.2007  0.6766
  169SOPE  H15Y19137   2.086   4.861   8.430  2.4831 -0.5349 -0.3102
  169SOPE  C31619138   1.978   5.021   8.526  0.3832  0.1869 -0.3346
  169SOPE  H16X19139   1.887   4.967   8.494 -0.2720 -0.1151  1.8594
  169SOPE  H16Y19140   1.951   5.128   8.512 -0.2871  0.1064  0.2952
  169SOPE  C31719141   2.017   5.003   8.673  0.2545  0.5096 -0.1408
  169SOPE  H17X19142   2.109   5.059   8.699 -0.0906  0.9528  0.1242
  169SOPE  H17Y19143   2.032   4.896   8.701 -1.2583  0.0826 -0.8942
  169SOPE  C31819144   1.906   5.057   8.765 -0.4865 -0.1983  0.6365
  169SOPE  H18X19145   1.933   5.014   8.864  3.0662 -0.9555 -0.5001
  169SOPE  H18Y19146   1.807   5.014   8.740 -0.1998  0.1723 -1.2507
  169SOPE  H18Z19147   1.911   5.167   8.750 -0.2028 -0.1648  0.9619
  170SOPE     N19148   5.379   4.113   6.519 -0.2943  0.6739 -0.3282
  170SOPE   HN119149   5.437   4.186   6.472 -0.2654  1.3782  0.7682
  170SOPE   HN219150   5.312   4.158   6.585 -1.8466 -1.5824 -0.2535
  170SOPE   HN319151   5.441   4.048   6.571 -2.7610 -1.4908  0.1240
  170SOPE   C1219152   5.303   4.038   6.415  0.1612 -0.4654  0.4223
  170SOPE  H12A19153   5.357   4.030   6.318 -1.7837  0.7259 -0.8353
  170SOPE  H12B19154   5.207   4.093   6.400  0.7774  1.0670  1.8444
  170SOPE   C1119155   5.266   3.894   6.452  0.0285  0.7280  0.1678
  170SOPE  H11A19156   5.362   3.841   6.438 -0.9466 -0.8782 -0.6340
  170SOPE  H11B19157   5.190   3.864   6.377  2.0581 -1.5411 -1.1084
  170SOPE     P19158   5.155   3.761   6.649  0.3785  0.3267 -0.0011
  170SOPE   O1319159   5.213   3.636   6.584  0.2813 -0.2235 -0.0687
  170SOPE   O1419160   5.007   3.773   6.641 -0.0185  0.3493 -0.7359
  170SOPE   O1219161   5.224   3.890   6.587  0.6502 -0.2886  0.3285
  170SOPE   O1119162   5.201   3.786   6.800  0.3599  0.9522  0.3746
  170SOPE    C119163   5.156   3.894   6.874 -0.3599  0.0339  0.3532
  170SOPE    HA19164   5.054   3.928   6.844 -0.6072  0.3529  1.5393
  170SOPE    HB19165   5.230   3.975   6.859  0.7255 -0.5668  2.1982
  170SOPE    C219166   5.133   3.860   7.022 -0.5419  0.6151 -0.4328
  170SOPE    HS19167   5.111   3.958   7.071 -0.2226  1.2580 -1.5491
  170SOPE   O2119168   5.259   3.788   7.067  0.0201  0.3236 -0.2893
  170SOPE   C2119169   5.273   3.800   7.200 -0.3218  0.4769  0.1035
  170SOPE   O2219170   5.206   3.878   7.266  0.4095 -0.1430 -0.7413
  170SOPE   C2219171   5.379   3.701   7.248 -0.1183  0.3794  0.0959
  170SOPE   H2R19172   5.471   3.719   7.188 -0.9936  1.3162 -1.0159
  170SOPE   H2S19173   5.350   3.596   7.228  0.2629 -0.2782  2.6340
  170SOPE    C319174   5.000   3.775   7.043 -0.6607  0.1057 -0.5786
  170SOPE    HX19175   5.033   3.674   7.011  1.2408  0.5612 -0.1747
  170SOPE    HY19176   4.913   3.803   6.979 -0.2143 -0.6423 -1.5486
  170SOPE   O3119177   4.962   3.767   7.185  0.2231  0.6214 -0.2048
  170SOPE   C3119178   4.894   3.881   7.220 -0.1161 -0.2650  0.6332
  170SOPE   O3219179   4.859   3.969   7.147  0.1395 -0.3758  0.3069
  170SOPE   C3219180   4.853   3.868   7.359 -0.1803  0.2178  0.7213
  170SOPE   H2X19181   4.822   3.763   7.375 -3.2739  1.2459  2.3261
  170SOPE   H2Y19182   4.755   3.919   7.369  0.3117  1.2674  0.3601
  170SOPE   C2319183   5.417   3.726   7.398 -0.5691 -0.3599  1.2355
  170SOPE   H3R19184   5.422   3.833   7.430  2.2336 -0.0554  0.0269
  170SOPE   H3S19185   5.521   3.695   7.422  1.0746  2.2886 -1.7257
  170SOPE   C2419186   5.315   3.656   7.491  1.0599  0.4039 -0.6104
  170SOPE   H4R19187   5.222   3.715   7.481 -1.1566 -2.5338  0.9498
  170SOPE   H4S19188   5.298   3.548   7.467  0.9965  0.3814 -0.4634
  170SOPE   C2519189   5.371   3.656   7.631 -0.2085 -0.3700  0.4729
  170SOPE   H5R19190   5.468   3.602   7.627  0.0452  0.1580 -1.8448
  170SOPE   H5S19191   5.385   3.762   7.659 -0.9235  0.5250 -2.3223
  170SOPE   C2619192   5.275   3.588   7.733 -0.1268  0.0509 -0.3396
  170SOPE   H6R19193   5.259   3.482   7.704  2.2605 -1.2263  2.4594
  170SOPE   H6S19194   5.322   3.583   7.833  0.8230 -0.8856 -0.8168
  170SOPE   C2719195   5.144   3.669   7.738 -0.5331  0.1117  0.2317
  170SOPE   H7R19196   5.162   3.779   7.737  0.5119  0.0092  2.2910
  170SOPE   H7S19197   5.087   3.636   7.649  2.6877 -1.5842 -1.3843
  170SOPE   C2819198   5.063   3.634   7.861 -0.8309 -0.9244 -0.5758
  170SOPE   H8R19199   4.957   3.667   7.854 -1.4334 -2.4837  0.5361
  170SOPE   H8S19200   5.053   3.523   7.862 -1.8580 -0.8621  1.6469
  170SOPE   C2919201   5.137   3.660   7.995  0.7208  0.0265 -0.2260
  170SOPE   H9119202   5.247   3.665   8.001  0.6985 -0.1295  0.4167
  170SOPE  C21019203   5.076   3.678   8.110 -0.2681 -0.7788  0.3982
  170SOPE  H10119204   5.127   3.695   8.206 -2.8885  1.1631  1.5746
  170SOPE  C21119205   4.932   3.678   8.145 -0.0101 -0.1217  0.0237
  170SOPE  H11R19206   4.871   3.691   8.053 -0.1978  2.1527  0.4347
  170SOPE  H11S19207   4.903   3.758   8.216 -3.0487 -0.5158 -0.6561
  170SOPE  C21219208   4.875   3.546   8.198  0.0539  0.0674  0.1314
  170SOPE  H12R19209   4.892   3.464   8.126 -1.2781 -0.5243  0.4723
  170SOPE  H12S19210   4.767   3.562   8.217  0.2308  0.5081  0.8187
  170SOPE  C21319211   4.916   3.507   8.340  0.0481  0.8716  0.3180
  170SOPE  H13R19212   4.902   3.595   8.406  0.3999 -0.3203  2.0351
  170SOPE  H13S19213   5.016   3.461   8.339 -0.0654  0.5995  1.0393
  170SOPE  C21419214   4.811   3.412   8.406  0.6000  0.5614  0.2380
  170SOPE  H14R19215   4.792   3.334   8.330 -0.2901 -1.7668  2.7213
  170SOPE  H14S19216   4.712   3.460   8.422 -0.1320 -1.0027  0.5725
  170SOPE  C21519217   4.856   3.337   8.534  0.4819 -0.8207  0.3447
  170SOPE  H15R19218   4.948   3.277   8.522  1.9127  1.2679  0.4139
  170SOPE  H15S19219   4.777   3.262   8.556  1.8513 -2.5822 -0.5073
  170SOPE  C21619220   4.868   3.431   8.658 -0.3973  0.2117  0.0098
  170SOPE  H16R19221   4.780   3.496   8.639 -1.7344 -0.3898  3.3127
  170SOPE  H16S19222   4.958   3.495   8.662 -1.1861  1.3017  1.5598
  170SOPE  C21719223   4.855   3.362   8.792 -0.8568 -0.1389  0.2886
  170SOPE  H17R19224   4.957   3.324   8.812 -0.6796  0.1382 -0.0560
  170SOPE  H17S19225   4.781   3.279   8.791  0.5662 -1.4358 -0.2512
  170SOPE  C21819226   4.816   3.461   8.898 -0.1059  0.5272  0.1863
  170SOPE  H18R19227   4.869   3.558   8.910  0.6988 -0.1465  2.8932
  170SOPE  H18S19228   4.840   3.409   8.994 -1.6905 -5.4481 -2.2201
  170SOPE  H18T19229   4.707   3.483   8.897 -0.3246 -0.4207  1.3921
  170SOPE   C3319230   4.951   3.907   7.477 -0.0664  0.2135  0.2058
  170SOPE   H3X19231   4.997   4.008   7.468  3.0831 -1.0024  1.3503
  170SOPE   H3Y19232   5.038   3.838   7.473  0.9012  1.4433 -0.8522
  170SOPE   C3419233   4.886   3.892   7.609 -0.1063  0.1333  0.7703
  170SOPE   H4X19234   4.959   3.891   7.692  1.2217  0.4881 -0.3516
  170SOPE   H4Y19235   4.840   3.791   7.616  0.8903 -0.4692 -0.7379
  170SOPE   C3519236   4.773   3.996   7.657 -0.3283  0.0926 -0.0479
  170SOPE   H5X19237   4.737   3.937   7.744  2.3780  0.4092  1.3881
  170SOPE   H5Y19238   4.690   4.009   7.584 -1.6769 -0.9972  1.2282
  170SOPE   C3619239   4.830   4.130   7.697 -0.2031 -0.0350 -0.5162
  170SOPE   H6X19240   4.853   4.178   7.599 -0.3393 -0.5663 -0.8150
  170SOPE   H6Y19241   4.917   4.115   7.766 -0.5119 -0.0878 -0.1366
  170SOPE   C3719242   4.717   4.207   7.780 -0.0598 -0.3753 -0.6711
  170SOPE   H7X19243   4.637   4.227   7.706 -1.5570 -0.4424  0.8732
  170SOPE   H7Y19244   4.761   4.307   7.801  0.5284 -0.7561 -0.0490
  170SOPE   C3819245   4.661   4.131   7.902 -0.0160 -0.8992  0.2481
  170SOPE   H8X19246   4.600   4.051   7.856 -0.3011 -0.0739 -0.8312
  170SOPE   H8Y19247   4.603   4.195   7.972  0.8660 -0.7857  0.8916
  170SOPE   C3919248   4.760   4.082   8.007 -0.8014 -0.0228  0.3135
  170SOPE   H9X19249   4.791   4.170   8.068 -1.3781  0.4005  0.0101
  170SOPE   H9Y19250   4.845   4.039   7.950  0.7048 -2.2055  3.8788
  170SOPE  C31019251   4.710   3.967   8.088  0.0332  0.0973 -0.7772
  170SOPE  H10X19252   4.788   3.908   8.140 -0.6197 -0.7843 -0.7902
  170SOPE  H10Y19253   4.658   3.895   8.022 -1.2065 -0.0042  0.2667
  170SOPE  C31119254   4.598   4.006   8.188 -0.6095  0.3395 -0.2935
  170SOPE  H11X19255   4.523   4.062   8.129  1.8263  1.3880 -2.5834
  170SOPE  H11Y19256   4.644   4.070   8.267 -1.3288  0.6149 -0.0862
  170SOPE  C31219257   4.526   3.885   8.247  0.4739  1.0629 -0.0645
  170SOPE  H12X19258   4.499   3.813   8.167  1.2371  2.4744 -1.6629
  170SOPE  H12Y19259   4.433   3.930   8.287 -0.3981  0.7529 -1.6500
  170SOPE  C31319260   4.607   3.812   8.350  0.1216  0.0534  0.0850
  170SOPE  H13X19261   4.664   3.894   8.399 -0.5778  1.5734 -1.4938
  170SOPE  H13Y19262   4.688   3.763   8.292  0.6620  0.8012  0.1915
  170SOPE  C31419263   4.542   3.708   8.434  0.0641 -0.3015  0.4590
  170SOPE  H14X19264   4.618   3.640   8.479  0.3055  0.1305  0.7090
  170SOPE  H14Y19265   4.464   3.652   8.378 -1.0133 -0.2921  1.8761
  170SOPE  C31519266   4.464   3.782   8.549  0.4462  0.0132  0.5742
  170SOPE  H15X19267   4.389   3.844   8.494  1.6271 -0.0186 -1.1717
  170SOPE  H15Y19268   4.518   3.846   8.622 -2.8900  1.4031  2.0677
  170SOPE  C31619269   4.386   3.677   8.633  0.0145  0.4190  0.1728
  170SOPE  H16X19270   4.459   3.620   8.693 -0.9849 -1.3116 -0.1951
  170SOPE  H16Y19271   4.345   3.620   8.547  1.3804  1.7395 -1.4231
  170SOPE  C31719272   4.285   3.738   8.728  0.2527  0.2625 -0.5909
  170SOPE  H17X19273   4.192   3.779   8.682 -1.0976 -0.6322  1.2160
  170SOPE  H17Y19274   4.337   3.818   8.785 -2.7150  1.4975  0.5836
  170SOPE  C31819275   4.222   3.648   8.835 -0.1936  0.2622 -0.4333
  170SOPE  H18X19276   4.165   3.570   8.779  0.4710 -0.3594 -0.2543
  170SOPE  H18Y19277   4.141   3.696   8.894 -0.0624 -0.6293  0.4901
  170SOPE  H18Z19278   4.302   3.612   8.902  0.6808  3.2859  0.3271
  171SOPE     N19279   1.255   5.527   6.550 -0.4276  0.6193  0.2426
  171SOPE   HN119280   1.206   5.443   6.513  3.5218 -1.0350 -1.9191
  171SOPE   HN219281   1.197   5.570   6.624 -0.4388 -0.8055  1.0967
  171SOPE   HN319282   1.267   5.596   6.473  0.8180 -0.6546 -0.7503
  171SOPE   C1219283   1.387   5.481   6.607 -0.3905  0.0678 -0.0909
  171SOPE  H12A19284   1.365   5.375   6.633 -0.2441  0.3966  1.4110
  171SOPE  H12B19285   1.401   5.538   6.701  2.2390 -0.5006 -0.0498
  171SOPE   C1119286   1.501   5.499   6.505  0.1141 -0.3383  0.4291
  171SOPE  H11A19287   1.494   5.599   6.456 -3.1988 -0.8724 -0.4297
  171SOPE  H11B19288   1.490   5.423   6.424  4.3175 -0.1481 -0.5680
  171SOPE     P19289   1.758   5.526   6.517 -0.1224 -0.3985 -0.2280
  171SOPE   O1319290   1.764   5.524   6.370 -0.8579 -0.1974  0.3863
  171SOPE   O1419291   1.875   5.465   6.591 -0.0143  0.1004  0.5551
  171SOPE   O1219292   1.625   5.477   6.569  0.3946 -0.5467  0.3849
  171SOPE   O1119293   1.766   5.684   6.544 -0.0741 -0.5997  0.2876
  171SOPE    C119294   1.757   5.728   6.677  0.3304  0.6014  1.0934
  171SOPE    HA19295   1.681   5.671   6.735  0.5968 -2.1804 -1.0891
  171SOPE    HB19296   1.724   5.834   6.677  0.5800  0.7150  2.9501
  171SOPE    C219297   1.883   5.720   6.763 -0.5475  0.0011 -0.3369
  171SOPE    HS19298   1.921   5.616   6.773  1.0039  0.7490  2.5148
  171SOPE   O2119299   1.851   5.772   6.893 -0.3329  0.0592  0.0058
  171SOPE   C2119300   1.806   5.688   6.976 -0.2294  0.0239 -0.6201
  171SOPE   O2219301   1.785   5.569   6.960 -0.8735  0.0067 -0.2616
  171SOPE   C2219302   1.770   5.753   7.108 -0.3718  0.0523 -0.8471
  171SOPE   H2R19303   1.661   5.746   7.130 -0.2715  0.3180 -0.2376
  171SOPE   H2S19304   1.804   5.858   7.120  1.1720 -0.4552 -0.6531
  171SOPE    C319305   1.992   5.802   6.698 -0.6152  0.0677  0.4774
  171SOPE    HX19306   1.964   5.910   6.695  1.2669  0.7005  2.8862
  171SOPE    HY19307   2.006   5.771   6.592  1.7319  1.5068  0.3112
  171SOPE   O3119308   2.118   5.775   6.758 -0.3331 -0.0544 -0.2859
  171SOPE   C3119309   2.180   5.871   6.823  0.0274 -0.5609 -0.8419
  171SOPE   O3219310   2.152   5.989   6.809 -1.0777  0.1309 -0.0799
  171SOPE   C3219311   2.302   5.823   6.905  0.4277  0.9988 -0.8561
  171SOPE   H2X19312   2.394   5.872   6.866  0.8610 -1.3108 -3.0183
  171SOPE   H2Y19313   2.319   5.714   6.891  0.9632  0.8389  0.8245
  171SOPE   C2319314   1.822   5.693   7.242 -0.0984  0.2683 -0.7537
  171SOPE   H3R19315   1.931   5.708   7.252 -0.2414  1.1733 -0.4777
  171SOPE   H3S19316   1.796   5.585   7.234 -1.2077  0.3984  0.6190
  171SOPE   C2419317   1.758   5.765   7.362 -0.4512 -0.0612  0.0625
  171SOPE   H4R19318   1.782   5.871   7.338  3.0615 -1.0783 -1.7940
  171SOPE   H4S19319   1.652   5.738   7.375 -0.3681 -0.3359  0.1693
  171SOPE   C2519320   1.830   5.727   7.493 -0.1325 -0.1696 -0.0498
  171SOPE   H5R19321   1.828   5.616   7.501 -1.6109 -0.1233  0.5175
  171SOPE   H5S19322   1.937   5.758   7.491 -0.5485  1.3855  0.1795
  171SOPE   C2619323   1.776   5.778   7.622  0.2478  0.9719  0.1929
  171SOPE   H6R19324   1.752   5.886   7.614 -0.3965  0.8059 -0.2229
  171SOPE   H6S19325   1.678   5.726   7.633  0.1142  1.1464 -0.1360
  171SOPE   C2719326   1.869   5.742   7.748 -0.3382 -0.8787 -0.2664
  171SOPE   H7R19327   1.867   5.631   7.757  1.6232 -1.2490 -3.0495
  171SOPE   H7S19328   1.975   5.764   7.723  0.4144 -2.1790  1.5992
  171SOPE   C2819329   1.828   5.820   7.872 -0.0041 -0.1139 -0.0238
  171SOPE   H8R19330   1.892   5.783   7.955 -1.5702  0.4071  1.4976
  171SOPE   H8S19331   1.866   5.923   7.854  2.6306 -0.6810  1.7127
  171SOPE   C2919332   1.675   5.824   7.902 -0.2497 -0.0636  0.2043
  171SOPE   H9119333   1.621   5.855   7.811  1.8408  0.1215 -1.0460
  171SOPE  C21019334   1.603   5.791   8.010  0.0034  0.3921 -0.1456
  171SOPE  H10119335   1.493   5.788   8.008  0.0198  0.1248 -1.6485
  171SOPE  C21119336   1.661   5.740   8.139 -0.4787 -0.9122 -0.1942
  171SOPE  H11R19337   1.772   5.746   8.147 -0.5759 -0.6800  1.3691
  171SOPE  H11S19338   1.629   5.633   8.140 -1.1630 -0.7605  2.3122
  171SOPE  C21219339   1.600   5.814   8.259 -0.4026  0.2230  0.3621
  171SOPE  H12R19340   1.490   5.797   8.264 -0.2092 -1.3264 -0.2662
  171SOPE  H12S19341   1.626   5.921   8.247 -1.1568  0.4328  0.5224
  171SOPE  C21319342   1.654   5.766   8.395  0.2164 -0.1925  0.0999
  171SOPE  H13R19343   1.764   5.778   8.395  0.4051 -1.6061  1.5888
  171SOPE  H13S19344   1.637   5.656   8.406 -0.4246 -0.1322 -0.2133
  171SOPE  C21419345   1.599   5.839   8.525 -0.4241  0.0334  0.6645
  171SOPE  H14R19346   1.570   5.946   8.513  0.7933  0.7056  2.9752
  171SOPE  H14S19347   1.683   5.842   8.597 -1.6221 -2.5702  2.3077
  171SOPE  C21519348   1.491   5.764   8.592  0.0981 -0.0702  0.0072
  171SOPE  H15R19349   1.525   5.678   8.653  0.6014  1.2513  1.6943
  171SOPE  H15S19350   1.414   5.741   8.516  1.1500 -0.9595 -0.8092
  171SOPE  C21619351   1.415   5.861   8.695  0.4593  0.7631  0.0017
  171SOPE  H16R19352   1.305   5.841   8.689  0.5184  0.8041 -2.5505
  171SOPE  H16S19353   1.425   5.966   8.662  0.2703  0.9034  0.3876
  171SOPE  C21719354   1.471   5.849   8.838  0.3725 -0.6529 -0.4259
  171SOPE  H17R19355   1.439   5.937   8.897  0.1870 -0.8325 -0.2582
  171SOPE  H17S19356   1.581   5.864   8.835  0.1331  1.3836 -1.0256
  171SOPE  C21819357   1.428   5.719   8.910  0.2216  0.9303  0.9388
  171SOPE  H18R19358   1.483   5.693   9.003  1.6645 -1.1694 -0.4236
  171SOPE  H18S19359   1.452   5.634   8.843  0.4594  2.5893 -1.1971
  171SOPE  H18T19360   1.318   5.714   8.926  0.1522 -0.8154  0.1353
  171SOPE   C3319361   2.285   5.846   7.054  0.1315  0.2291 -0.1919
  171SOPE   H3X19362   2.282   5.956   7.072  0.0401  0.3333 -0.8380
  171SOPE   H3Y19363   2.379   5.822   7.107 -0.2660 -0.4571  0.2223
  171SOPE   C3419364   2.154   5.785   7.116 -0.3334  0.7635  0.2545
  171SOPE   H4X19365   2.074   5.815   7.045  0.4050  1.1906 -0.4238
  171SOPE   H4Y19366   2.133   5.826   7.217 -1.7700  1.4312 -0.2909
  171SOPE   C3519367   2.178   5.633   7.142 -0.7503  0.5979 -0.3641
  171SOPE   H5X19368   2.197   5.590   7.041  0.4183 -1.2089  0.5737
  171SOPE   H5Y19369   2.088   5.575   7.169  0.5459 -1.6039 -0.5072
  171SOPE   C3619370   2.280   5.583   7.248  0.4587 -0.0853 -0.2959
  171SOPE   H6X19371   2.385   5.597   7.216  0.3711 -0.8263 -0.9527
  171SOPE   H6Y19372   2.263   5.473   7.258  1.0610 -0.0118  2.1028
  171SOPE   C3719373   2.246   5.647   7.384 -0.7483  0.4860 -0.1987
  171SOPE   H7X19374   2.138   5.666   7.398 -1.6333 -2.3082 -2.3539
  171SOPE   H7Y19375   2.297   5.746   7.380 -1.0757  0.6226 -3.2211
  171SOPE   C3819376   2.291   5.562   7.501 -0.3498  0.3963 -0.3878
  171SOPE   H8X19377   2.399   5.533   7.497 -0.0773  0.4267  3.2690
  171SOPE   H8Y19378   2.228   5.471   7.488 -0.3269  0.0943  1.3462
  171SOPE   C3919379   2.266   5.623   7.638  0.6318  0.3197 -0.1315
  171SOPE   H9X19380   2.169   5.676   7.648 -0.0910 -1.3026  2.6867
  171SOPE   H9Y19381   2.346   5.697   7.657  1.0157 -0.5246  1.9170
  171SOPE  C31019382   2.272   5.524   7.752 -0.4309  0.0475 -0.7860
  171SOPE  H10X19383   2.379   5.507   7.774 -0.2412  0.7253 -1.1393
  171SOPE  H10Y19384   2.221   5.427   7.733  0.4973 -0.3190 -1.4928
  171SOPE  C31119385   2.208   5.594   7.875 -0.0133  0.3035  0.6072
  171SOPE  H11X19386   2.097   5.595   7.861 -0.2005 -0.8045  1.8229
  171SOPE  H11Y19387   2.241   5.700   7.879 -0.9228  0.6767 -0.8859
  171SOPE  C31219388   2.241   5.528   8.016 -0.9714 -0.0169  0.9622
  171SOPE  H12X19389   2.352   5.537   8.024 -0.8412 -0.3695 -0.1587
  171SOPE  H12Y19390   2.214   5.420   8.019  0.0421 -0.4371 -1.7500
  171SOPE  C31319391   2.161   5.604   8.131 -0.1377 -0.4568  0.3516
  171SOPE  H13X19392   2.055   5.576   8.113  0.0295  0.6442 -3.3776
  171SOPE  H13Y19393   2.168   5.715   8.126  0.4112 -0.4880  0.4227
  171SOPE  C31419394   2.212   5.556   8.260 -0.0361 -0.2512 -0.2192
  171SOPE  H14X19395   2.322   5.574   8.262 -0.0355 -0.2314  1.8427
  171SOPE  H14Y19396   2.211   5.445   8.268  0.4482 -0.1804  1.3470
  171SOPE  C31519397   2.138   5.623   8.378 -0.0231  0.4834 -0.6538
  171SOPE  H15X19398   2.028   5.620   8.360 -0.4874  0.3029  1.7999
  171SOPE  H15Y19399   2.166   5.730   8.376 -0.5640  0.6143 -1.7589
  171SOPE  C31619400   2.179   5.568   8.512 -0.8048 -0.6331 -0.0053
  171SOPE  H16X19401   2.147   5.641   8.590  1.9793 -0.7299  1.3596
  171SOPE  H16Y19402   2.290   5.578   8.511 -0.8096  0.3160  2.1706
  171SOPE  C31719403   2.135   5.422   8.538  0.6850 -0.5762 -0.5205
  171SOPE  H17X19404   2.180   5.349   8.468  1.6232  0.7964 -1.4028
  171SOPE  H17Y19405   2.025   5.412   8.528  0.7160 -1.4208 -0.1043
  171SOPE  C31819406   2.172   5.368   8.673 -0.1441  0.2219 -0.3806
  171SOPE  H18X19407   2.194   5.260   8.661 -0.1459  0.1208  0.4494
  171SOPE  H18Y19408   2.090   5.379   8.747  1.0458 -3.6130  1.7640
  171SOPE  H18Z19409   2.265   5.410   8.719 -0.3337 -2.5174  2.9081
  172SOPE     N19410   2.674   1.624   6.516 -0.5679 -1.0076  0.2676
  172SOPE   HN119411   2.626   1.715   6.501  2.8439  1.5455  3.2054
  172SOPE   HN219412   2.738   1.604   6.436  1.0523  4.9417 -0.3452
  172SOPE   HN319413   2.599   1.552   6.521 -0.6773 -0.7882  2.2026
  172SOPE   C1219414   2.747   1.629   6.647 -0.0970  0.6139  0.2222
  172SOPE  H12A19415   2.730   1.536   6.705  0.8102  0.6482  0.5714
  172SOPE  H12B19416   2.704   1.710   6.709  0.1750 -0.1689  1.4655
  172SOPE   C1119417   2.892   1.652   6.613  0.3285 -0.2907 -0.6454
  172SOPE  H11A19418   2.947   1.656   6.709  0.1106 -0.9241 -0.4928
  172SOPE  H11B19419   2.892   1.756   6.573  1.7625  0.3814  0.9520
  172SOPE     P19420   3.102   1.521   6.534  0.0672  0.0358 -0.2211
  172SOPE   O1319421   3.171   1.642   6.489  0.1868  0.0717 -0.2469
  172SOPE   O1419422   3.128   1.392   6.464 -0.0079  0.3357  0.2643
  172SOPE   O1219423   2.952   1.552   6.524 -0.0269 -0.2785 -0.0597
  172SOPE   O1119424   3.137   1.503   6.680 -0.2111 -0.4089 -0.7543
  172SOPE    C119425   3.113   1.380   6.743 -0.5468 -0.4319  0.3641
  172SOPE    HA19426   3.186   1.306   6.702  3.2288  2.3438  1.4323
  172SOPE    HB19427   3.010   1.350   6.718 -0.3768  0.4440 -1.5404
  172SOPE    C219428   3.107   1.384   6.902 -0.2300  0.6960  0.2649
  172SOPE    HS19429   3.212   1.392   6.938 -0.4235 -0.9307  1.2820
  172SOPE   O2119430   3.038   1.264   6.949  0.1039 -0.0955  0.5155
  172SOPE   C2119431   3.133   1.162   6.965 -0.3890  0.7050 -0.5258
  172SOPE   O2219432   3.256   1.174   6.963  0.4930  0.3821  0.2708
  172SOPE   C2219433   3.061   1.034   6.984 -0.0695  0.5557 -0.6583
  172SOPE   H2R19434   3.141   0.957   6.979  1.0870  1.6301  0.5145
  172SOPE   H2S19435   2.992   1.012   6.900  0.0531  2.0988 -1.1950
  172SOPE    C319436   3.027   1.513   6.949 -0.5883 -0.1873  0.2653
  172SOPE    HX19437   2.918   1.496   6.933 -0.7371  2.5770 -2.5940
  172SOPE    HY19438   3.048   1.604   6.889 -2.4100 -0.1939 -0.4325
  172SOPE   O3119439   3.050   1.542   7.084  0.0505 -0.3216 -0.7369
  172SOPE   C3119440   2.957   1.601   7.152  0.2288  0.0052  0.0563
  172SOPE   O3219441   2.853   1.646   7.108  0.6265  0.8574 -0.3254
  172SOPE   C3219442   3.000   1.593   7.300  0.2559  0.0617  0.4846
  172SOPE   H2X19443   3.106   1.622   7.315  0.4926 -0.1498 -0.6618
  172SOPE   H2Y19444   2.977   1.493   7.343  1.2939 -0.1036  0.6928
  172SOPE   C2319445   2.968   1.028   7.110 -0.4951  0.2794  0.7857
  172SOPE   H3R19446   2.920   0.928   7.106 -0.5608  0.3253 -2.5008
  172SOPE   H3S19447   2.900   1.116   7.117  0.8221  1.3167  1.0742
  172SOPE   C2419448   3.050   1.039   7.244  0.4929 -0.0617  0.2040
  172SOPE   H4R19449   3.087   0.936   7.264  0.0843  0.0959  1.9321
  172SOPE   H4S19450   3.135   1.109   7.243  1.2567 -0.9760 -0.8237
  172SOPE   C2519451   2.960   1.067   7.364  0.3953 -0.1453  0.1758
  172SOPE   H5R19452   2.905   1.163   7.362  0.3534 -0.1753 -0.4079
  172SOPE   H5S19453   2.883   0.987   7.367  1.2168 -1.0918 -1.8301
  172SOPE   C2619454   3.027   1.064   7.496 -0.1570  0.0367 -0.4308
  172SOPE   H6R19455   3.082   0.970   7.520 -0.7021 -0.2628 -0.3377
  172SOPE   H6S19456   3.107   1.141   7.502  2.8955 -2.9870  1.4041
  172SOPE   C2719457   2.925   1.068   7.601  0.2457  0.5940  0.5931
  172SOPE   H7R19458   2.869   1.163   7.587  0.0862  0.2541 -1.2542
  172SOPE   H7S19459   2.847   0.989   7.590  0.3721  0.6005 -0.3818
  172SOPE   C2819460   2.982   1.051   7.741 -0.4801 -0.2826 -0.0622
  172SOPE   H8R19461   3.037   0.955   7.736 -0.9728 -0.5283 -1.5047
  172SOPE   H8S19462   3.052   1.134   7.765 -2.0103  1.1210 -0.2376
  172SOPE   C2919463   2.877   1.057   7.854 -0.8450  0.3206  0.2346
  172SOPE   H9119464   2.794   0.988   7.835  0.1950 -0.5588 -1.3901
  172SOPE  C21019465   2.872   1.139   7.961  0.1338  0.6194  0.0700
  172SOPE  H10119466   2.786   1.117   8.026 -0.3703  1.0762 -0.4336
  172SOPE  C21119467   2.966   1.248   8.009  0.8772  0.1779 -0.4718
  172SOPE  H11R19468   2.945   1.348   7.966 -0.9299  1.4819  2.9995
  172SOPE  H11S19469   3.067   1.212   7.980  0.6112  0.3330 -1.6430
  172SOPE  C21219470   2.990   1.274   8.160  0.2072  0.0364 -0.5316
  172SOPE  H12R19471   2.890   1.295   8.205  0.6011  0.5701  0.1043
  172SOPE  H12S19472   3.049   1.363   8.191 -0.1069 -0.3540  1.3211
  172SOPE  C21319473   3.056   1.161   8.239  0.2243 -0.1547 -0.4986
  172SOPE  H13R19474   3.078   1.202   8.340  0.0936 -0.9804 -0.1298
  172SOPE  H13S19475   3.154   1.132   8.196  0.2677  0.5006 -0.8513
  172SOPE  C21419476   2.966   1.034   8.248  0.0122 -0.3753 -0.5436
  172SOPE  H14R19477   2.952   1.000   8.143  0.1224  0.1043 -0.7164
  172SOPE  H14S19478   2.866   1.064   8.286  0.2292  0.5553 -0.6841
  172SOPE  C21519479   3.012   0.924   8.342  0.0504 -0.2524  0.3016
  172SOPE  H15R19480   3.116   0.891   8.318  0.0332  0.4410 -0.8454
  172SOPE  H15S19481   2.944   0.836   8.334 -3.3825  2.2382 -0.1031
  172SOPE  C21619482   3.022   0.970   8.485 -0.1395 -0.5791 -1.1240
  172SOPE  H16R19483   2.927   1.020   8.513  0.9242  0.6090  0.5929
  172SOPE  H16S19484   3.097   1.052   8.478  0.5491 -1.0383  0.3766
  172SOPE  C21719485   3.057   0.866   8.595  0.0477 -0.6716  0.2166
  172SOPE  H17R19486   2.992   0.776   8.600 -1.1821  0.2311  0.8759
  172SOPE  H17S19487   3.045   0.926   8.687  2.7969 -0.1011  0.2886
  172SOPE  C21819488   3.203   0.815   8.604  0.5793 -0.3861 -0.3395
  172SOPE  H18R19489   3.213   0.715   8.652 -0.7369  0.7066  2.4141
  172SOPE  H18S19490   3.268   0.892   8.650  0.9515 -0.2358 -1.1053
  172SOPE  H18T19491   3.239   0.790   8.502 -0.7872  1.3578 -1.2758
  172SOPE   C3319492   2.917   1.690   7.390 -0.3274 -0.6933  0.2873
  172SOPE   H3X19493   2.809   1.669   7.379 -0.3757 -1.2154  1.5762
  172SOPE   H3Y19494   2.947   1.795   7.368 -0.7824 -0.9388 -1.5894
  172SOPE   C3419495   2.951   1.660   7.541  0.0757 -0.8207  0.2566
  172SOPE   H4X19496   3.059   1.640   7.555  0.2280 -0.8591 -0.8455
  172SOPE   H4Y19497   2.889   1.570   7.564 -1.9651  0.2389 -0.8531
  172SOPE   C3519498   2.897   1.778   7.625 -0.4600 -0.2662  0.2247
  172SOPE   H5X19499   2.818   1.844   7.585  0.0902  0.3673  0.1719
  172SOPE   H5Y19500   2.980   1.852   7.619 -0.4596 -0.3848 -2.8106
  172SOPE   C3619501   2.853   1.737   7.764 -0.3446 -0.2029  0.2511
  172SOPE   H6X19502   2.932   1.674   7.809  1.0416  1.2123 -0.1221
  172SOPE   H6Y19503   2.764   1.671   7.765 -0.2714 -0.3714 -1.2394
  172SOPE   C3719504   2.839   1.858   7.861  0.1681  0.1344  0.1049
  172SOPE   H7X19505   2.757   1.924   7.826 -1.2173 -1.3699  0.4059
  172SOPE   H7Y19506   2.932   1.918   7.871 -0.6526  1.4200  0.3232
  172SOPE   C3819507   2.802   1.815   8.008 -0.2774 -0.2855  0.3784
  172SOPE   H8X19508   2.739   1.724   8.017 -0.8561  0.2631  2.2442
  172SOPE   H8Y19509   2.747   1.903   8.046 -0.5153  0.4444 -1.5604
  172SOPE   C3919510   2.926   1.804   8.101 -0.2122  0.1633 -0.2918
  172SOPE   H9X19511   3.001   1.886   8.092  0.7920 -0.6517  0.2700
  172SOPE   H9Y19512   2.983   1.710   8.085 -1.2819 -0.4628 -0.5067
  172SOPE  C31019513   2.878   1.783   8.247  0.0931  0.1130  0.3163
  172SOPE  H10X19514   2.798   1.706   8.246  1.3691 -1.2577 -0.9338
  172SOPE  H10Y19515   2.836   1.877   8.290 -1.5811 -0.6531  0.4575
  172SOPE  C31119516   2.978   1.730   8.348  0.0231  0.4982 -1.0902
  172SOPE  H11X19517   3.069   1.787   8.376 -0.5435  0.9108 -0.0663
  172SOPE  H11Y19518   3.021   1.642   8.295  0.9943  0.6207 -0.5208
  172SOPE  C31219519   2.911   1.687   8.477  0.4147  0.6165 -0.4956
  172SOPE  H12X19520   2.817   1.629   8.466  0.6439 -0.1061  1.0578
  172SOPE  H12Y19521   2.883   1.780   8.532  1.3278  0.9295 -0.5404
  172SOPE  C31319522   3.002   1.596   8.563 -0.4476  0.0081 -0.1182
  172SOPE  H13X19523   3.085   1.664   8.590 -0.0647  0.5109 -2.3894
  172SOPE  H13Y19524   3.038   1.505   8.512 -1.2405 -0.3739 -0.0242
  172SOPE  C31419525   2.923   1.548   8.685 -0.1815  0.9260  0.1952
  172SOPE  H14X19526   2.852   1.469   8.653  1.6316 -0.3856 -0.8279
  172SOPE  H14Y19527   2.861   1.633   8.720 -1.4221 -0.1528  0.6887
  172SOPE  C31519528   3.012   1.493   8.801 -0.4032 -0.1486  0.0367
  172SOPE  H15X19529   3.059   1.397   8.771  0.2813  0.4860 -1.0409
  172SOPE  H15Y19530   2.946   1.475   8.888 -0.8591  1.3672  0.0313
  172SOPE  C31619531   3.120   1.595   8.846  0.6105 -0.7493 -0.5032
  172SOPE  H16X19532   3.091   1.701   8.861  3.1718  0.1405 -1.3092
  172SOPE  H16Y19533   3.200   1.593   8.769 -0.8111 -1.1077 -2.0141
  172SOPE  C31719534   3.178   1.568   8.991 -0.0965 -0.0700 -0.6285
  172SOPE  H17X19535   3.220   1.465   8.997 -0.6898 -0.2629  0.3533
  172SOPE  H17Y19536   3.105   1.556   9.073 -1.6501  1.5482 -1.6917
  172SOPE  C31819537   3.286   1.670   9.030 -1.2376 -0.1810  0.4778
  172SOPE  H18X19538   3.241   1.769   9.005 -0.8679 -0.3560 -0.9828
  172SOPE  H18Y19539   3.378   1.650   8.971 -1.8712 -1.1443 -0.2184
  172SOPE  H18Z19540   3.316   1.675   9.137  0.9315 -1.5307 -0.0088
  173SAPI   C1219541   6.756   0.400  11.069  0.2845 -0.1111  0.0197
  173SAPI    H219542   6.693   0.381  10.979  2.3952  0.5780 -1.6735
  173SAPI    O219543   6.683   0.460  11.168 -0.1353  0.0801 -0.7815
  173SAPI   HO219544   6.678   0.552  11.142 -0.5435  0.2755 -0.0527
  173SAPI   C1319545   6.819   0.264  11.103 -0.0685 -0.0669 -0.2131
  173SAPI    H319546   6.862   0.226  11.007 -2.0920 -1.7660 -0.5278
  173SAPI    O319547   6.711   0.180  11.134 -0.2727  0.1889  0.0863
  173SAPI   HO319548   6.739   0.127  11.208 -0.4201 -0.1227 -0.0797
  173SAPI   C1419549   6.924   0.274  11.208 -0.2539 -0.0285 -0.0815
  173SAPI    H419550   6.871   0.308  11.300 -1.3954 -1.0014 -0.3542
  173SAPI    O419551   6.970   0.141  11.233 -0.1209 -0.3762 -0.3521
  173SAPI   HO419552   6.907   0.105  11.296 -0.8140 -0.5116 -1.1143
  173SAPI   C1519553   7.032   0.380  11.181  0.2435 -0.2838 -0.9790
  173SAPI    H519554   7.094   0.353  11.094  0.1550  0.5339 -1.3047
  173SAPI    O519555   7.128   0.384  11.286  0.5418 -0.2942  0.2688
  173SAPI   HO519556   7.081   0.400  11.368 -1.9033 -0.1964 -1.0723
  173SAPI   C1619557   6.963   0.511  11.148 -0.7090 -0.3233 -0.0489
  173SAPI    H619558   6.911   0.550  11.238 -0.7936 -3.6294  1.4622
  173SAPI    O619559   7.069   0.606  11.115 -0.1398  0.1589 -0.2573
  173SAPI   HO619560   7.062   0.617  11.020 -2.8510 -1.1528 -0.2985
  173SAPI   C1119561   6.867   0.489  11.037  0.3225  1.0951  0.4991
  173SAPI    H119562   6.922   0.433  10.958  1.2806  1.2608  1.0207
  173SAPI     P19563   6.851   0.677  10.846 -0.2574  0.0756 -0.1625
  173SAPI   O1319564   6.994   0.675  10.827 -0.2213  0.2833 -0.0615
  173SAPI   O1419565   6.776   0.806  10.846 -0.2186 -0.0176  0.1523
  173SAPI   O1219566   6.824   0.612  10.991 -0.5400 -0.5638  0.4396
  173SAPI   O1119567   6.767   0.581  10.751  0.7321  0.0875  0.2635
  173SAPI    C119568   6.639   0.522  10.774 -0.5390 -0.2769  0.0514
  173SAPI    HA19569   6.643   0.413  10.755  0.2379 -0.0274 -1.3486
  173SAPI    HB19570   6.608   0.527  10.880 -0.4633  0.1696  0.0540
  173SAPI    C219571   6.528   0.579  10.682  0.1115 -0.2825  0.0121
  173SAPI    HS19572   6.428   0.538  10.709  0.8391 -2.4554 -0.4208
  173SAPI   O2119573   6.565   0.554  10.544 -0.2020 -0.6475 -0.3269
  173SAPI   C2119574   6.548   0.429  10.505  0.0482 -0.1192  0.1586
  173SAPI   O2219575   6.497   0.343  10.576 -0.3535 -0.6551  0.4302
  173SAPI   C2219576   6.589   0.411  10.362  0.9672 -0.1955 -0.1206
  173SAPI   H2R19577   6.501   0.441  10.302  0.9708  0.6601  0.2993
  173SAPI   H2S19578   6.670   0.483  10.338  1.0803  0.0879  1.0370
  173SAPI    C319579   6.514   0.729  10.700  0.0890  0.0787 -0.4631
  173SAPI    HX19580   6.615   0.774  10.696  0.1835 -0.1548 -0.7850
  173SAPI    HY19581   6.480   0.750  10.803 -3.6451 -1.1580 -1.2759
  173SAPI   O3119582   6.424   0.784  10.607  0.2013 -0.3895  0.0340
  173SAPI   C3119583   6.419   0.911  10.593 -0.1645  0.4793  0.7313
  173SAPI   O3219584   6.466   0.991  10.667 -0.0102  0.2644 -1.1615
  173SAPI   C3219585   6.375   0.953  10.458  0.5066 -0.1757 -0.0818
  173SAPI   H2X19586   6.476   0.985  10.423  0.4930  1.0482  0.9271
  173SAPI   H2Y19587   6.292   1.027  10.467 -1.9632 -2.1707 -3.8012
  173SAPI   C2319588   6.629   0.267  10.314  0.0946 -0.0294 -0.2735
  173SAPI   H3R19589   6.556   0.197  10.360 -0.3387  1.5276  1.5219
  173SAPI   H3S19590   6.729   0.248  10.357 -1.1470  0.3257  3.1045
  173SAPI   C2419591   6.639   0.262  10.159  0.0098 -0.1074  0.0709
  173SAPI   H4R19592   6.700   0.176  10.125  0.2991  0.5955 -1.2438
  173SAPI   H4S19593   6.693   0.351  10.122 -0.3446 -1.3451 -3.9197
  173SAPI   C2519594   6.496   0.257  10.106 -0.1290  0.0455  0.3546
  173SAPI   H5R19595   6.430   0.192  10.166 -3.3535  2.7756  0.0520
  173SAPI   C2619596   6.455   0.312   9.992  0.6700  0.2552  0.4988
  173SAPI   H6R19597   6.346   0.311   9.973  0.3503 -0.2928  2.1704
  173SAPI   C2719598   6.538   0.399   9.903  0.1308 -0.6199 -0.2953
  173SAPI   H7R19599   6.596   0.470   9.966  0.6113 -1.9782  0.8261
  173SAPI   H7S19600   6.472   0.458   9.835  1.5008  3.6681  1.7140
  173SAPI   C2819601   6.643   0.337   9.817 -0.7154  0.6102 -0.5320
  173SAPI   H8R19602   6.728   0.303   9.879 -1.5511  0.9576  0.8337
  173SAPI   C2919603   6.645   0.320   9.683 -0.8416  0.0837 -0.2507
  173SAPI   H9R19604   6.733   0.268   9.644 -0.7018 -1.4708  1.9821
  173SAPI  C21019605   6.543   0.374   9.586  0.7351  0.3709  0.5878
  173SAPI  H10R19606   6.562   0.483   9.577  2.0168  0.0094 -1.7862
  173SAPI  H10S19607   6.437   0.365   9.619 -0.9439 -0.2814 -4.1850
  173SAPI  C21119608   6.539   0.294   9.451 -0.3096 -0.4887  0.3693
  173SAPI  H11R19609   6.639   0.263   9.418  0.2266 -1.4162  2.6715
  173SAPI  C21219610   6.438   0.276   9.368  0.0370  0.3189 -0.3650
  173SAPI  H12R19611   6.449   0.204   9.286  1.6791 -1.3110  1.1784
  173SAPI  C21319612   6.295   0.334   9.384  0.7247  0.1433 -0.1433
  173SAPI  H13R19613   6.271   0.407   9.303 -1.8538 -0.2931  0.1235
  173SAPI  H13S19614   6.280   0.389   9.479 -1.7599  2.2441 -1.6098
  173SAPI  C21419615   6.172   0.238   9.379 -1.0157 -0.0268 -0.4829
  173SAPI  H14R19616   6.146   0.211   9.482  0.4699  1.0022  0.1982
  173SAPI  C21519617   6.104   0.196   9.271  0.2688  0.2489  0.3149
  173SAPI  H15R19618   6.009   0.142   9.287  0.6358 -0.0822  1.4410
  173SAPI  C21619619   6.127   0.230   9.127  0.0476 -0.3178 -0.0283
  173SAPI  H16R19620   6.140   0.133   9.074 -0.1218 -0.1528 -0.3723
  173SAPI  H16S19621   6.222   0.287   9.128  1.1948 -2.1374  0.0227
  173SAPI  C21719622   6.021   0.320   9.062 -0.4324 -0.3742  0.2844
  173SAPI  H17R19623   6.034   0.429   9.076 -3.0682  0.0717 -0.2021
  173SAPI  H17S19624   5.919   0.301   9.103  0.3859 -2.0478  1.6676
  173SAPI  C21819625   6.009   0.287   8.909 -0.2884 -0.2164  0.2943
  173SAPI  H18R19626   5.915   0.328   8.866 -0.0722 -1.4108 -1.4180
  173SAPI  H18S19627   6.000   0.177   8.900  0.8891 -0.2601 -0.6031
  173SAPI  C21919628   6.127   0.345   8.831  0.2191  0.1920  0.4830
  173SAPI  H19R19629   6.219   0.315   8.886 -0.3252 -0.2660  1.1502
  173SAPI  H19S19630   6.111   0.455   8.841 -1.1990  0.0088  0.3720
  173SAPI  C22019631   6.134   0.313   8.677 -0.1973 -0.7925 -0.1020
  173SAPI  H20R19632   6.044   0.352   8.625  0.0965 -0.1686 -0.1515
  173SAPI  H20S19633   6.136   0.202   8.664  0.1394 -0.8627  0.5049
  173SAPI  H20T19634   6.217   0.375   8.638 -1.9681  1.4624 -0.4622
  173SAPI   C3319635   6.320   0.839  10.372  0.3626 -0.4176  0.0507
  173SAPI   H3X19636   6.247   0.774  10.423  1.5196 -1.1402  0.8394
  173SAPI   H3Y19637   6.400   0.767  10.344  0.9939 -1.5043  4.0197
  173SAPI   C3419638   6.269   0.896  10.238  0.5011  0.2407 -0.3828
  173SAPI   H4X19639   6.201   0.982  10.256  0.8214  0.1987  1.1375
  173SAPI   H4Y19640   6.202   0.816  10.199 -0.1286  0.0236  1.0790
  173SAPI   C3519641   6.374   0.936  10.138  0.5880 -0.1885 -0.1510
  173SAPI   H5X19642   6.446   1.003  10.190 -0.7511  1.1737  0.0338
  173SAPI   H5Y19643   6.326   1.005  10.065 -1.5111  0.9723  2.1835
  173SAPI   C3619644   6.443   0.825  10.063  0.2461 -0.1606  0.4653
  173SAPI   H6X19645   6.372   0.787   9.987  0.8369 -0.8984  0.2798
  173SAPI   H6Y19646   6.476   0.742  10.129 -0.4933 -0.4712  0.4569
  173SAPI   C3719647   6.567   0.867   9.978  0.4290  0.1295  0.0489
  173SAPI   H7X19648   6.652   0.865  10.049  0.1401  0.9971  0.4372
  173SAPI   H7Y19649   6.555   0.971   9.939 -2.5584 -0.2625 -0.3163
  173SAPI   C3819650   6.586   0.770   9.865  0.0115 -0.2002 -0.3805
  173SAPI   H8X19651   6.499   0.767   9.796 -1.4302 -0.7260  1.3516
  173SAPI   H8Y19652   6.605   0.668   9.905  0.0410  0.3837  1.1731
  173SAPI   C3919653   6.707   0.815   9.777  0.1477  0.0625 -0.1566
  173SAPI   H9X19654   6.794   0.810   9.847 -0.8760  2.1872  1.3885
  173SAPI   H9Y19655   6.694   0.923   9.754  1.5569  0.6212  1.4091
  173SAPI  C31019656   6.725   0.731   9.651  0.2160  0.3521 -0.7949
  173SAPI  H10X19657   6.697   0.627   9.676 -0.6735  0.8850  0.6010
  173SAPI  H10Y19658   6.834   0.730   9.630  0.2680 -1.6537 -0.5614
  173SAPI  C31119659   6.664   0.794   9.521 -0.1784 -0.4773 -0.3732
  173SAPI  H11X19660   6.708   0.894   9.505 -0.7543 -0.3582 -1.2661
  173SAPI  H11Y19661   6.560   0.821   9.550  0.9194  0.9006  2.7238
  173SAPI  C31219662   6.669   0.713   9.393 -0.4515  0.5838 -0.2889
  173SAPI  H12X19663   6.604   0.625   9.410 -0.7752  1.0517  0.9617
  173SAPI  H12Y19664   6.771   0.675   9.370  0.6816  1.3089  3.0206
  173SAPI  C31319665   6.630   0.789   9.263  0.4123 -0.4012  0.0182
  173SAPI  H13X19666   6.673   0.891   9.265 -3.1852  1.3687 -2.1917
  173SAPI  H13Y19667   6.519   0.791   9.255  0.3090  0.4732  1.3613
  173SAPI  C31419668   6.683   0.733   9.136  0.3677 -0.2457  0.1181
  173SAPI  H14X19669   6.792   0.750   9.123 -0.0404  2.0949 -0.6327
  173SAPI  H14Y19670   6.639   0.796   9.056  0.4903  0.4667  0.6020
  173SAPI  C31519671   6.649   0.583   9.117 -0.2621  0.0516  0.6690
  173SAPI  H15X19672   6.542   0.557   9.125 -0.0731 -1.4977 -1.2251
  173SAPI  H15Y19673   6.699   0.520   9.194  0.9950  0.3304  0.1208
  173SAPI  C31619674   6.705   0.507   8.994 -0.6470 -0.8073  0.0159
  173SAPI  H16X19675   6.808   0.540   8.970 -0.8813 -0.5033 -0.5851
  173SAPI  H16Y19676   6.643   0.531   8.905  1.4788 -0.7992 -1.5476
  173SAPI  C31719677   6.696   0.354   9.017  0.0058 -0.1194  0.0295
  173SAPI  H17X19678   6.588   0.333   9.035  0.7405 -3.8613  0.8778
  173SAPI  H17Y19679   6.761   0.343   9.106  2.3221  1.5372 -1.3453
  173SAPI  C31819680   6.753   0.278   8.896  0.7013 -0.9553 -0.7409
  173SAPI  H18X19681   6.749   0.169   8.917  0.6960 -0.8126  0.0148
  173SAPI  H18Y19682   6.859   0.306   8.877  0.6744  2.2990  2.6334
  173SAPI  H18Z19683   6.690   0.292   8.805 -1.2753 -3.7232  0.0706
  174SAPI   C1219684   1.233   5.367  11.248 -0.1901 -0.0317 -0.1521
  174SAPI    H219685   1.133   5.378  11.200 -0.7139  0.3299  0.9559
  174SAPI    O219686   1.215   5.408  11.386  0.2504  0.7892  0.2876
  174SAPI   HO219687   1.152   5.481  11.383  1.7930  2.2239  0.9139
  174SAPI   C1319688   1.273   5.224  11.242  0.3529 -0.7310 -0.7049
  174SAPI    H319689   1.287   5.192  11.137  2.1391  1.1344 -1.1063
  174SAPI    O319690   1.177   5.136  11.309 -0.3922  0.0616 -0.2223
  174SAPI   HO319691   1.218   5.055  11.340  0.4380  0.3002 -0.6457
  174SAPI   C1419692   1.416   5.204  11.300  0.7306  0.5658  1.0279
  174SAPI    H419693   1.414   5.235  11.407  0.4478  0.8525  0.9415
  174SAPI    O419694   1.450   5.065  11.307 -0.0978  0.3157  0.0915
  174SAPI   HO419695   1.528   5.070  11.362 -0.4933  0.7425  0.6295
  174SAPI   C1519696   1.514   5.295  11.229  0.4405 -0.2695  0.9409
  174SAPI    H519697   1.513   5.259  11.124 -1.6060 -2.0311  1.4902
  174SAPI    O519698   1.641   5.272  11.284  0.4484 -0.4850  0.3264
  174SAPI   HO519699   1.680   5.193  11.246  0.5468  0.1698 -0.9880
  174SAPI   C1619700   1.467   5.442  11.226 -0.2775 -0.7140 -0.0245
  174SAPI    H619701   1.474   5.490  11.326  0.7473 -2.1128  0.6071
  174SAPI    O619702   1.563   5.514  11.140  0.0805  0.1631  0.7394
  174SAPI   HO619703   1.538   5.604  11.121 -0.7494 -0.0019  0.9833
  174SAPI   C1119704   1.331   5.453  11.165  0.3621  0.1730  0.2413
  174SAPI    H119705   1.330   5.402  11.066 -0.0463  1.1998 -0.2942
  174SAPI     P19706   1.208   5.650  11.018 -0.4255 -0.0229 -0.0248
  174SAPI   O1319707   1.168   5.791  11.054 -0.1275 -0.3347  0.8692
  174SAPI   O1419708   1.091   5.571  10.966  0.5047 -0.2421 -0.1778
  174SAPI   O1219709   1.280   5.587  11.151 -0.0310 -0.1897  0.3680
  174SAPI   O1119710   1.314   5.656  10.901 -0.4178 -0.5228  0.4136
  174SAPI    C119711   1.361   5.543  10.822  0.2752 -0.5983  0.2477
  174SAPI    HA19712   1.469   5.531  10.841 -0.1173 -1.6217  2.0657
  174SAPI    HB19713   1.312   5.446  10.843 -1.4638 -0.7364 -3.5641
  174SAPI    C219714   1.315   5.562  10.671 -0.1957 -0.3781  0.7124
  174SAPI    HS19715   1.360   5.481  10.609 -1.0259 -0.3615  0.0744
  174SAPI   O2119716   1.367   5.688  10.616  0.5576  0.3342  0.0299
  174SAPI   C2119717   1.397   5.691  10.483 -0.4661  0.1666 -0.2478
  174SAPI   O2219718   1.385   5.600  10.404 -0.3782 -0.6422 -0.0764
  174SAPI   C2219719   1.432   5.838  10.453  0.4607  0.1391  0.8386
  174SAPI   H2R19720   1.350   5.893  10.504 -1.8905  0.2345 -2.7033
  174SAPI   H2S19721   1.535   5.849  10.494  2.1447 -2.7717 -2.0855
  174SAPI    C319722   1.164   5.550  10.648 -0.1701 -0.3584  0.6743
  174SAPI    HX19723   1.109   5.643  10.674  2.0783  1.2990 -0.1458
  174SAPI    HY19724   1.130   5.462  10.707 -0.1987  0.3407  1.7153
  174SAPI   O3119725   1.137   5.505  10.515  0.4695  0.0963 -0.2161
  174SAPI   C3119726   1.069   5.592  10.435 -0.4140  0.0298  0.3933
  174SAPI   O3219727   1.044   5.704  10.460 -0.5372  0.3925 -0.0804
  174SAPI   C3219728   1.051   5.526  10.301  0.3430  0.3267  0.8446
  174SAPI   H2X19729   1.001   5.428  10.313 -0.7078  0.4615 -1.7610
  174SAPI   H2Y19730   1.149   5.509  10.252  1.2526 -0.2347  2.7760
  174SAPI   C2319731   1.420   5.867  10.302  0.3103 -0.7498  0.0724
  174SAPI   H3R19732   1.486   5.795  10.250  1.3543  0.9861 -1.1169
  174SAPI   H3S19733   1.454   5.970  10.279 -1.0566 -0.7401 -2.1874
  174SAPI   C2419734   1.272   5.871  10.237 -0.0350  0.2396 -0.5307
  174SAPI   H4R19735   1.222   5.780  10.277 -1.7946  0.8689 -1.2254
  174SAPI   H4S19736   1.282   5.848  10.128  1.6207 -0.9599 -0.1791
  174SAPI   C2519737   1.196   5.993  10.282  0.2012  0.1102 -0.3709
  174SAPI   H5R19738   1.169   5.994  10.389  1.4803  0.1840 -0.0353
  174SAPI   C2619739   1.120   6.077  10.208  0.2094  0.3680  0.1979
  174SAPI   H6R19740   1.079   6.170  10.250  0.5708  0.0748  1.2307
  174SAPI   C2719741   1.112   6.072  10.054 -0.2105  0.0748 -0.2745
  174SAPI   H7R19742   1.201   6.016  10.016  1.0263  1.2920  0.7232
  174SAPI   H7S19743   1.123   6.177  10.020  0.2775  0.0803 -0.1181
  174SAPI   C2819744   0.978   6.018  10.012  0.0786  0.1657  0.4593
  174SAPI   H8R19745   0.906   5.999  10.093 -2.4097 -2.0031 -2.0538
  174SAPI   C2919746   0.939   5.983   9.887 -0.0690 -0.4694  0.2069
  174SAPI   H9R19747   0.836   5.955   9.862 -0.6876  2.1944 -0.6278
  174SAPI  C21019748   1.017   6.001   9.758 -1.0574 -0.2093 -0.1722
  174SAPI  H10R19749   1.091   6.083   9.772  0.3395 -1.5005  0.3101
  174SAPI  H10S19750   0.964   6.030   9.665  2.4136  0.7229 -2.0268
  174SAPI  C21119751   1.102   5.880   9.738 -0.0553  0.6624  0.3596
  174SAPI  H11R19752   1.155   5.841   9.826 -0.0029  0.2700  0.1578
  174SAPI  C21219753   1.135   5.833   9.621 -0.6418 -0.2449 -0.0984
  174SAPI  H12R19754   1.172   5.730   9.623  1.9977  0.6498  0.1243
  174SAPI  C21319755   1.085   5.880   9.484  0.2720  0.0471 -0.0129
  174SAPI  H13R19756   1.105   5.989   9.482  0.4041  0.0624  1.2506
  174SAPI  H13S19757   0.976   5.857   9.473 -0.1829  2.6293 -1.6889
  174SAPI  C21419758   1.148   5.822   9.362 -0.6070 -0.0780  0.5430
  174SAPI  H14R19759   1.255   5.846   9.356 -0.9406  1.1152 -2.2156
  174SAPI  C21519760   1.094   5.749   9.261 -0.1147  0.2192 -0.1392
  174SAPI  H15R19761   1.155   5.707   9.180  1.0447 -2.1611  1.8048
  174SAPI  C21619762   0.955   5.695   9.266 -0.6146  0.5713 -0.4613
  174SAPI  H16R19763   0.886   5.782   9.277 -0.9512  0.3991 -1.1662
  174SAPI  H16S19764   0.944   5.626   9.353 -0.0206 -0.2363 -1.0208
  174SAPI  C21719765   0.919   5.609   9.141 -0.6514  0.3175  0.0296
  174SAPI  H17R19766   0.834   5.540   9.156  0.1809 -1.3358 -2.4455
  174SAPI  H17S19767   1.008   5.546   9.124 -1.3871 -0.7419 -0.0075
  174SAPI  C21819768   0.905   5.699   9.012 -0.7979  0.1766  0.9671
  174SAPI  H18R19769   0.983   5.777   8.999 -0.7638 -0.0666 -0.3912
  174SAPI  H18S19770   0.804   5.745   9.013 -0.3325  1.3727 -1.2735
  174SAPI  C21919771   0.911   5.605   8.887 -0.1818  0.4043 -0.0873
  174SAPI  H19R19772   0.846   5.518   8.907  2.6000 -1.7444  0.3298
  174SAPI  H19S19773   1.012   5.563   8.864  0.5453  0.5527  2.5055
  174SAPI  C22019774   0.866   5.692   8.774  0.1244  0.0659 -0.4575
  174SAPI  H20R19775   0.935   5.778   8.759 -1.0268  1.1711  0.3627
  174SAPI  H20S19776   0.762   5.724   8.795  0.5146  1.3115 -0.3427
  174SAPI  H20T19777   0.855   5.632   8.682 -0.8908  0.0763 -0.3496
  174SAPI   C3319778   0.971   5.611  10.191 -0.3484  0.0570 -0.1509
  174SAPI   H3X19779   1.031   5.700  10.163  2.3285 -1.8422 -0.8401
  174SAPI   H3Y19780   0.873   5.637  10.236 -1.3861 -2.5459 -0.6891
  174SAPI   C3419781   0.950   5.530  10.065  0.2036  0.3731  0.3388
  174SAPI   H4X19782   0.887   5.443  10.091 -0.0947  0.5445  0.1886
  174SAPI   H4Y19783   1.048   5.501  10.020  1.5568 -0.2126  3.4527
  174SAPI   C3519784   0.865   5.609   9.958  0.2691 -0.7439  0.1110
  174SAPI   H5X19785   0.926   5.701   9.942  2.3749 -1.9087  0.9722
  174SAPI   H5Y19786   0.766   5.631  10.003  0.9039 -0.0972  1.2420
  174SAPI   C3619787   0.846   5.545   9.820  0.4676 -0.2321 -0.8799
  174SAPI   H6X19788   0.781   5.456   9.832  1.2791 -0.5417  2.1068
  174SAPI   H6Y19789   0.944   5.511   9.781  0.1801 -2.3641  0.1188
  174SAPI   C3719790   0.778   5.653   9.726 -0.4815 -0.5018  0.2731
  174SAPI   H7X19791   0.850   5.726   9.682 -1.9173  0.1825 -1.0354
  174SAPI   H7Y19792   0.695   5.714   9.769 -0.0097  1.3095 -1.2263
  174SAPI   C3819793   0.712   5.573   9.610  0.0526  0.6006 -0.2535
  174SAPI   H8X19794   0.635   5.499   9.644  1.2015 -0.3926  0.2901
  174SAPI   H8Y19795   0.793   5.516   9.560  1.0975  2.2638 -0.5094
  174SAPI   C3919796   0.626   5.667   9.527  0.2666 -0.6826 -0.5518
  174SAPI   H9X19797   0.699   5.741   9.490 -1.2299  1.0559 -0.1734
  174SAPI   H9Y19798   0.542   5.709   9.587 -0.2965 -2.5484  0.0333
  174SAPI  C31019799   0.570   5.591   9.404 -0.3368 -0.1479  0.4878
  174SAPI  H10X19800   0.514   5.499   9.430  1.4974 -1.4804 -0.0867
  174SAPI  H10Y19801   0.653   5.546   9.347 -0.0617 -1.0728  1.5916
  174SAPI  C31119802   0.498   5.692   9.318  0.8345 -0.2219  0.1236
  174SAPI  H11X19803   0.557   5.785   9.307 -1.3402  1.0273 -1.8227
  174SAPI  H11Y19804   0.405   5.723   9.371  2.4174  1.9325  1.8407
  174SAPI  C31219805   0.456   5.626   9.181 -0.1121  0.3609 -0.0176
  174SAPI  H12X19806   0.378   5.548   9.199 -0.2886  0.9112  1.8875
  174SAPI  H12Y19807   0.544   5.581   9.130 -1.2933  0.9168 -2.7095
  174SAPI  C31319808   0.427   5.732   9.075 -0.1705 -0.0244 -0.1494
  174SAPI  H13X19809   0.522   5.782   9.047 -0.9924  1.0912 -1.0193
  174SAPI  H13Y19810   0.354   5.807   9.111  1.2913  1.0339  0.7064
  174SAPI  C31419811   0.383   5.675   8.937  0.6889  0.1245  0.9949
  174SAPI  H14X19812   0.337   5.763   8.888 -0.5496 -0.6833  0.6626
  174SAPI  H14Y19813   0.303   5.598   8.948  1.0435 -0.6098 -1.0710
  174SAPI  C31519814   0.505   5.619   8.853 -0.1254 -0.4736 -0.6545
  174SAPI  H15X19815   0.572   5.563   8.921 -1.8597  0.8327  2.3590
  174SAPI  H15Y19816   0.559   5.708   8.815  0.0644  0.3783  1.4876
  174SAPI  C31619817   0.470   5.543   8.726 -0.7666  0.4164  1.1049
  174SAPI  H16X19818   0.559   5.510   8.669 -0.7037 -1.1174  2.0552
  174SAPI  H16Y19819   0.412   5.606   8.654 -1.1680 -1.8321 -0.6351
  174SAPI  C31719820   0.402   5.409   8.766 -0.2794  0.3996 -0.4970
  174SAPI  H17X19821   0.302   5.430   8.811 -0.3806 -0.0771 -0.4993
  174SAPI  H17Y19822   0.456   5.350   8.843 -2.2731 -2.9508 -1.4510
  174SAPI  C31819823   0.389   5.316   8.650 -0.7342  0.6981 -0.2518
  174SAPI  H18X19824   0.340   5.219   8.672  0.3850  0.2095  0.1697
  174SAPI  H18Y19825   0.486   5.290   8.604 -0.3245  0.1015  0.9212
  174SAPI  H18Z19826   0.328   5.366   8.571  1.1209  0.7059 -1.7304
  175SAPI   C1219827   4.458   6.684   6.574  0.2201 -0.4035 -0.8115
  175SAPI    H219828   4.357   6.731   6.573  0.0898 -0.6107  0.4423
  175SAPI    O219829   4.483   6.624   6.447 -0.2520  0.0063  0.1150
  175SAPI   HO219830   4.432   6.682   6.390  1.4246  2.4245  0.9057
  175SAPI   C1319831   4.555   6.802   6.602  0.6767  1.1301  0.2973
  175SAPI    H319832   4.526   6.846   6.699  1.0627  0.1359  0.8840
  175SAPI    O319833   4.546   6.907   6.510  0.3076  0.6785  0.2784
  175SAPI   HO319834   4.458   6.943   6.496 -1.4740 -2.8548  1.2295
  175SAPI   C1419835   4.692   6.742   6.630 -0.3161  0.8550 -0.6946
  175SAPI    H419836   4.723   6.672   6.549  0.2779  3.3335 -2.7209
  175SAPI    O419837   4.791   6.845   6.636 -0.1488  0.1939  0.1568
  175SAPI   HO419838   4.754   6.921   6.682  0.6676  0.7510 -0.0835
  175SAPI   C1519839   4.686   6.652   6.757  0.6428 -0.7563 -0.1707
  175SAPI    H519840   4.637   6.703   6.842  0.4167 -1.6287  0.2321
  175SAPI    O519841   4.817   6.601   6.792  0.3268 -0.7680 -0.1345
  175SAPI   HO519842   4.815   6.556   6.877  1.3421  0.4584  0.5895
  175SAPI   C1619843   4.590   6.538   6.722  0.2701 -0.0089 -0.6285
  175SAPI    H619844   4.629   6.482   6.634  0.9834 -1.2713  0.4518
  175SAPI    O619845   4.576   6.451   6.829 -0.2925  0.0497 -0.4288
  175SAPI   HO619846   4.648   6.387   6.825  0.4353  0.9112 -1.2688
  175SAPI   C1119847   4.448   6.587   6.692  0.0134  0.1187 -0.5933
  175SAPI    H119848   4.415   6.645   6.780  0.4033 -1.3692  0.5807
  175SAPI     P19849   4.192   6.489   6.662  0.3090 -0.2142  0.3278
  175SAPI   O1319850   4.129   6.353   6.654 -0.3494 -0.7264  0.6581
  175SAPI   O1419851   4.154   6.577   6.549  0.1333 -0.2512  0.1061
  175SAPI   O1219852   4.355   6.490   6.661 -0.1015  0.7655  0.1150
  175SAPI   O1119853   4.159   6.563   6.800 -0.0470  0.4348  0.7264
  175SAPI    C119854   4.189   6.494   6.922  0.1152  0.3567 -0.0465
  175SAPI    HA19855   4.163   6.388   6.904 -2.0103  1.1074 -1.8762
  175SAPI    HB19856   4.298   6.500   6.942  0.1553  2.1358 -0.6192
  175SAPI    C219857   4.108   6.561   7.034 -0.3853  0.1536 -0.0475
  175SAPI    HS19858   4.139   6.668   7.040  2.0153 -0.4555 -0.6471
  175SAPI   O2119859   4.127   6.500   7.159 -0.3426  0.1023 -0.3319
  175SAPI   C2119860   4.250   6.515   7.208 -0.3739 -0.0813  0.3548
  175SAPI   O2219861   4.344   6.564   7.147  0.0570 -0.1042  0.7838
  175SAPI   C2219862   4.247   6.483   7.355 -0.4556  0.1427  0.0800
  175SAPI   H2R19863   4.320   6.555   7.398  0.2659 -0.5876  0.0954
  175SAPI   H2S19864   4.150   6.503   7.405 -1.0137 -0.0006 -0.9166
  175SAPI    C319865   3.954   6.569   6.987  0.2101  0.7344 -0.5258
  175SAPI    HX19866   3.931   6.468   6.946 -1.6638  1.5802 -1.6655
  175SAPI    HY19867   3.941   6.636   6.900 -0.7399 -1.3880 -2.1037
  175SAPI   O3119868   3.868   6.595   7.101 -0.2915  0.2962 -0.4568
  175SAPI   C3119869   3.865   6.721   7.131 -0.0464  0.3919 -0.5396
  175SAPI   O3219870   3.927   6.815   7.075  0.0724  0.4870 -0.6446
  175SAPI   C3219871   3.746   6.766   7.225  0.3659  0.1579 -0.6100
  175SAPI   H2X19872   3.693   6.681   7.272  3.2224 -0.4503  1.7920
  175SAPI   H2Y19873   3.671   6.811   7.156 -0.3011  1.0795  0.6707
  175SAPI   C2319874   4.292   6.345   7.393 -0.4173  0.0330 -0.5156
  175SAPI   H3R19875   4.378   6.315   7.329  0.4558  0.4568  0.4250
  175SAPI   H3S19876   4.214   6.271   7.366 -1.1295  0.7998 -0.5972
  175SAPI   C2419877   4.321   6.331   7.540  0.3389 -0.1844 -0.5808
  175SAPI   H4R19878   4.229   6.340   7.601  2.1621 -0.0183  2.3164
  175SAPI   H4S19879   4.386   6.410   7.581 -0.8345  0.3092  0.3785
  175SAPI   C2519880   4.386   6.202   7.573  0.5924 -0.2836 -0.0307
  175SAPI   H5R19881   4.378   6.124   7.496 -0.3079 -0.6282  0.3892
  175SAPI   C2619882   4.456   6.165   7.682  0.0839  0.2229  0.6155
  175SAPI   H6R19883   4.493   6.063   7.699  1.3972  0.8330  1.6158
  175SAPI   C2719884   4.489   6.262   7.797  0.2268 -0.4106 -0.3315
  175SAPI   H7R19885   4.428   6.355   7.802  0.4919 -0.2940  1.0798
  175SAPI   H7S19886   4.591   6.295   7.771  0.7227 -0.9045  0.9296
  175SAPI   C2819887   4.490   6.201   7.932  0.1911 -0.1914 -0.0777
  175SAPI   H8R19888   4.558   6.115   7.936  1.0061  0.3802 -1.0199
  175SAPI   C2919889   4.431   6.236   8.046  0.6360 -0.5880  0.0848
  175SAPI   H9R19890   4.448   6.176   8.136 -0.6416  0.6722  1.2207
  175SAPI  C21019891   4.346   6.358   8.065  0.2788 -0.2175  0.2734
  175SAPI  H10R19892   4.257   6.335   8.127 -0.6265  0.7762 -0.6296
  175SAPI  H10S19893   4.300   6.369   7.965 -0.2675 -1.7119  0.3265
  175SAPI  C21119894   4.410   6.487   8.103 -0.1523 -0.1683  0.1630
  175SAPI  H11R19895   4.426   6.558   8.021  3.6671 -1.6552 -0.5935
  175SAPI  C21219896   4.444   6.524   8.223  0.5286 -0.1123 -1.1862
  175SAPI  H12R19897   4.496   6.619   8.240 -0.1129  0.1118 -0.3943
  175SAPI  C21319898   4.418   6.445   8.342  0.2901 -0.2264  0.1836
  175SAPI  H13R19899   4.364   6.351   8.319  1.0062  0.2700 -4.4251
  175SAPI  H13S19900   4.364   6.503   8.419  0.8394 -1.0103  1.1958
  175SAPI  C21419901   4.555   6.407   8.405  0.4754 -0.0762  0.1550
  175SAPI  H14R19902   4.588   6.304   8.385 -1.4087 -0.5953 -0.5037
  175SAPI  C21519903   4.641   6.480   8.478  0.1652 -0.8164  0.0480
  175SAPI  H15R19904   4.741   6.442   8.500  0.1225  0.2008  2.2842
  175SAPI  C21619905   4.626   6.629   8.514 -0.5979  0.0049 -0.6760
  175SAPI  H16R19906   4.543   6.678   8.459 -1.5909  2.5054  2.7039
  175SAPI  H16S19907   4.727   6.670   8.489  0.6485 -2.7609 -0.5354
  175SAPI  C21719908   4.586   6.644   8.662 -0.0559 -0.1224 -0.4365
  175SAPI  H17R19909   4.654   6.573   8.714  0.3533 -2.1336 -3.4593
  175SAPI  H17S19910   4.481   6.610   8.678 -0.4840  1.4984  0.3814
  175SAPI  C21819911   4.599   6.793   8.703 -0.3527  0.5685 -1.1296
  175SAPI  H18R19912   4.543   6.860   8.635  1.3701  2.2808 -0.9594
  175SAPI  H18S19913   4.701   6.834   8.685  0.1856 -0.4989 -0.6587
  175SAPI  C21919914   4.562   6.826   8.847  0.0908  0.0363  0.4797
  175SAPI  H19R19915   4.637   6.773   8.911  1.0417 -0.2218 -0.7974
  175SAPI  H19S19916   4.460   6.788   8.864 -0.2603  1.5164  1.9743
  175SAPI  C22019917   4.580   6.972   8.879 -0.1936  0.2669 -0.4228
  175SAPI  H20R19918   4.493   7.028   8.839  0.3726  0.5108 -1.3409
  175SAPI  H20S19919   4.682   7.007   8.849  0.2876 -1.9623 -1.5696
  175SAPI  H20T19920   4.592   6.988   8.989  0.2354 -2.3781 -0.0300
  175SAPI   C3319921   3.781   6.881   7.321 -0.4406 -0.2972  0.4046
  175SAPI   H3X19922   3.701   6.957   7.337 -1.3535 -1.3349  0.8403
  175SAPI   H3Y19923   3.871   6.935   7.285 -2.1061  2.0694 -0.5050
  175SAPI   C3419924   3.797   6.837   7.463 -0.2321  1.2239 -0.4697
  175SAPI   H4X19925   3.881   6.765   7.459 -0.9266  0.3948 -0.2868
  175SAPI   H4Y19926   3.715   6.775   7.503 -0.2481  0.5785 -1.4783
  175SAPI   C3519927   3.839   6.949   7.561 -0.3380 -0.1129  0.0575
  175SAPI   H5X19928   3.755   7.017   7.536  0.3848  0.7863  0.0104
  175SAPI   H5Y19929   3.936   6.994   7.533 -0.4791  0.4346  0.4150
  175SAPI   C3619930   3.823   6.907   7.711 -0.2553  0.4200 -0.5100
  175SAPI   H6X19931   3.733   6.844   7.729 -1.5814  1.6921 -2.3221
  175SAPI   H6Y19932   3.805   6.990   7.783  1.2444 -1.1906  1.8378
  175SAPI   C3719933   3.945   6.829   7.769  0.2561 -0.0284 -0.5016
  175SAPI   H7X19934   3.995   6.773   7.687 -2.4647 -2.5185 -0.5878
  175SAPI   H7Y19935   3.907   6.764   7.850 -0.9177 -1.7573 -2.3565
  175SAPI   C3819936   4.046   6.914   7.838  0.2408 -0.3269  0.0051
  175SAPI   H8X19937   3.996   6.952   7.930  1.4115  0.7611  0.2114
  175SAPI   H8Y19938   4.070   6.999   7.771 -0.5537 -0.4155 -0.4017
  175SAPI   C3919939   4.187   6.844   7.863  0.3504  0.0992 -0.2726
  175SAPI   H9X19940   4.228   6.821   7.762 -0.7159 -2.5751 -0.1951
  175SAPI   H9Y19941   4.180   6.752   7.926  1.4419 -0.6492 -1.2027
  175SAPI  C31019942   4.272   6.950   7.946  0.0014  0.8763 -0.2722
  175SAPI  H10X19943   4.222   6.989   8.037  0.4979  1.7514 -0.3685
  175SAPI  H10Y19944   4.280   7.048   7.895  4.1737  0.5847 -0.4987
  175SAPI  C31119945   4.409   6.897   7.975  0.1306  0.2200 -0.7125
  175SAPI  H11X19946   4.474   6.883   7.886  0.6978 -0.8565 -0.1631
  175SAPI  H11Y19947   4.406   6.795   8.020 -1.1704  0.5751  0.0704
  175SAPI  C31219948   4.481   6.978   8.084  0.1536 -0.0096 -0.4688
  175SAPI  H12X19949   4.441   6.958   8.186  0.1309  1.4392 -0.1764
  175SAPI  H12Y19950   4.459   7.086   8.069 -0.8234 -0.1750 -0.2915
  175SAPI  C31319951   4.629   6.943   8.087  0.6984  0.0314  0.8893
  175SAPI  H13X19952   4.657   6.964   7.982  1.6993 -1.3481  0.8616
  175SAPI  H13Y19953   4.636   6.833   8.098 -3.8741 -0.5441  0.1960
  175SAPI  C31419954   4.733   7.012   8.182 -0.8409  0.1886 -1.0161
  175SAPI  H14X19955   4.709   7.120   8.192 -2.1566 -0.0549 -1.2915
  175SAPI  H14Y19956   4.834   7.012   8.137 -0.1342  2.6404  0.3298
  175SAPI  C31519957   4.753   6.941   8.320 -0.3742  0.6487  0.8696
  175SAPI  H15X19958   4.778   6.834   8.306  0.5618  0.9333  0.3117
  175SAPI  H15Y19959   4.654   6.935   8.371 -0.5237 -0.6032  0.4611
  175SAPI  C31619960   4.865   7.006   8.402  0.2331  0.1272 -0.5011
  175SAPI  H16X19961   4.952   7.023   8.336  1.7030  0.1646  1.3558
  175SAPI  H16Y19962   4.892   6.934   8.483  1.0747  0.9703 -0.0197
  175SAPI  C31719963   4.819   7.147   8.457 -0.5363  0.1477  0.2742
  175SAPI  H17X19964   4.740   7.137   8.535 -1.1996  1.2109 -0.2248
  175SAPI  H17Y19965   4.779   7.202   8.369  2.3244 -1.8124 -2.4769
  175SAPI  C31819966   4.928   7.239   8.503 -0.6978 -0.6523 -0.2453
  175SAPI  H18X19967   4.884   7.334   8.540 -0.5958 -0.9471  0.6803
  175SAPI  H18Y19968   5.004   7.262   8.426 -1.4708  0.6443 -0.6493
  175SAPI  H18Z19969   4.988   7.187   8.581  0.0283  0.7977  0.1990
  176SAPI   C1219970   6.411   4.446   6.597 -0.4902 -1.1792  0.3964
  176SAPI    H219971   6.412   4.532   6.668  0.5847 -0.6827 -0.2104
  176SAPI    O219972   6.397   4.504   6.467 -0.0954  0.2659  0.0155
  176SAPI   HO219973   6.482   4.549   6.455  0.2692 -0.3876  0.1013
  176SAPI   C1319974   6.540   4.367   6.609  0.2982 -0.7160  0.1457
  176SAPI    H319975   6.551   4.339   6.716 -1.6744  1.6182  1.0421
  176SAPI    O319976   6.649   4.449   6.581 -0.2498 -0.1853  0.4744
  176SAPI   HO319977   6.724   4.420   6.633  0.6989  1.7241  0.2392
  176SAPI   C1419978   6.546   4.240   6.527 -0.5717  0.2030 -0.1849
  176SAPI    H419979   6.537   4.273   6.421  0.0849 -1.4367 -0.7822
  176SAPI    O419980   6.672   4.169   6.544  0.5304 -0.1975  0.4545
  176SAPI   HO419981   6.707   4.144   6.458 -0.4371 -0.3010  0.0796
  176SAPI   C1519982   6.421   4.161   6.559  0.3330 -0.0741  0.1356
  176SAPI    H519983   6.413   4.132   6.666 -2.2191 -1.6337 -0.3839
  176SAPI    O519984   6.419   4.038   6.486 -0.1014 -0.0938 -0.9834
  176SAPI   HO519985   6.452   3.961   6.532  0.4141 -0.6029 -2.1515
  176SAPI   C1619986   6.291   4.238   6.543  0.0028  0.8277  0.3330
  176SAPI    H619987   6.279   4.272   6.438 -0.2223  0.7146  0.3206
  176SAPI    O619988   6.178   4.153   6.583 -0.5008 -0.5336  0.3839
  176SAPI   HO619989   6.160   4.170   6.676 -2.5132 -2.6163  0.4842
  176SAPI   C1119990   6.289   4.358   6.632 -0.1661 -0.7586 -0.4235
  176SAPI    H119991   6.307   4.325   6.736 -0.2932  0.6712  0.0710
  176SAPI     P19992   6.049   4.431   6.737 -0.4060  0.0216  0.0093
  176SAPI   O1319993   6.055   4.291   6.793 -0.1856  0.1240  0.3876
  176SAPI   O1419994   5.922   4.474   6.686  0.2912  0.2082  0.4113
  176SAPI   O1219995   6.172   4.444   6.632  0.0207  0.3077  0.5122
  176SAPI   O1119996   6.090   4.537   6.853  0.9601 -0.2073  0.2365
  176SAPI    C119997   6.076   4.680   6.813  0.2379  0.1809  0.1875
  176SAPI    HA19998   6.166   4.706   6.754  0.5440  0.1917  0.6543
  176SAPI    HB19999   5.982   4.703   6.758 -1.0110  0.8512  2.4745
  176SAPI    C220000   6.060   4.769   6.935  0.3143 -0.3487 -0.7926
  176SAPI    HS20001   6.079   4.875   6.905  2.1812 -1.0316 -2.2251
  176SAPI   O2120002   6.154   4.736   7.035 -0.1508  0.0748 -0.1734
  176SAPI   C2120003   6.217   4.838   7.095 -0.2153  0.6912 -0.4867
  176SAPI   O2220004   6.204   4.956   7.067  0.2981 -0.5460  0.1914
  176SAPI   C2220005   6.304   4.786   7.209 -0.3545 -0.3482  0.2573
  176SAPI   H2R20006   6.368   4.708   7.163 -1.1188 -0.4533 -0.6680
  176SAPI   H2S20007   6.369   4.871   7.238  1.9390 -1.4490 -1.3043
  176SAPI    C320008   5.918   4.738   7.001  0.4024 -0.3694 -0.5624
  176SAPI    HX20009   5.908   4.632   7.033 -0.4400  0.0226  0.5334
  176SAPI    HY20010   5.842   4.748   6.921  0.1994 -2.3672 -0.6774
  176SAPI   O3120011   5.900   4.816   7.121  0.0910  0.5688  0.1184
  176SAPI   C3120012   5.848   4.944   7.104  0.6762 -0.3292  0.0019
  176SAPI   O3220013   5.842   5.002   6.996  0.1092 -0.2564 -0.0606
  176SAPI   C3220014   5.813   4.997   7.246  0.0239  0.1150  0.1118
  176SAPI   H2X20015   5.786   5.104   7.233  0.9970  0.4103  0.4360
  176SAPI   H2Y20016   5.896   4.982   7.318 -1.6916  0.0210  2.1835
  176SAPI   C2320017   6.226   4.728   7.332  1.1171  0.5766  0.3043
  176SAPI   H3R20018   6.299   4.694   7.408  0.7187  0.7118  0.7566
  176SAPI   H3S20019   6.164   4.640   7.302  0.5686  0.4258  1.7633
  176SAPI   C2420020   6.113   4.824   7.394 -0.8798  0.8632  0.2172
  176SAPI   H4R20021   6.030   4.832   7.321  1.3763  1.8703 -2.4309
  176SAPI   H4S20022   6.153   4.928   7.397  4.0715 -0.7976  1.4951
  176SAPI   C2520023   6.060   4.792   7.528  0.7425  0.2167 -1.1594
  176SAPI   H5R20024   5.976   4.721   7.530  0.9475 -0.0657 -2.0349
  176SAPI   C2620025   6.105   4.845   7.636  0.3298 -0.0649 -0.4356
  176SAPI   H6R20026   6.066   4.803   7.730 -0.1554  1.5663  0.1307
  176SAPI   C2720027   6.222   4.938   7.644 -0.1390  0.2049  0.7970
  176SAPI   H7R20028   6.192   5.025   7.583 -2.0177 -0.1284  1.1656
  176SAPI   H7S20029   6.317   4.902   7.599  1.6148  2.0368  2.8059
  176SAPI   C2820030   6.250   4.995   7.776  0.2030 -0.4240 -0.4377
  176SAPI   H8R20031   6.169   5.058   7.813 -2.5559 -3.3811 -1.0265
  176SAPI   C2920032   6.356   4.974   7.862 -0.5635  0.3687  0.3592
  176SAPI   H9R20033   6.353   5.025   7.959 -1.6233 -1.5452  1.3892
  176SAPI  C21020034   6.485   4.886   7.843 -0.6639  0.2016  0.3994
  176SAPI  H10R20035   6.510   4.887   7.735 -1.0025 -1.5887  0.2665
  176SAPI  H10S20036   6.458   4.783   7.877  1.6767 -0.5555  0.1136
  176SAPI  C21120037   6.592   4.944   7.930  0.3457  0.1585  0.2540
  176SAPI  H11R20038   6.664   5.003   7.872 -0.9622 -0.3906 -2.0323
  176SAPI  C21220039   6.611   4.939   8.067 -0.0783 -0.3521  0.2610
  176SAPI  H12R20040   6.696   4.994   8.108 -0.0577 -1.2344  1.4537
  176SAPI  C21320041   6.530   4.867   8.165 -0.2142  0.7056 -0.0916
  176SAPI  H13R20042   6.444   4.825   8.108 -0.3090 -1.0536  1.2779
  176SAPI  H13S20043   6.470   4.934   8.231 -1.6690  0.5176 -1.1557
  176SAPI  C21420044   6.593   4.747   8.226  0.6505  0.0334 -0.4199
  176SAPI  H14R20045   6.601   4.660   8.159 -2.1176 -0.3641 -0.3575
  176SAPI  C21520046   6.624   4.738   8.364  0.0737 -0.3864  0.9715
  176SAPI  H15R20047   6.661   4.644   8.408 -1.4836 -1.5163 -0.0054
  176SAPI  C21620048   6.606   4.848   8.467  0.4488 -0.4016 -1.1993
  176SAPI  H16R20049   6.540   4.927   8.426  0.6698 -0.2425 -1.2547
  176SAPI  H16S20050   6.698   4.905   8.492  1.3126 -2.2061 -0.0384
  176SAPI  C21720051   6.549   4.788   8.600  0.3344  0.6743 -0.6778
  176SAPI  H17R20052   6.628   4.718   8.636 -0.1330  0.8484  0.7375
  176SAPI  H17S20053   6.469   4.720   8.564 -0.2448  0.3957  1.0311
  176SAPI  C21820054   6.523   4.885   8.719  0.6325 -0.5433 -0.1387
  176SAPI  H18R20055   6.435   4.945   8.686  0.0565 -2.0360 -1.4319
  176SAPI  H18S20056   6.612   4.947   8.744 -0.7459  1.8141 -0.7598
  176SAPI  C21920057   6.467   4.801   8.834  0.0354 -0.1041 -0.4042
  176SAPI  H19R20058   6.539   4.720   8.857 -0.6835 -0.5094  0.5010
  176SAPI  H19S20059   6.373   4.749   8.805  0.1453 -0.6196  0.1652
  176SAPI  C22020060   6.433   4.889   8.956  0.2454 -0.7736  0.0237
  176SAPI  H20R20061   6.377   4.823   9.026  0.3745 -0.6194  0.2722
  176SAPI  H20S20062   6.351   4.959   8.927  2.8921  1.4043 -2.9198
  176SAPI  H20T20063   6.523   4.937   9.000  0.1565  1.6630 -2.1965
  176SAPI   C3320064   5.690   4.921   7.307 -0.1856 -0.9631 -0.0480
  176SAPI   H3X20065   5.733   4.819   7.312  1.3536 -0.3516 -0.1969
  176SAPI   H3Y20066   5.605   4.928   7.236  1.1237  1.2827 -1.5020
  176SAPI   C3420067   5.649   4.989   7.438 -0.2263 -0.4193 -0.4167
  176SAPI   H4X20068   5.540   4.966   7.447 -0.4095  0.7637  0.7546
  176SAPI   H4Y20069   5.666   5.098   7.423  0.1703 -0.0500  2.1913
  176SAPI   C3520070   5.726   4.942   7.565 -0.1777  0.4719 -0.3798
  176SAPI   H5X20071   5.828   4.984   7.550 -0.6809  1.5941 -0.7986
  176SAPI   H5Y20072   5.741   4.833   7.576 -3.1067 -0.3292 -2.9499
  176SAPI   C3620073   5.676   4.986   7.704 -0.2560 -0.4116 -0.3081
  176SAPI   H6X20074   5.590   4.926   7.740  0.2236 -0.8583  0.1123
  176SAPI   H6Y20075   5.658   5.095   7.692 -0.1788 -0.3006  0.5660
  176SAPI   C3720076   5.782   4.975   7.827 -0.0799 -0.3608  0.9011
  176SAPI   H7X20077   5.863   5.050   7.819 -1.2619  1.5969  4.8824
  176SAPI   H7Y20078   5.828   4.874   7.824 -0.6256 -0.5945 -0.5136
  176SAPI   C3820079   5.715   4.980   7.961 -0.3277  0.3749 -0.5962
  176SAPI   H8X20080   5.628   4.912   7.952 -0.1457 -0.2762  1.9608
  176SAPI   H8Y20081   5.680   5.084   7.981 -2.2801 -0.5296  1.0380
  176SAPI   C3920082   5.785   4.921   8.086 -0.5357 -0.4800 -0.0462
  176SAPI   H9X20083   5.890   4.958   8.089 -0.3551 -0.8619 -1.1037
  176SAPI   H9Y20084   5.787   4.811   8.078 -1.0635 -0.7625  2.9049
  176SAPI  C31020085   5.697   4.947   8.211 -0.1600  0.2383 -0.4615
  176SAPI  H10X20086   5.601   4.896   8.186  1.1438 -1.6101 -2.0353
  176SAPI  H10Y20087   5.678   5.055   8.226 -0.4262  0.2140 -0.6113
  176SAPI  C31120088   5.751   4.880   8.347  0.2584 -0.4674  0.4157
  176SAPI  H11X20089   5.840   4.945   8.364  0.6035 -0.9523  0.4954
  176SAPI  H11Y20090   5.782   4.778   8.315 -0.2688  0.1483 -2.2492
  176SAPI  C31220091   5.663   4.864   8.470  0.5745 -0.7537 -0.0147
  176SAPI  H12X20092   5.570   4.811   8.441 -0.7783  1.6768 -0.3436
  176SAPI  H12Y20093   5.637   4.970   8.491  3.5306  0.0560  0.0017
  176SAPI  C31320094   5.722   4.815   8.602 -0.5661 -0.7443  0.3564
  176SAPI  H13X20095   5.788   4.900   8.629 -2.0596  0.3293  0.7057
  176SAPI  H13Y20096   5.795   4.732   8.592  0.1776  0.0086 -0.7340
  176SAPI  C31420097   5.620   4.782   8.719 -0.2510 -0.3633 -0.8386
  176SAPI  H14X20098   5.546   4.865   8.719  1.8095  1.7556  3.0007
  176SAPI  H14Y20099   5.669   4.767   8.817 -1.2484  0.9731 -0.1145
  176SAPI  C31520100   5.530   4.656   8.696  0.3141  0.1233  0.2482
  176SAPI  H15X20101   5.603   4.573   8.697 -0.3659 -0.4921  1.2558
  176SAPI  H15Y20102   5.482   4.670   8.597  3.6642  2.2069 -1.2634
  176SAPI  C31620103   5.422   4.631   8.804 -0.3247 -0.0103 -0.1214
  176SAPI  H16X20104   5.358   4.721   8.822 -1.6021 -0.9081  0.0014
  176SAPI  H16Y20105   5.466   4.617   8.905 -0.8031  1.3220  0.3003
  176SAPI  C31720106   5.349   4.503   8.754 -0.3406 -0.4676 -1.0945
  176SAPI  H17X20107   5.418   4.417   8.742  1.5333  0.9921 -1.2358
  176SAPI  H17Y20108   5.303   4.527   8.656  3.2009  2.0144 -2.3591
  176SAPI  C31820109   5.247   4.472   8.870  0.1928  0.1423 -0.5621
  176SAPI  H18X20110   5.207   4.371   8.848 -0.2114  0.0524  0.5498
  176SAPI  H18Y20111   5.167   4.548   8.871 -1.6091 -1.6661 -0.8481
  176SAPI  H18Z20112   5.296   4.470   8.969 -0.4985  1.4576 -0.1698
  177SLPC     N20113   3.460   0.712  11.079  0.6691 -0.5091  0.3132
  177SLPC   C1320114   3.451   0.804  11.202  0.0202 -0.6342  0.2276
  177SLPC  H13A20115   3.547   0.832  11.243 -0.3473 -0.6538  1.1311
  177SLPC  H13B20116   3.399   0.899  11.194  0.9144  0.0151  1.6319
  177SLPC  H13C20117   3.398   0.745  11.276  1.0385 -0.6454  0.9661
  177SLPC   C1420118   3.544   0.772  10.977 -0.3142 -0.1274  0.6238
  177SLPC  H14A20119   3.647   0.746  10.995 -0.7895 -2.4530  0.2892
  177SLPC  H14B20120   3.528   0.724  10.882 -0.9326 -3.1590  2.1041
  177SLPC  H14C20121   3.527   0.876  10.956  0.8038 -0.3249 -1.4731
  177SLPC   C1520122   3.317   0.703  11.032 -0.1488  0.1181  0.0707
  177SLPC  H15A20123   3.263   0.796  11.029 -3.9470 -1.8759  0.2972
  177SLPC  H15B20124   3.292   0.655  10.939 -1.0376  0.2155  0.2550
  177SLPC  H15C20125   3.261   0.639  11.099 -0.0718 -2.4096 -2.1142
  177SLPC   C1220126   3.516   0.572  11.111  0.0338  0.6936 -0.3941
  177SLPC  H12A20127   3.522   0.510  11.023 -0.5934  0.5462 -0.3397
  177SLPC  H12B20128   3.445   0.524  11.177  0.3246 -0.3300 -0.8009
  177SLPC   C1120129   3.651   0.555  11.193  0.3867  0.2506  0.4368
  177SLPC  H11A20130   3.670   0.452  11.230  3.2209 -0.4089 -2.4197
  177SLPC  H11B20131   3.630   0.619  11.282 -2.2536 -2.3579  1.8462
  177SLPC     P20132   3.826   0.493  11.022 -0.0469 -0.0350 -0.3168
  177SLPC   O1320133   3.899   0.385  11.103  0.5563  0.3127 -0.1904
  177SLPC   O1420134   3.720   0.446  10.932  0.6103  0.5783 -0.0015
  177SLPC   O1220135   3.768   0.602  11.117  0.2230 -0.3266  0.0383
  177SLPC   O1120136   3.922   0.574  10.934  0.4521  0.2480 -0.0665
  177SLPC    C120137   3.877   0.673  10.840 -0.3213 -0.5792  0.4866
  177SLPC    HA20138   3.767   0.677  10.829 -0.2526  0.0990 -0.0032
  177SLPC    HB20139   3.909   0.771  10.880  0.5183 -0.5969 -0.0953
  177SLPC    C220140   3.934   0.635  10.698 -0.7477  0.7965 -0.5654
  177SLPC    HS20141   3.892   0.704  10.622 -1.4523 -1.2826 -2.1712
  177SLPC   O2120142   3.890   0.503  10.673  0.2449  0.2372  0.0769
  177SLPC   C2120143   3.760   0.486  10.633 -0.1827 -0.7797  1.2359
  177SLPC   O2220144   3.677   0.572  10.613 -0.4441 -0.3437  0.2113
  177SLPC   C2220145   3.742   0.333  10.622  0.0436 -0.7311  0.6763
  177SLPC   H2R20146   3.841   0.282  10.618 -0.3175 -1.5109  1.3660
  177SLPC   H2S20147   3.705   0.287  10.716  1.3329 -0.4343  1.3501
  177SLPC    C320148   4.097   0.640  10.684  0.3901 -0.3719 -0.3542
  177SLPC    HX20149   4.135   0.548  10.732  2.1486  0.7993  0.6116
  177SLPC    HY20150   4.135   0.725  10.746 -1.8520  0.1379  0.4194
  177SLPC   O3120151   4.136   0.657  10.555 -0.2394  0.4136 -0.5235
  177SLPC   C3120152   4.268   0.670  10.539  0.9072  0.0787  0.9740
  177SLPC   O3220153   4.355   0.674  10.623 -0.1571 -0.5297  0.1842
  177SLPC   C3220154   4.301   0.687  10.397 -0.0899  0.0342 -0.2306
  177SLPC   H2X20155   4.210   0.696  10.334 -1.3480 -3.2344  0.9517
  177SLPC   H2Y20156   4.353   0.591  10.378  3.3312  0.9275  3.3377
  177SLPC   C2320157   3.660   0.299  10.496  0.4800 -0.3107  0.1536
  177SLPC   H3R20158   3.573   0.362  10.523 -0.3321 -1.3713  0.0632
  177SLPC   H3S20159   3.620   0.198  10.518 -0.3244 -0.5241 -2.0995
  177SLPC   C2420160   3.717   0.320  10.356  0.2717 -0.8734  0.5448
  177SLPC   H4R20161   3.825   0.294  10.360  0.9674  1.6472  0.2706
  177SLPC   H4S20162   3.718   0.430  10.335 -1.5924 -1.2290 -1.8885
  177SLPC   C2520163   3.635   0.238  10.261  0.1071 -0.2438  0.5532
  177SLPC   H5R20164   3.536   0.282  10.236 -0.5805 -1.6944  0.6031
  177SLPC   H5S20165   3.611   0.138  10.303 -0.6439 -0.4139 -0.2489
  177SLPC   C2620166   3.704   0.220  10.124  0.1180 -0.5271 -0.8794
  177SLPC   H6R20167   3.726   0.113  10.105  1.0809 -0.7899  1.2901
  177SLPC   H6S20168   3.805   0.266  10.129 -0.0273 -0.1102 -1.7131
  177SLPC   C2720169   3.645   0.271   9.993  0.1353  0.2719  0.8706
  177SLPC   H7R20170   3.610   0.375  10.010  1.6869  0.9185  0.1927
  177SLPC   H7S20171   3.560   0.201   9.975 -0.6291  0.5241  3.1474
  177SLPC   C2820172   3.743   0.271   9.879 -0.4920  0.1913  0.4317
  177SLPC   H8R20173   3.778   0.167   9.865 -1.9271 -0.0354 -2.2517
  177SLPC   H8S20174   3.814   0.350   9.911 -2.2957  3.0550 -2.1283
  177SLPC   C2920175   3.682   0.327   9.755 -0.1574  0.3249 -0.0583
  177SLPC   H9R20176   3.622   0.418   9.769  1.1574  1.2379 -0.1778
  177SLPC  C21020177   3.705   0.283   9.633  0.2353 -0.3068  0.4910
  177SLPC  H10R20178   3.670   0.346   9.550 -1.4929 -1.3479  0.3965
  177SLPC  C21120179   3.799   0.170   9.595  0.9717  0.8902 -0.3945
  177SLPC  H11R20180   3.877   0.154   9.672 -0.5710  1.6306  1.3851
  177SLPC  H11S20181   3.738   0.078   9.584 -0.0747  1.7210 -1.9183
  177SLPC  C21220182   3.871   0.196   9.461  0.4648 -0.0360 -0.3414
  177SLPC  H12R20183   3.950   0.273   9.457  0.1069  0.4574  1.3048
  177SLPC  C21320184   3.854   0.129   9.344  0.2988 -0.7506  0.4352
  177SLPC  H13R20185   3.910   0.165   9.257  0.3618  1.9885  1.5273
  177SLPC  C21420186   3.760   0.015   9.316  0.3821 -0.3318  0.4818
  177SLPC  H14R20187   3.662   0.059   9.286  1.0596  2.8507  2.4639
  177SLPC  H14S20188   3.750  -0.047   9.408  1.7553 -0.6902  0.4066
  177SLPC  C21520189   3.800  -0.081   9.200 -0.3702  0.0285 -0.0152
  177SLPC  H15R20190   3.895  -0.133   9.225  0.1076  0.3790 -1.0299
  177SLPC  H15S20191   3.820  -0.032   9.102  1.0378  0.1035  0.2895
  177SLPC  C21620192   3.685  -0.181   9.175 -0.7415 -0.2057 -0.2065
  177SLPC  H16R20193   3.591  -0.122   9.176  0.4674  1.9357  2.4206
  177SLPC  H16S20194   3.683  -0.243   9.267 -3.5269  0.7752  0.4900
  177SLPC  C21720195   3.706  -0.279   9.059 -0.2904 -0.2360  0.3209
  177SLPC  H17R20196   3.816  -0.294   9.060 -0.5672 -2.9817  0.0688
  177SLPC  H17S20197   3.685  -0.224   8.965 -1.2225  1.6440  1.5861
  177SLPC  C21820198   3.641  -0.416   9.053 -0.3025 -0.2745  0.0594
  177SLPC  H18R20199   3.534  -0.409   9.083 -0.5071 -1.3098 -0.3845
  177SLPC  H18S20200   3.680  -0.487   9.129  0.8982 -0.0865 -0.3552
  177SLPC  H18T20201   3.650  -0.457   8.950 -2.0109  3.6322 -1.8546
  177SLPC   C3320202   4.396   0.814  10.375  0.5889  0.1945 -1.2342
  177SLPC   H3X20203   4.492   0.813  10.432  1.0271  0.7700 -1.9351
  177SLPC   H3Y20204   4.344   0.903  10.417  0.5708 -0.3602 -0.0470
  177SLPC   C3420205   4.429   0.836  10.235 -0.5217  0.6196  0.1152
  177SLPC   H4X20206   4.494   0.926  10.239  0.5528 -0.1437  0.2051
  177SLPC   H4Y20207   4.340   0.858  10.172 -0.6567 -0.0989  0.0561
  177SLPC   C3520208   4.514   0.716  10.179 -0.5158 -1.1220  0.4281
  177SLPC   H5X20209   4.443   0.634  10.152 -1.4376 -0.5608  1.0851
  177SLPC   H5Y20210   4.579   0.673  10.258  1.2317  0.4133 -0.1079
  177SLPC   C3620211   4.600   0.729  10.047 -0.8246 -0.7984 -0.1537
  177SLPC   H6X20212   4.625   0.627  10.011 -0.6907 -0.3347 -1.4028
  177SLPC   H6Y20213   4.696   0.771  10.085 -3.0840  0.8996  4.4597
  177SLPC   C3720214   4.527   0.797   9.929  0.1430 -0.0819 -0.1283
  177SLPC   H7X20215   4.487   0.898   9.950 -1.1421 -0.2259 -1.6010
  177SLPC   H7Y20216   4.432   0.741   9.913 -0.4179  0.5090  1.0292
  177SLPC   C3820217   4.607   0.793   9.796 -0.4177 -0.8710 -0.3839
  177SLPC   H8X20218   4.592   0.686   9.770 -2.9742 -0.8311  0.5794
  177SLPC   H8Y20219   4.716   0.812   9.798 -0.5070  0.7503 -3.9824
  177SLPC   C3920220   4.554   0.885   9.691  0.5924 -0.2339  0.0669
  177SLPC   H9X20221   4.606   0.860   9.596 -1.2462 -0.2981 -0.9721
  177SLPC   H9Y20222   4.578   0.987   9.728 -2.0036  0.5016 -0.0939
  177SLPC  C31020223   4.396   0.888   9.673 -0.9223 -0.0249 -0.2429
  177SLPC  H10X20224   4.340   0.925   9.761 -3.6952 -0.7707 -1.5824
  177SLPC  H10Y20225   4.355   0.785   9.663 -0.7228 -0.1450  0.1438
  177SLPC  C31120226   4.363   0.975   9.556  1.3917  0.2077  0.3685
  177SLPC  H11X20227   4.425   0.965   9.464 -0.5903 -0.4775 -0.9607
  177SLPC  H11Y20228   4.380   1.084   9.574 -0.3807  0.4080  1.0222
  177SLPC  C31220229   4.218   0.969   9.505  0.4978  0.1315 -0.3343
  177SLPC  H12X20230   4.138   0.951   9.580 -2.2706  0.6158 -2.9634
  177SLPC  H12Y20231   4.191   0.889   9.434 -4.2643 -1.3616  2.7091
  177SLPC  C31320232   4.174   1.104   9.446  0.1805  0.3541 -1.0538
  177SLPC  H13X20233   4.240   1.109   9.356 -0.0387  1.1609 -1.1763
  177SLPC  H13Y20234   4.200   1.195   9.505 -1.1584 -1.3134  2.3397
  177SLPC  C31420235   4.028   1.111   9.399 -0.1472 -0.0701 -0.2328
  177SLPC  H14X20236   4.010   1.215   9.362 -0.1363  0.1359  0.3375
  177SLPC  H14Y20237   3.965   1.100   9.490  1.6375  0.7492  1.1577
  177SLPC  C31520238   3.979   1.015   9.290  0.4544 -0.9541  0.3751
  177SLPC  H15X20239   3.871   1.035   9.275  0.7988  0.0503 -1.0409
  177SLPC  H15Y20240   4.002   0.911   9.320 -0.5959 -1.7259 -1.3059
  177SLPC  C31620241   4.048   1.046   9.151  0.3577  0.4010 -0.5668
  177SLPC  H16X20242   4.149   1.001   9.140 -0.4922 -2.7529  2.7092
  177SLPC  H16Y20243   4.066   1.156   9.154  1.9685  0.1806 -0.9164
  177SLPC  C31720244   3.951   1.015   9.030  0.5765 -0.1606  0.4094
  177SLPC  H17X20245   3.853   1.055   9.063  0.4499  1.5442 -1.7233
  177SLPC  H17Y20246   3.948   0.904   9.027 -0.8224 -0.1723  1.1729
  177SLPC  C31820247   3.993   1.074   8.906 -0.2591  0.1400  0.0738
  177SLPC  H18X20248   4.094   1.035   8.881 -0.0019  1.1507 -0.4950
  177SLPC  H18Y20249   3.987   1.184   8.893  0.6952  0.0573 -1.2044
  177SLPC  H18Z20250   3.929   1.021   8.832  0.8289 -0.9209 -0.1363
  178SLPC     N20251   6.391   1.782  11.279  0.7590 -0.0455  0.3071
  178SLPC   C1320252   6.362   1.642  11.330  0.0271  0.3423  0.6837
  178SLPC  H13A20253   6.255   1.625  11.327  0.2811 -1.2799 -1.5876
  178SLPC  H13B20254   6.415   1.573  11.266  1.0607  0.9287  0.8765
  178SLPC  H13C20255   6.407   1.622  11.426  3.6353 -1.3982 -1.1797
  178SLPC   C1420256   6.534   1.799  11.251  0.2012 -0.6810 -0.1282
  178SLPC  H14A20257   6.576   1.719  11.192 -0.1215 -1.5734  0.8288
  178SLPC  H14B20258   6.549   1.895  11.205 -0.7645 -1.6882 -2.6751
  178SLPC  H14C20259   6.588   1.798  11.345  0.1744 -1.1467 -0.1159
  178SLPC   C1520260   6.342   1.875  11.391  0.6424 -0.4495  0.1898
  178SLPC  H15A20261   6.375   1.977  11.377 -1.0888  0.2643  1.0517
  178SLPC  H15B20262   6.236   1.868  11.409  0.6369  0.5121  0.5994
  178SLPC  H15C20263   6.398   1.846  11.479  2.7371  0.7543 -0.6566
  178SLPC   C1220264   6.309   1.804  11.148 -0.3784  0.1325 -0.3813
  178SLPC  H12A20265   6.207   1.774  11.164  0.3836 -1.8688  1.2813
  178SLPC  H12B20266   6.350   1.740  11.071 -1.9387  0.7714 -1.7811
  178SLPC   C1120267   6.311   1.941  11.086 -0.6688 -0.4775 -0.0791
  178SLPC  H11A20268   6.285   2.014  11.166 -0.5559  0.5262 -0.9317
  178SLPC  H11B20269   6.243   1.950  10.999 -0.4173  0.2673 -0.2034
  178SLPC     P20270   6.506   1.918  10.922  0.4239 -0.3538  0.2750
  178SLPC   O1320271   6.651   1.957  10.922 -0.1112  0.1048  0.3607
  178SLPC   O1420272   6.473   1.772  10.911 -0.0738 -0.9110 -0.2846
  178SLPC   O1220273   6.441   1.987  11.048  0.6721  0.1726 -0.0702
  178SLPC   O1120274   6.438   1.990  10.800 -0.3167  0.3357 -0.6982
  178SLPC    C120275   6.469   2.128  10.778 -0.0553  0.2569  0.3162
  178SLPC    HA20276   6.442   2.190  10.866  1.2551  0.1423  0.8323
  178SLPC    HB20277   6.579   2.136  10.759  0.5110 -2.0853  2.1018
  178SLPC    C220278   6.376   2.181  10.664 -0.4551 -0.5510 -0.2790
  178SLPC    HS20279   6.275   2.152  10.701 -0.9211 -0.0963 -1.1679
  178SLPC   O2120280   6.427   2.115  10.547  0.3960 -0.0634 -0.0757
  178SLPC   C2120281   6.339   2.056  10.473 -0.2070  0.2248 -0.3730
  178SLPC   O2220282   6.214   2.059  10.481 -0.0454  0.4192  0.2689
  178SLPC   C2220283   6.414   1.981  10.364 -0.3138  0.0155  0.1777
  178SLPC   H2R20284   6.446   2.073  10.310 -1.0540  0.0124 -0.2860
  178SLPC   H2S20285   6.502   1.922  10.397 -0.3280 -1.0501 -1.5545
  178SLPC    C320286   6.375   2.336  10.650 -0.0614  0.2308  0.2953
  178SLPC    HX20287   6.318   2.373  10.739 -2.3024  0.6682 -1.2171
  178SLPC    HY20288   6.317   2.357  10.557 -0.5790  0.2087  0.6055
  178SLPC   O3120289   6.507   2.383  10.651  0.3326 -0.0919 -0.2351
  178SLPC   C3120290   6.564   2.399  10.530  0.6679  0.6423  0.2086
  178SLPC   O3220291   6.507   2.375  10.426 -0.2954  0.1999  1.0917
  178SLPC   C3220292   6.712   2.453  10.536 -0.1303  0.4332 -0.1142
  178SLPC   H2X20293   6.750   2.392  10.620 -1.6251 -0.7464 -0.2511
  178SLPC   H2Y20294   6.724   2.564  10.539  2.1337  0.2837 -1.1060
  178SLPC   C2320295   6.325   1.906  10.262 -0.6103  0.2625 -0.3516
  178SLPC   H3R20296   6.235   1.961  10.225 -1.5745 -0.6435  0.5938
  178SLPC   H3S20297   6.292   1.804  10.292 -0.8222 -0.2469 -2.1709
  178SLPC   C2420298   6.417   1.877  10.137  0.3593  0.5484  0.4832
  178SLPC   H4R20299   6.515   1.826  10.153  0.0509 -0.4909 -0.7366
  178SLPC   H4S20300   6.442   1.974  10.089 -0.2447  0.6766  0.4162
  178SLPC   C2520301   6.338   1.783  10.044 -0.2620 -0.3110  0.0396
  178SLPC   H5R20302   6.245   1.837  10.015 -1.3306 -1.8260  0.5650
  178SLPC   H5S20303   6.303   1.692  10.097  2.1266 -0.5480  1.3067
  178SLPC   C2620304   6.429   1.740   9.926 -0.1056 -0.4324  0.2824
  178SLPC   H6R20305   6.463   1.835   9.879 -0.3433  1.0086  2.8347
  178SLPC   H6S20306   6.366   1.679   9.858  0.7128 -0.9638 -0.0194
  178SLPC   C2720307   6.541   1.641   9.962  0.1534 -0.1203 -0.2072
  178SLPC   H7R20308   6.498   1.555  10.018 -0.1719  1.4325  2.0729
  178SLPC   H7S20309   6.619   1.695  10.021  1.9464 -2.4389 -0.2984
  178SLPC   C2820310   6.606   1.585   9.831 -0.7779  0.1364  0.3321
  178SLPC   H8R20311   6.524   1.556   9.762 -1.5647  0.3252  1.1767
  178SLPC   H8S20312   6.671   1.498   9.858 -0.5653  0.6238  1.4193
  178SLPC   C2920313   6.694   1.695   9.770 -0.0475 -0.0182 -0.3107
  178SLPC   H9R20314   6.774   1.735   9.834 -1.5019  0.6880  1.1091
  178SLPC  C21020315   6.688   1.737   9.643 -0.8726 -0.1128 -0.6838
  178SLPC  H10R20316   6.762   1.815   9.621 -1.1647 -0.0506 -1.4938
  178SLPC  C21120317   6.598   1.690   9.532  0.3741 -0.4637 -0.6856
  178SLPC  H11R20318   6.496   1.721   9.562 -1.0949 -3.4758 -2.1481
  178SLPC  H11S20319   6.614   1.581   9.524  0.5865 -0.4684 -0.2448
  178SLPC  C21220320   6.640   1.741   9.401 -0.4010 -0.1368  1.0362
  178SLPC  H12R20321   6.748   1.754   9.387 -0.5041  1.7787  1.7349
  178SLPC  C21320322   6.556   1.756   9.291  0.0201 -0.3946 -0.1767
  178SLPC  H13R20323   6.589   1.780   9.188  0.0967 -2.8942 -0.8040
  178SLPC  C21420324   6.407   1.739   9.283  0.1941  0.4538  0.0367
  178SLPC  H14R20325   6.370   1.829   9.231 -1.7252  0.3062  1.0517
  178SLPC  H14S20326   6.370   1.729   9.388  0.7654  0.0195  0.2018
  178SLPC  C21520327   6.372   1.604   9.210  0.1088 -0.0439 -0.0838
  178SLPC  H15R20328   6.261   1.601   9.221 -0.0005  1.6998 -0.4549
  178SLPC  H15S20329   6.408   1.516   9.268  2.7815 -0.5056 -2.2206
  178SLPC  C21620330   6.408   1.595   9.059  0.1872 -0.5582  0.3714
  178SLPC  H16R20331   6.349   1.507   9.024 -1.5628  0.0182  1.7080
  178SLPC  H16S20332   6.517   1.580   9.047  0.3310  0.9565 -0.4188
  178SLPC  C21720333   6.358   1.707   8.979 -0.9169 -0.1813 -0.3682
  178SLPC  H17R20334   6.394   1.811   8.998 -0.4797 -0.5258  0.7225
  178SLPC  H17S20335   6.249   1.713   9.000 -0.9429  0.5297 -0.6712
  178SLPC  C21820336   6.353   1.682   8.830  0.7313 -0.0534  0.9020
  178SLPC  H18R20337   6.452   1.706   8.786 -0.0540  1.0397 -0.3194
  178SLPC  H18S20338   6.276   1.750   8.789  2.2244  0.1846 -1.6877
  178SLPC  H18T20339   6.312   1.581   8.809 -1.5839  1.3319 -1.8485
  178SLPC   C3320340   6.803   2.405  10.416  0.4236 -0.1809 -0.4311
  178SLPC   H3X20341   6.792   2.295  10.401 -0.8880 -0.1405  0.0943
  178SLPC   H3Y20342   6.907   2.425  10.448  0.0249  0.1536  0.6737
  178SLPC   C3420343   6.766   2.471  10.279 -0.1166 -0.0238  0.3054
  178SLPC   H4X20344   6.769   2.582  10.293 -0.8838  0.0279  0.0549
  178SLPC   H4Y20345   6.664   2.444  10.247  0.2904  0.6588 -1.7237
  178SLPC   C3520346   6.867   2.447  10.168 -0.1824 -0.2923 -0.0242
  178SLPC   H5X20347   6.909   2.345  10.183  0.5945  0.2721  1.8292
  178SLPC   H5Y20348   6.957   2.511  10.178  0.5589 -1.3607  0.3042
  178SLPC   C3620349   6.815   2.457  10.025  0.1669 -0.4499 -0.4013
  178SLPC   H6X20350   6.758   2.552  10.018 -1.7726 -1.5290  0.0955
  178SLPC   H6Y20351   6.747   2.371  10.008  0.0254  0.0051 -2.4217
  178SLPC   C3720352   6.923   2.460   9.917 -0.0165 -0.1450 -0.2707
  178SLPC   H7X20353   6.983   2.367   9.918  0.4657  0.1631  0.1570
  178SLPC   H7Y20354   6.994   2.544   9.933  1.8767 -2.0557  2.1478
  178SLPC   C3820355   6.867   2.478   9.770  0.7050 -0.2908 -0.0475
  178SLPC   H8X20356   6.795   2.562   9.781 -0.2272 -0.8770 -1.3732
  178SLPC   H8Y20357   6.820   2.385   9.733  0.3212  0.3880 -1.3206
  178SLPC   C3920358   6.970   2.516   9.665 -0.3316  0.6087 -0.2188
  178SLPC   H9X20359   7.039   2.433   9.688 -0.7833  0.0607 -0.7876
  178SLPC   H9Y20360   7.018   2.616   9.677 -0.3846  0.4520  1.4601
  178SLPC  C31020361   6.920   2.491   9.524 -0.7439  0.0870  0.2411
  178SLPC  H10X20362   6.839   2.567   9.515  1.1771  2.1812 -0.1093
  178SLPC  H10Y20363   6.874   2.391   9.507 -2.4499  1.0280 -1.0786
  178SLPC  C31120364   7.025   2.544   9.425 -0.4376 -0.6435 -0.3248
  178SLPC  H11X20365   7.113   2.476   9.428  0.9138  1.0539 -0.3432
  178SLPC  H11Y20366   7.056   2.644   9.462 -1.0324 -1.0797  1.4515
  178SLPC  C31220367   6.961   2.567   9.285 -0.5839 -0.4084  0.2362
  178SLPC  H12X20368   6.876   2.636   9.302  2.1208  3.6134 -1.2051
  178SLPC  H12Y20369   6.917   2.472   9.248  0.3237 -0.5339 -0.5696
  178SLPC  C31320370   7.048   2.637   9.181  0.2006  0.1990  0.2273
  178SLPC  H13X20371   7.132   2.569   9.156 -0.3744 -1.0381  1.4910
  178SLPC  H13Y20372   7.072   2.733   9.231 -1.2606 -0.3314  2.0720
  178SLPC  C31420373   6.971   2.672   9.052 -0.2712 -0.2784 -0.5946
  178SLPC  H14X20374   6.884   2.741   9.065  0.7530  0.6828  1.6108
  178SLPC  H14Y20375   6.933   2.575   9.013 -0.7121  0.1006 -1.1285
  178SLPC  C31520376   7.063   2.732   8.944  0.8309 -0.3992 -0.3463
  178SLPC  H15X20377   7.106   2.826   8.983 -1.8149  0.2339  1.2302
  178SLPC  H15Y20378   7.152   2.667   8.927  2.1389  1.3001 -0.1595
  178SLPC  C31620379   6.985   2.762   8.819  0.6332  0.2328  0.3347
  178SLPC  H16X20380   6.890   2.804   8.860  1.3903  1.9314  0.4639
  178SLPC  H16Y20381   6.947   2.665   8.781 -1.0119  0.5493  1.0923
  178SLPC  C31720382   7.050   2.857   8.719 -0.3509 -0.9161  0.3314
  178SLPC  H17X20383   7.107   2.940   8.764 -4.7943  0.8012  3.4894
  178SLPC  H17Y20384   6.968   2.909   8.666  1.1853  0.6448 -0.6219
  178SLPC  C31820385   7.153   2.785   8.624  0.4642  0.1269  0.4907
  178SLPC  H18X20386   7.186   2.843   8.535  2.4017 -0.3316  0.8788
  178SLPC  H18Y20387   7.095   2.700   8.582 -2.0496  1.2973  1.3593
  178SLPC  H18Z20388   7.236   2.746   8.686  1.3889  0.5274 -0.4749
  179SLPC     N20389   0.354   4.884  10.873  0.1784  0.5808  0.2036
  179SLPC   C1320390   0.498   4.849  10.903  0.1070 -0.0506  0.4138
  179SLPC  H13A20391   0.514   4.748  10.867 -1.1884  0.5823 -2.1573
  179SLPC  H13B20392   0.568   4.905  10.842 -1.8516  0.3914 -1.5586
  179SLPC  H13C20393   0.518   4.855  11.009  0.9854  0.5296  0.2276
  179SLPC   C1420394   0.331   5.036  10.903 -0.4063  0.4133  0.4606
  179SLPC  H14A20395   0.233   5.065  10.867 -0.1421 -0.8649 -1.4461
  179SLPC  H14B20396   0.339   5.071  11.005 -0.1981  2.6559 -0.2749
  179SLPC  H14C20397   0.399   5.096  10.845  1.9776 -0.3256  2.3588
  179SLPC   C1520398   0.260   4.797  10.964  0.4936  0.0033 -0.1656
  179SLPC  H15A20399   0.287   4.805  11.068  0.7169 -0.7207 -0.1599
  179SLPC  H15B20400   0.155   4.820  10.950 -0.1063 -2.1116  0.4365
  179SLPC  H15C20401   0.281   4.693  10.946 -0.2734 -0.2217  0.2064
  179SLPC   C1220402   0.337   4.846  10.724  0.0003  0.2650  0.3307
  179SLPC  H12A20403   0.232   4.850  10.702  0.3819 -1.6044 -2.3079
  179SLPC  H12B20404   0.366   4.744  10.706  0.9403  0.9172 -2.4784
  179SLPC   C1120405   0.416   4.919  10.612 -0.1279  1.2611  0.9829
  179SLPC  H11A20406   0.389   4.882  10.511  0.7209  0.6403  0.9735
  179SLPC  H11B20407   0.523   4.889  10.622  0.1735  1.8619 -0.2551
  179SLPC     P20408   0.304   5.147  10.550 -0.2134 -0.2242  0.0813
  179SLPC   O1320409   0.182   5.076  10.518 -0.1219  0.6366  0.6013
  179SLPC   O1420410   0.299   5.281  10.625  0.3774  0.4077  0.5056
  179SLPC   O1220411   0.400   5.053  10.631  0.0006  0.3863  0.7195
  179SLPC   O1120412   0.396   5.151  10.413  0.0673 -0.0927  0.2421
  179SLPC    C120413   0.528   5.205  10.431 -0.3908  0.7530 -0.0081
  179SLPC    HA20414   0.523   5.306  10.476 -3.4479  0.8943 -0.4271
  179SLPC    HB20415   0.577   5.130  10.496  0.7448  0.3762 -1.2427
  179SLPC    C220416   0.591   5.214  10.289  0.2785  0.1146  0.8375
  179SLPC    HS20417   0.685   5.273  10.298  1.2595 -1.1356 -0.5946
  179SLPC   O2120418   0.495   5.283  10.203  0.0627 -0.7612 -0.2744
  179SLPC   C2120419   0.492   5.415  10.226  0.6984  0.2802  0.0473
  179SLPC   O2220420   0.565   5.475  10.306  0.0015 -0.1229 -0.0810
  179SLPC   C2220421   0.386   5.480  10.140 -0.0894  1.0976  0.2203
  179SLPC   H2R20422   0.345   5.405  10.069 -0.2097 -1.8985  3.2128
  179SLPC   H2S20423   0.302   5.512  10.204 -2.1351 -1.1944 -1.1565
  179SLPC    C320424   0.631   5.071  10.241  0.2300  0.4463  1.2470
  179SLPC    HX20425   0.543   5.004  10.247  1.8689 -2.0387 -0.4654
  179SLPC    HY20426   0.701   5.029  10.316  1.7277  0.8774  0.1282
  179SLPC   O3120427   0.683   5.067  10.106 -0.7499  1.0235  0.4305
  179SLPC   C3120428   0.591   5.082  10.015  0.0928 -0.6068  0.0101
  179SLPC   O3220429   0.472   5.064  10.029  0.0139  0.0074 -0.1047
  179SLPC   C3220430   0.653   5.119   9.879 -0.3246  0.5745 -0.2775
  179SLPC   H2X20431   0.705   5.026   9.848  0.7079  1.1097 -0.1914
  179SLPC   H2Y20432   0.730   5.193   9.909 -1.0811  0.6623  1.5904
  179SLPC   C2320433   0.453   5.595  10.060  0.5290 -0.4694  0.5949
  179SLPC   H3R20434   0.535   5.550  10.000  1.5153 -0.9779  2.2590
  179SLPC   H3S20435   0.498   5.678  10.118 -0.8942  0.1421  0.8611
  179SLPC   C2420436   0.347   5.666   9.970  0.1177  0.6215 -0.0058
  179SLPC   H4R20437   0.278   5.703  10.049  1.7869  0.3337  1.6541
  179SLPC   H4S20438   0.306   5.591   9.899  2.2107 -0.6167  0.0256
  179SLPC   C2520439   0.403   5.770   9.882 -0.1062  0.0729  0.0582
  179SLPC   H5R20440   0.449   5.741   9.785 -0.8245 -1.4082  0.1220
  179SLPC   H5S20441   0.485   5.818   9.938 -0.3119 -1.9672  2.2796
  179SLPC   C2620442   0.301   5.883   9.839  0.2601  0.0573  0.1506
  179SLPC   H6R20443   0.269   5.946   9.925 -1.6821 -2.1689  1.1783
  179SLPC   H6S20444   0.205   5.835   9.812  1.5745 -2.5330 -0.2892
  179SLPC   C2720445   0.375   5.976   9.737  0.5417  0.2213  0.6818
  179SLPC   H7R20446   0.428   5.908   9.668  1.0867 -0.7870  2.0385
  179SLPC   H7S20447   0.448   6.042   9.790  2.1837  0.4344 -1.7051
  179SLPC   C2820448   0.282   6.074   9.658 -0.4219  0.2247 -0.1164
  179SLPC   H8R20449   0.335   6.158   9.609 -0.3374  0.0831 -0.2708
  179SLPC   H8S20450   0.219   6.127   9.733 -1.2179 -0.5589 -0.2198
  179SLPC   C2920451   0.191   6.002   9.562  0.8013 -0.5837  0.4176
  179SLPC   H9R20452   0.113   5.939   9.608 -1.7622 -1.5411 -4.6110
  179SLPC  C21020453   0.193   6.007   9.427  0.7027  0.1523 -0.6456
  179SLPC  H10R20454   0.113   5.954   9.373  0.5797 -0.5119  0.1697
  179SLPC  C21120455   0.287   6.090   9.343  0.3223  0.2133 -0.9234
  179SLPC  H11R20456   0.331   6.052   9.248  2.6644  2.2934 -0.7859
  179SLPC  H11S20457   0.380   6.118   9.397 -0.1310  0.6301 -0.3414
  179SLPC  C21220458   0.210   6.222   9.313 -0.2038  0.2013 -0.0996
  179SLPC  H12R20459   0.171   6.276   9.401 -2.3998 -0.5124 -0.5760
  179SLPC  C21320460   0.179   6.264   9.190  0.1225  0.2498  0.1517
  179SLPC  H13R20461   0.136   6.364   9.172 -0.5520 -0.3250 -1.6192
  179SLPC  C21420462   0.215   6.189   9.060  0.1715 -0.2819  0.3958
  179SLPC  H14R20463   0.161   6.234   8.973 -2.2737 -1.1405  1.3976
  179SLPC  H14S20464   0.183   6.083   9.051 -0.2211 -0.1408  0.0918
  179SLPC  C21520465   0.369   6.216   9.034 -0.0308  0.1118 -0.3079
  179SLPC  H15R20466   0.429   6.220   9.127  1.4685 -1.2097 -1.1633
  179SLPC  H15S20467   0.383   6.320   8.998  0.3577  0.5701  1.1205
  179SLPC  C21620468   0.426   6.125   8.926 -0.4380  0.1890  0.9277
  179SLPC  H16R20469   0.395   6.164   8.827  0.0655 -0.2086  0.6078
  179SLPC  H16S20470   0.396   6.018   8.930 -1.4096  0.4267  0.2737
  179SLPC  C21720471   0.582   6.118   8.937  0.0998  0.3238  0.8202
  179SLPC  H17R20472   0.617   6.079   9.034  3.0554  0.4684 -0.0912
  179SLPC  H17S20473   0.626   6.219   8.919 -1.6834  0.9936 -0.0282
  179SLPC  C21820474   0.648   6.020   8.841  0.1415 -0.0730 -0.2841
  179SLPC  H18R20475   0.649   6.064   8.739 -0.5611  0.1602 -0.1884
  179SLPC  H18S20476   0.600   5.920   8.842  2.6591 -1.3995  2.4598
  179SLPC  H18T20477   0.757   6.001   8.857  0.2389 -3.0744 -3.3730
  179SLPC   C3320478   0.551   5.165   9.776  0.1291  0.0260 -0.8182
  179SLPC   H3X20479   0.498   5.256   9.812  0.9613  0.2329 -0.0820
  179SLPC   H3Y20480   0.476   5.085   9.758  0.5630 -0.1361 -1.9784
  179SLPC   C3420481   0.619   5.186   9.640 -0.4074 -0.1250  0.1270
  179SLPC   H4X20482   0.670   5.090   9.616 -1.9255 -0.9362 -0.0241
  179SLPC   H4Y20483   0.680   5.279   9.645 -0.2801 -0.1378 -1.0046
  179SLPC   C3520484   0.509   5.200   9.533  0.5840  0.2008 -0.0471
  179SLPC   H5X20485   0.462   5.298   9.555  1.7302  0.2163  2.7249
  179SLPC   H5Y20486   0.434   5.119   9.543 -0.1263  0.7893 -0.4794
  179SLPC   C3620487   0.580   5.204   9.394  0.1490  0.0185 -0.8436
  179SLPC   H6X20488   0.617   5.101   9.373  2.7841  0.3924  1.3309
  179SLPC   H6Y20489   0.671   5.266   9.388  1.4712 -1.7471 -0.0482
  179SLPC   C3720490   0.476   5.226   9.284  0.1626 -0.8400  0.2928
  179SLPC   H7X20491   0.424   5.325   9.284  1.2826 -0.2236  1.9565
  179SLPC   H7Y20492   0.399   5.146   9.297  0.1592 -0.6230  1.6984
  179SLPC   C3820493   0.540   5.220   9.145 -0.3257  0.0782  0.1281
  179SLPC   H8X20494   0.622   5.295   9.141  0.3119 -0.6194 -0.1118
  179SLPC   H8Y20495   0.461   5.235   9.068 -0.0670 -0.2016 -0.1973
  179SLPC   C3920496   0.602   5.081   9.112  0.0554 -0.1765  0.3210
  179SLPC   H9X20497   0.542   4.996   9.152 -0.1620 -0.8708 -1.3894
  179SLPC   H9Y20498   0.703   5.063   9.154 -0.2547 -0.2231  1.0653
  179SLPC  C31020499   0.621   5.046   8.964  0.2048 -0.3800 -0.1626
  179SLPC  H10X20500   0.520   5.044   8.918  0.4547  1.8589 -0.9163
  179SLPC  H10Y20501   0.670   4.946   8.959  1.1657  0.0256  0.6576
  179SLPC  C31120502   0.709   5.155   8.899  0.7154 -0.4001 -0.6054
  179SLPC  H11X20503   0.806   5.161   8.954 -0.6677  3.6092  1.7875
  179SLPC  H11Y20504   0.651   5.248   8.913 -1.2704 -1.4897 -1.2503
  179SLPC  C31220505   0.736   5.136   8.743  1.1370 -0.6059  0.1816
  179SLPC  H12X20506   0.640   5.141   8.686 -0.1029  0.3878  2.2218
  179SLPC  H12Y20507   0.773   5.033   8.725 -2.2035 -2.3476  2.1993
  179SLPC  C31320508   0.832   5.240   8.688 -0.0030 -0.4990  0.3782
  179SLPC  H13X20509   0.926   5.227   8.746  0.3613  0.1312 -0.0581
  179SLPC  H13Y20510   0.797   5.344   8.706  1.6675  0.0408  0.7598
  179SLPC  C31420511   0.871   5.246   8.535 -0.2811 -0.0251 -0.1969
  179SLPC  H14X20512   0.913   5.347   8.516 -2.4787  0.6000 -2.1455
  179SLPC  H14Y20513   0.772   5.248   8.484 -0.6872  1.5010  0.5973
  179SLPC  C31520514   0.949   5.121   8.495  0.6912  0.3218  0.2124
  179SLPC  H15X20515   0.940   5.110   8.385 -1.0597 -2.2616  0.4938
  179SLPC  H15Y20516   0.908   5.033   8.550  0.4441  0.6527  0.5618
  179SLPC  C31620517   1.098   5.113   8.542  0.1122 -0.4940 -0.4119
  179SLPC  H16X20518   1.099   5.088   8.650 -0.7779 -1.0329 -0.5178
  179SLPC  H16Y20519   1.161   5.204   8.533 -1.9169  1.3321  2.1927
  179SLPC  C31720520   1.181   4.998   8.479  0.5683  0.3518 -0.0733
  179SLPC  H17X20521   1.204   5.032   8.376  0.6921 -1.4903 -0.6917
  179SLPC  H17Y20522   1.120   4.906   8.461 -0.2734  0.7503  0.6550
  179SLPC  C31820523   1.297   4.944   8.561 -0.3519  0.4317  0.3084
  179SLPC  H18X20524   1.264   4.890   8.652  1.8783  0.8159  1.4206
  179SLPC  H18Y20525   1.368   5.028   8.580  0.9293 -0.8767  1.6230
  179SLPC  H18Z20526   1.359   4.872   8.502 -2.9159 -1.3944 -0.3293
  180SLPC     N20527   0.986   4.866  10.861  0.1392  0.0489  0.3727
  180SLPC   C1320528   1.043   5.000  10.902 -0.1401 -0.1233  0.6372
  180SLPC  H13A20529   1.053   4.998  11.009 -0.5593  0.6513  0.6945
  180SLPC  H13B20530   1.140   5.016  10.857  0.2572 -2.5570  0.4769
  180SLPC  H13C20531   0.973   5.077  10.872 -0.6424 -1.5909 -2.3652
  180SLPC   C1420532   0.895   4.824  10.965  0.5922 -0.8570  0.3413
  180SLPC  H14A20533   0.952   4.791  11.051  0.0168 -3.0096 -0.0459
  180SLPC  H14B20534   0.813   4.894  10.979 -0.1530 -1.5829 -0.3175
  180SLPC  H14C20535   0.839   4.738  10.933 -2.4186  1.3513 -0.8828
  180SLPC   C1520536   1.100   4.769  10.845  0.3946 -0.1928  0.2972
  180SLPC  H15A20537   1.156   4.759  10.937 -1.9174 -2.6400  1.5753
  180SLPC  H15B20538   1.054   4.675  10.821  1.0901 -0.2580 -0.8449
  180SLPC  H15C20539   1.168   4.804  10.768 -0.0233  1.4545  0.6294
  180SLPC   C1220540   0.922   4.883  10.720  0.2674  0.0156 -0.0916
  180SLPC  H12A20541   0.983   4.920  10.639 -1.2032 -1.9070 -2.2091
  180SLPC  H12B20542   0.841   4.950  10.744 -1.8778 -2.0211 -1.2077
  180SLPC   C1120543   0.844   4.765  10.651  0.4374  0.3016  0.0685
  180SLPC  H11A20544   0.914   4.685  10.619  0.1082 -0.9543  2.2589
  180SLPC  H11B20545   0.813   4.813  10.556 -0.6097 -2.5701 -1.1649
  180SLPC     P20546   0.695   4.558  10.757  0.0263  0.0137 -0.0956
  180SLPC   O1320547   0.817   4.489  10.790 -0.2801  0.3837 -0.5097
  180SLPC   O1420548   0.589   4.560  10.859  1.1796 -0.4281 -0.2007
  180SLPC   O1220549   0.727   4.705  10.717  0.3421 -0.0469  0.0682
  180SLPC   O1120550   0.650   4.491  10.623 -0.1748  0.5866  0.4882
  180SLPC    C120551   0.513   4.520  10.584 -0.1927  0.4084 -0.9474
  180SLPC    HA20552   0.434   4.452  10.622 -0.8131  1.4482 -0.3100
  180SLPC    HB20553   0.483   4.624  10.610  1.3713  0.6979 -0.1765
  180SLPC    C220554   0.497   4.517  10.432  0.5879 -0.1920  0.0655
  180SLPC    HS20555   0.519   4.415  10.393 -1.5708 -0.5042 -0.4647
  180SLPC   O2120556   0.575   4.617  10.370  0.0769 -0.5869  0.0089
  180SLPC   C2120557   0.691   4.578  10.326 -0.3194  0.3899 -0.5820
  180SLPC   O2220558   0.738   4.466  10.331  0.3547 -0.4246 -0.7095
  180SLPC   C2220559   0.774   4.693  10.279  0.3256  0.2679 -0.5046
  180SLPC   H2R20560   0.758   4.761  10.365 -1.7909 -1.1101  0.2911
  180SLPC   H2S20561   0.877   4.654  10.288  1.2488  2.3185 -1.6408
  180SLPC    C320562   0.347   4.535  10.412  0.1691 -0.1289 -0.4171
  180SLPC    HX20563   0.321   4.637  10.448  1.7269 -0.3128  1.3885
  180SLPC    HY20564   0.286   4.462  10.469  0.9448 -0.6722 -0.2684
  180SLPC   O3120565   0.322   4.527  10.272 -0.4536 -0.1271 -0.5264
  180SLPC   C3120566   0.307   4.644  10.208  0.2667  0.1264  0.2219
  180SLPC   O3220567   0.303   4.751  10.259  0.0028 -0.1977 -0.3549
  180SLPC   C3220568   0.312   4.623  10.057 -0.5301 -0.4091 -0.0008
  180SLPC   H2X20569   0.249   4.537  10.026 -4.2578  2.4497 -1.1294
  180SLPC   H2Y20570   0.418   4.601  10.034 -0.8624 -1.4596 -0.5740
  180SLPC   C2320571   0.739   4.745  10.141 -0.3091  0.0343  0.0289
  180SLPC   H3R20572   0.798   4.835  10.116 -3.0988  1.5948 -1.4628
  180SLPC   H3S20573   0.636   4.786  10.154  0.0564  0.3879  1.9972
  180SLPC   C2420574   0.743   4.640  10.029 -0.1559 -0.6656  0.0140
  180SLPC   H4R20575   0.680   4.549  10.029 -1.1161 -0.0259 -1.0556
  180SLPC   H4S20576   0.846   4.598  10.027 -0.9143 -2.6345 -0.1567
  180SLPC   C2520577   0.717   4.702   9.886 -0.0389 -0.5458  0.7708
  180SLPC   H5R20578   0.782   4.790   9.866 -0.2119 -1.1000 -2.7846
  180SLPC   H5S20579   0.610   4.732   9.879  0.7364  2.7056  0.9730
  180SLPC   C2620580   0.759   4.610   9.765 -0.1303 -0.1723 -0.1222
  180SLPC   H6R20581   0.701   4.515   9.763 -1.5988  0.7071 -1.9599
  180SLPC   H6S20582   0.865   4.582   9.779  0.5997  0.8516 -2.9394
  180SLPC   C2720583   0.756   4.671   9.621  0.3249 -0.1368  0.0431
  180SLPC   H7R20584   0.788   4.599   9.543 -0.1711 -0.6170  0.2772
  180SLPC   H7S20585   0.818   4.763   9.624  0.1120 -0.0062  0.6392
  180SLPC   C2820586   0.616   4.705   9.576  0.4133 -0.0523  0.0109
  180SLPC   H8R20587   0.562   4.764   9.653 -1.7895  0.6187 -1.9147
  180SLPC   H8S20588   0.563   4.608   9.568  0.3902 -0.0066 -0.4162
  180SLPC   C2920589   0.615   4.782   9.448 -0.3517  0.0341  0.3957
  180SLPC   H9R20590   0.603   4.890   9.461 -0.5766 -0.1021  1.4019
  180SLPC  C21020591   0.618   4.723   9.323 -0.1023 -0.0016 -1.2025
  180SLPC  H10R20592   0.613   4.792   9.238 -0.0014  2.3460  0.5874
  180SLPC  C21120593   0.622   4.575   9.283 -0.4200 -1.3923  0.2354
  180SLPC  H11R20594   0.620   4.512   9.374 -0.0295  0.5531  1.6492
  180SLPC  H11S20595   0.717   4.556   9.228 -0.5050 -1.4332  0.1030
  180SLPC  C21220596   0.505   4.542   9.195  0.0907  0.7109  0.3345
  180SLPC  H12R20597   0.429   4.485   9.251 -1.2223  2.3414  0.2946
  180SLPC  C21320598   0.493   4.563   9.066 -0.4294  0.6200  0.9238
  180SLPC  H13R20599   0.403   4.513   9.027  0.7461 -0.5251 -0.4560
  180SLPC  C21420600   0.584   4.639   8.967  0.0060 -0.2773  0.5816
  180SLPC  H14R20601   0.636   4.561   8.906  0.1142  0.7803 -0.7331
  180SLPC  H14S20602   0.670   4.695   9.009  0.7159 -0.3445 -0.7101
  180SLPC  C21520603   0.511   4.733   8.867  0.8592  0.1901  0.5451
  180SLPC  H15R20604   0.589   4.773   8.798  0.5909 -2.1291 -1.2278
  180SLPC  H15S20605   0.455   4.815   8.916  0.5099  0.3117 -0.0468
  180SLPC  C21620606   0.418   4.657   8.768 -0.2574  0.2021  0.2938
  180SLPC  H16R20607   0.345   4.600   8.830  0.1813 -0.5195  0.1570
  180SLPC  H16S20608   0.479   4.584   8.711  0.8869  0.6106  0.9607
  180SLPC  C21720609   0.343   4.756   8.682 -0.7285  0.1392 -0.2935
  180SLPC  H17R20610   0.421   4.819   8.635 -0.8296  0.4581 -0.0301
  180SLPC  H17S20611   0.267   4.815   8.737  0.5533 -0.6989  2.5399
  180SLPC  C21820612   0.268   4.670   8.577 -0.6693 -0.2954  0.3011
  180SLPC  H18R20613   0.338   4.604   8.521 -0.5844  1.0674 -1.2534
  180SLPC  H18S20614   0.215   4.738   8.507  0.4858  0.3481  0.0326
  180SLPC  H18T20615   0.185   4.607   8.618  0.2257 -0.2720  2.2933
  180SLPC   C3320616   0.272   4.751   9.974  0.4012  0.9395 -0.6677
  180SLPC   H3X20617   0.350   4.823  10.006  1.2452 -0.7754  1.3954
  180SLPC   H3Y20618   0.175   4.782  10.019  0.4349  0.8007 -0.4972
  180SLPC   C3420619   0.270   4.707   9.831 -0.0247 -0.0118  0.1329
  180SLPC   H4X20620   0.190   4.634   9.808  1.2849 -1.4772  0.0885
  180SLPC   H4Y20621   0.362   4.657   9.796  0.0172  1.2998 -1.8357
  180SLPC   C3520622   0.236   4.823   9.738 -0.0432  0.9920  0.0840
  180SLPC   H5X20623   0.315   4.900   9.747  0.3092  0.6869 -0.3579
  180SLPC   H5Y20624   0.141   4.873   9.766  0.0639  1.0903  0.2809
  180SLPC   C3620625   0.227   4.780   9.594 -0.6943 -0.1789  0.3601
  180SLPC   H6X20626   0.134   4.722   9.575 -0.7728  0.1268 -0.2028
  180SLPC   H6Y20627   0.317   4.719   9.572 -0.7214  0.4803 -1.8091
  180SLPC   C3720628   0.213   4.903   9.503 -0.2339  0.1404  0.2107
  180SLPC   H7X20629   0.289   4.979   9.532  0.6869 -0.4061 -0.7235
  180SLPC   H7Y20630   0.119   4.963   9.502 -1.1084 -1.1693 -1.3242
  180SLPC   C3820631   0.225   4.868   9.354 -0.3072  0.3772 -0.2202
  180SLPC   H8X20632   0.197   4.761   9.346 -0.9825  0.6715 -2.3646
  180SLPC   H8Y20633   0.332   4.888   9.334  0.5370 -0.3366  2.9742
  180SLPC   C3920634   0.133   4.953   9.266  0.3365 -0.4712 -0.1665
  180SLPC   H9X20635   0.172   5.055   9.284 -1.1734  0.1648 -0.3707
  180SLPC   H9Y20636   0.027   4.945   9.299  0.9587  0.0937  2.1808
  180SLPC  C31020637   0.147   4.927   9.115  0.3449 -0.1309 -0.3266
  180SLPC  H10X20638   0.099   4.833   9.080  1.5087 -0.4144 -1.2543
  180SLPC  H10Y20639   0.256   4.911   9.099  0.7647  0.9962  1.2104
  180SLPC  C31120640   0.101   5.056   9.043 -0.0643 -0.6152  0.1409
  180SLPC  H11X20641   0.158   5.146   9.074 -0.7472  0.6050 -1.8858
  180SLPC  H11Y20642  -0.005   5.068   9.073  0.0130 -1.4368  0.7730
  180SLPC  C31220643   0.116   5.046   8.891 -0.1001  0.1861  0.8246
  180SLPC  H12X20644   0.039   4.970   8.864  0.3768 -0.1514  0.3952
  180SLPC  H12Y20645   0.218   5.019   8.856  0.4739  1.9002  1.0839
  180SLPC  C31320646   0.092   5.186   8.831 -0.6404 -0.1291 -0.4620
  180SLPC  H13X20647   0.186   5.243   8.844 -1.4736  1.0192  0.7513
  180SLPC  H13Y20648   0.020   5.239   8.896 -0.3825  1.0539 -1.1132
  180SLPC  C31420649   0.042   5.195   8.689 -0.3689 -0.1096 -0.2168
  180SLPC  H14X20650  -0.050   5.132   8.688 -0.2419 -0.3243 -2.2700
  180SLPC  H14Y20651   0.105   5.144   8.613 -1.3837  0.1734 -1.2789
  180SLPC  C31520652  -0.003   5.333   8.649  0.1678  0.2559  0.2997
  180SLPC  H15X20653   0.086   5.398   8.662  0.3913 -0.4503  3.1455
  180SLPC  H15Y20654  -0.087   5.373   8.711  0.6231  1.4443  0.1661
  180SLPC  C31620655  -0.064   5.349   8.504 -0.4327  0.9189  0.0070
  180SLPC  H16X20656   0.016   5.314   8.435 -2.5063  0.7170 -2.4639
  180SLPC  H16Y20657  -0.074   5.457   8.482 -0.2408  1.2825  1.6505
  180SLPC  C31720658  -0.184   5.262   8.486 -0.7764  1.0463  0.1599
  180SLPC  H17X20659  -0.255   5.287   8.568 -0.2803  1.9773  0.3125
  180SLPC  H17Y20660  -0.148   5.160   8.511  1.3028  1.1659 -2.0204
  180SLPC  C31820661  -0.258   5.264   8.348  0.3232  0.3155  0.2037
  180SLPC  H18X20662  -0.300   5.365   8.331 -0.8178 -0.1430  0.2040
  180SLPC  H18Y20663  -0.337   5.187   8.364 -0.0092  0.5678 -0.2289
  180SLPC  H18Z20664  -0.199   5.229   8.261 -0.9285  1.2091 -1.0366
  181SLPC     N20665   4.297   0.268  10.997  0.3143 -0.9091  0.1598
  181SLPC   C1320666   4.147   0.260  11.002  0.4338 -0.2076 -0.2606
  181SLPC  H13A20667   4.107   0.343  11.059  0.0922  0.7581 -1.8474
  181SLPC  H13B20668   4.103   0.271  10.904 -0.0883  1.3507  0.1120
  181SLPC  H13C20669   4.105   0.172  11.049 -0.6773  1.1172  1.3479
  181SLPC   C1420670   4.340   0.154  10.915  0.1836  0.3431  0.5267
  181SLPC  H14A20671   4.447   0.151  10.903  0.2406  1.8609  0.4330
  181SLPC  H14B20672   4.314   0.062  10.966 -0.5883 -0.6880 -1.6326
  181SLPC  H14C20673   4.287   0.148  10.822  2.0659  1.9357 -0.7156
  181SLPC   C1520674   4.356   0.263  11.130 -0.1662  0.7865  0.3406
  181SLPC  H15A20675   4.333   0.358  11.175 -1.1326  0.7795 -0.1134
  181SLPC  H15B20676   4.319   0.177  11.183  0.6743 -0.3214 -0.7740
  181SLPC  H15C20677   4.464   0.255  11.118 -0.2903  0.6765 -0.7982
  181SLPC   C1220678   4.334   0.400  10.929 -0.0212 -0.4718  0.2274
  181SLPC  H12A20679   4.302   0.389  10.827 -0.4403 -2.0802  0.5031
  181SLPC  H12B20680   4.442   0.407  10.919  0.1228 -0.3842  1.5992
  181SLPC   C1120681   4.269   0.529  10.991  0.4034  1.0267 -0.0729
  181SLPC  H11A20682   4.160   0.515  11.006  0.7159 -1.6733  0.3042
  181SLPC  H11B20683   4.275   0.603  10.908  0.7068  1.7069  0.5532
  181SLPC     P20684   4.466   0.668  11.098 -0.0721  0.1076  0.1212
  181SLPC   O1320685   4.508   0.726  11.234  0.1453 -0.4292 -0.0312
  181SLPC   O1420686   4.578   0.620  11.015 -0.0124 -0.2716 -0.1604
  181SLPC   O1220687   4.349   0.565  11.102  0.4508 -0.1141 -0.5558
  181SLPC   O1120688   4.407   0.778  11.009  0.5611  0.8425 -0.3200
  181SLPC    C120689   4.496   0.862  10.931  0.9386  0.6300  0.0899
  181SLPC    HA20690   4.601   0.858  10.966  0.6042 -1.8833  1.0625
  181SLPC    HB20691   4.495   0.824  10.827  3.0535 -1.9771  0.9127
  181SLPC    C220692   4.455   1.012  10.940 -0.7630  0.8015 -0.0941
  181SLPC    HS20693   4.448   1.024  11.050 -1.8924 -0.4927  0.0078
  181SLPC   O2120694   4.329   1.037  10.873 -0.1375 -0.1418  0.4276
  181SLPC   C2120695   4.275   1.156  10.866 -0.0433 -0.2995 -0.0394
  181SLPC   O2220696   4.313   1.262  10.913 -0.0836 -0.6185  0.1770
  181SLPC   C2220697   4.155   1.149  10.777  0.5063  0.4772 -0.6205
  181SLPC   H2R20698   4.085   1.071  10.813 -1.4743  2.5015  0.1718
  181SLPC   H2S20699   4.103   1.247  10.772 -2.7774 -1.1865 -2.6059
  181SLPC    C320700   4.565   1.114  10.902 -0.5199  0.1186  0.4104
  181SLPC    HX20701   4.662   1.098  10.954 -0.0672  0.9265 -0.1510
  181SLPC    HY20702   4.541   1.217  10.935 -1.2482 -0.0425  0.3884
  181SLPC   O3120703   4.593   1.101  10.758 -0.7886 -0.0674  0.6269
  181SLPC   C3120704   4.593   1.206  10.684 -0.0536  0.0080  0.0331
  181SLPC   O3220705   4.549   1.317  10.709  0.1452  0.0488 -0.0479
  181SLPC   C3220706   4.649   1.168  10.548 -0.2083 -1.7516  0.1894
  181SLPC   H2X20707   4.564   1.138  10.484 -1.6470  0.0594  1.1571
  181SLPC   H2Y20708   4.717   1.082  10.564  2.1572  0.0406  0.4134
  181SLPC   C2320709   4.193   1.109  10.637  0.3441  0.6680 -0.2307
  181SLPC   H3R20710   4.220   1.002  10.622 -1.2774  0.5876 -3.4962
  181SLPC   H3S20711   4.283   1.171  10.613  0.2983  0.8373  0.0345
  181SLPC   C2420712   4.080   1.140  10.537  0.5553 -0.0400 -0.0780
  181SLPC   H4R20713   4.112   1.155  10.432  0.6926 -2.4497 -0.4301
  181SLPC   H4S20714   4.025   1.230  10.575 -0.3776 -0.3579 -0.6588
  181SLPC   C2520715   3.994   1.015  10.521  0.3236 -0.1492  0.3236
  181SLPC   H5R20716   3.965   0.988  10.624 -1.7563  2.0129  0.3963
  181SLPC   H5S20717   4.052   0.931  10.477 -0.9982 -1.3786  0.8596
  181SLPC   C2620718   3.865   1.031  10.435 -0.1460 -0.0906  0.4290
  181SLPC   H6R20719   3.886   1.087  10.342 -0.4319  1.1501  1.0924
  181SLPC   H6S20720   3.802   1.108  10.484  0.0706  0.3517  0.0120
  181SLPC   C2720721   3.786   0.896  10.422 -0.0563  0.5017  0.6509
  181SLPC   H7R20722   3.769   0.862  10.526 -1.7461  0.0624  0.2733
  181SLPC   H7S20723   3.847   0.820  10.368  0.7237  1.9151 -0.5355
  181SLPC   C2820724   3.649   0.911  10.347  0.1367 -0.1813  0.1818
  181SLPC   H8R20725   3.672   0.964  10.253 -0.6841 -0.5239 -0.2238
  181SLPC   H8S20726   3.594   0.985  10.409  0.0503  0.0638 -0.1818
  181SLPC   C2920727   3.576   0.785  10.319  0.3769  0.1273  0.4646
  181SLPC   H9R20728   3.542   0.731  10.408 -0.4593 -0.4818 -0.2050
  181SLPC  C21020729   3.546   0.724  10.202  0.1684 -0.2231 -0.2484
  181SLPC  H10R20730   3.499   0.625  10.202  0.2838 -0.3283 -2.1065
  181SLPC  C21120731   3.580   0.779  10.064 -0.0279 -0.0595 -0.2266
  181SLPC  H11R20732   3.597   0.889  10.066  0.0022 -0.0451 -0.9463
  181SLPC  H11S20733   3.491   0.754  10.002  0.7341 -0.6108 -1.1266
  181SLPC  C21220734   3.709   0.722  10.005 -0.3793 -0.1391  0.2110
  181SLPC  H12R20735   3.790   0.706  10.076  0.0663  0.5422 -0.1390
  181SLPC  C21320736   3.729   0.692   9.874 -0.3984 -0.2950  0.1426
  181SLPC  H13R20737   3.825   0.648   9.844 -1.1924 -2.6390  0.8098
  181SLPC  C21420738   3.631   0.711   9.763 -0.1138 -0.6798  0.5899
  181SLPC  H14R20739   3.538   0.764   9.793 -2.3380 -1.2824 -4.3604
  181SLPC  H14S20740   3.600   0.611   9.728  2.5710 -0.9668 -1.2379
  181SLPC  C21520741   3.697   0.785   9.641 -0.5332 -0.1692  0.0492
  181SLPC  H15R20742   3.745   0.876   9.681 -2.8499  0.6141  1.2668
  181SLPC  H15S20743   3.615   0.817   9.573 -0.1687  0.7238  0.0164
  181SLPC  C21620744   3.787   0.695   9.552 -0.1787 -0.7239  0.5833
  181SLPC  H16R20745   3.840   0.612   9.604  0.6666 -1.5104 -1.4366
  181SLPC  H16S20746   3.865   0.769   9.522 -0.5902 -0.2585  0.6564
  181SLPC  C21720747   3.724   0.628   9.430 -0.4336  0.0378  0.0171
  181SLPC  H17R20748   3.672   0.707   9.372  0.4863  0.9880  0.4471
  181SLPC  H17S20749   3.645   0.556   9.458 -1.2247  1.0849  0.5086
  181SLPC  C21820750   3.837   0.567   9.332  0.5218  0.3396 -0.8959
  181SLPC  H18R20751   3.785   0.506   9.255  0.4362 -3.0804  1.6337
  181SLPC  H18S20752   3.904   0.493   9.381 -1.5875 -0.6353  0.6488
  181SLPC  H18T20753   3.898   0.652   9.294  1.6266 -1.0651 -2.4055
  181SLPC   C3320754   4.712   1.294  10.466 -0.7759  0.7561 -0.4496
  181SLPC   H3X20755   4.802   1.318  10.527 -1.5539  0.0783  1.0357
  181SLPC   H3Y20756   4.633   1.373  10.463 -0.2049  1.3130 -1.0137
  181SLPC   C3420757   4.753   1.273  10.315 -0.2765  0.7436  0.2734
  181SLPC   H4X20758   4.824   1.352  10.281  0.4933 -0.7189 -1.7377
  181SLPC   H4Y20759   4.660   1.275  10.256  0.8329  0.0844 -1.5918
  181SLPC   C3520760   4.820   1.133  10.288  0.8497  0.2240  0.2723
  181SLPC   H5X20761   4.737   1.060  10.288 -0.3335  1.5300  0.3971
  181SLPC   H5Y20762   4.877   1.110  10.381  0.0059 -1.0814  0.4939
  181SLPC   C3620763   4.907   1.124  10.162  0.2757  0.0299  0.1260
  181SLPC   H6X20764   4.929   1.015  10.154 -2.3013 -0.7417  2.1496
  181SLPC   H6Y20765   5.003   1.176  10.179  1.0177 -0.1619 -2.9414
  181SLPC   C3720766   4.837   1.175  10.035  0.0804 -0.3835 -0.2926
  181SLPC   H7X20767   4.803   1.279  10.050  1.4912  0.0993 -0.3100
  181SLPC   H7Y20768   4.745   1.116  10.013 -0.0069  0.7433 -3.4491
  181SLPC   C3820769   4.933   1.185   9.916  0.8884  0.0272  0.4790
  181SLPC   H8X20770   4.921   1.081   9.879  0.0560  0.9212 -2.0347
  181SLPC   H8Y20771   5.037   1.202   9.952 -0.3494  0.9039  3.9251
  181SLPC   C3920772   4.874   1.268   9.799 -0.2475 -0.9907  0.5053
  181SLPC   H9X20773   4.885   1.377   9.817 -2.5072 -0.2828 -1.8086
  181SLPC   H9Y20774   4.764   1.258   9.808 -0.5122  1.0607  0.0306
  181SLPC  C31020775   4.933   1.235   9.663  0.7059 -0.2447 -0.6917
  181SLPC  H10X20776   4.893   1.138   9.625  0.0899 -0.5796  0.7354
  181SLPC  H10Y20777   5.041   1.218   9.682  0.1054 -0.5032  3.2854
  181SLPC  C31120778   4.904   1.352   9.559 -0.1662 -0.8709 -0.3520
  181SLPC  H11X20779   4.903   1.446   9.617 -0.2453 -2.0133  1.6001
  181SLPC  H11Y20780   4.804   1.334   9.515  0.9001 -2.3669 -2.3506
  181SLPC  C31220781   5.006   1.355   9.440  0.8249 -0.3851 -0.0129
  181SLPC  H12X20782   4.981   1.267   9.378 -1.4636  1.1883 -1.4921
  181SLPC  H12Y20783   5.105   1.342   9.488  0.2663  0.2240  1.3717
  181SLPC  C31320784   4.987   1.492   9.369 -0.5769 -0.1049  0.0189
  181SLPC  H13X20785   4.997   1.568   9.450  1.5694  0.0989 -0.3698
  181SLPC  H13Y20786   4.892   1.501   9.312 -0.7729  0.3705  0.4152
  181SLPC  C31420787   5.093   1.531   9.260  0.4164 -0.0869  0.3559
  181SLPC  H14X20788   5.198   1.508   9.287  0.4447  0.1958  0.4915
  181SLPC  H14Y20789   5.093   1.642   9.255 -0.3835  0.1225  3.1984
  181SLPC  C31520790   5.055   1.476   9.116 -0.1886  1.0132 -0.5488
  181SLPC  H15X20791   4.947   1.497   9.099 -0.8175 -0.4247  1.2670
  181SLPC  H15Y20792   5.070   1.366   9.114  0.1285  1.0579 -1.7341
  181SLPC  C31620793   5.122   1.557   9.004 -0.4002 -0.0393  0.9763
  181SLPC  H16X20794   5.086   1.661   9.021 -0.1104  0.1409  0.4845
  181SLPC  H16Y20795   5.088   1.528   8.902 -0.2322 -1.7585  1.3851
  181SLPC  C31720796   5.277   1.537   9.000  0.5484 -0.8002 -0.0426
  181SLPC  H17X20797   5.310   1.433   8.984  0.3118 -1.0533  1.0696
  181SLPC  H17Y20798   5.327   1.572   9.092 -0.3990  1.0820 -0.1867
  181SLPC  C31820799   5.335   1.634   8.896 -0.3289 -0.6605 -0.5436
  181SLPC  H18X20800   5.318   1.593   8.794  1.0202 -1.7027 -0.3774
  181SLPC  H18Y20801   5.443   1.645   8.917 -0.6804 -0.3898  1.3214
  181SLPC  H18Z20802   5.300   1.739   8.897 -0.9305 -0.8503  0.8072
  182SLPC     N20803   3.615   3.230  11.322 -0.8018  0.6298 -0.3770
  182SLPC   C1320804   3.493   3.150  11.359  0.6389  0.7198 -0.0303
  182SLPC  H13A20805   3.407   3.212  11.376 -0.5533 -1.2623  1.7088
  182SLPC  H13B20806   3.462   3.088  11.277 -1.2554  0.4814  0.8296
  182SLPC  H13C20807   3.511   3.102  11.454 -4.7626  2.8098  2.4303
  182SLPC   C1420808   3.735   3.136  11.322  0.1060  0.4363 -0.4456
  182SLPC  H14A20809   3.712   3.050  11.260 -0.0355  0.4973 -0.4785
  182SLPC  H14B20810   3.825   3.184  11.287  3.0875 -2.7373  2.2217
  182SLPC  H14C20811   3.770   3.095  11.415 -0.8242  1.5786  0.4405
  182SLPC   C1520812   3.630   3.337  11.416 -0.0511 -0.0700 -1.0606
  182SLPC  H15A20813   3.541   3.396  11.427  0.1756 -0.0663  1.1338
  182SLPC  H15B20814   3.660   3.309  11.516 -0.3099 -0.5951 -1.1272
  182SLPC  H15C20815   3.703   3.406  11.377 -0.5465  0.4215 -1.1185
  182SLPC   C1220816   3.602   3.296  11.184  0.0298  0.8746  0.3363
  182SLPC  H12A20817   3.682   3.366  11.166  1.3263 -0.1966  1.6530
  182SLPC  H12B20818   3.515   3.360  11.185 -2.3220 -1.9353 -2.1800
  182SLPC   C1120819   3.594   3.194  11.067  0.6676  0.0301  0.6903
  182SLPC  H11A20820   3.696   3.152  11.052  0.0680 -1.4977  0.7178
  182SLPC  H11B20821   3.587   3.253  10.973 -1.3696 -0.4538  0.4955
  182SLPC     P20822   3.351   3.131  11.001  0.1505  0.4243  0.0629
  182SLPC   O1320823   3.258   3.022  11.032 -0.2053 -0.7161  0.5767
  182SLPC   O1420824   3.305   3.270  11.027 -0.0500 -0.1619 -0.6965
  182SLPC   O1220825   3.486   3.104  11.077 -0.0176  0.4586 -0.1632
  182SLPC   O1120826   3.402   3.121  10.856  0.4195  0.8915  0.8638
  182SLPC    C120827   3.451   3.000  10.799  0.2626 -0.4029 -0.0759
  182SLPC    HA20828   3.539   3.027  10.737 -1.3669 -0.5862 -2.6436
  182SLPC    HB20829   3.472   2.924  10.877 -1.0162  0.2214  0.9047
  182SLPC    C220830   3.365   2.944  10.680 -0.7395  1.8001 -0.2922
  182SLPC    HS20831   3.276   2.903  10.732  1.8420 -2.5870  1.1524
  182SLPC   O2120832   3.439   2.832  10.614  0.1312 -0.0811  0.2662
  182SLPC   C2120833   3.358   2.735  10.571  0.7174 -0.8128 -0.5235
  182SLPC   O2220834   3.234   2.752  10.558  0.2450 -0.5084 -0.1752
  182SLPC   C2220835   3.425   2.610  10.534 -0.5967  0.2506  0.2722
  182SLPC   H2R20836   3.535   2.629  10.528 -0.6389  0.4519  0.1006
  182SLPC   H2S20837   3.410   2.533  10.612 -0.6960 -0.4032 -0.3838
  182SLPC    C320838   3.341   3.064  10.585  0.2776 -0.3614  0.4302
  182SLPC    HX20839   3.439   3.112  10.569 -0.3028  1.2424  1.3808
  182SLPC    HY20840   3.279   3.142  10.635  0.5789  1.4291 -1.8230
  182SLPC   O3120841   3.299   3.025  10.448  0.6504  0.0012 -0.0823
  182SLPC   C3120842   3.164   3.032  10.431 -0.0958  0.0090 -0.0433
  182SLPC   O3220843   3.082   3.055  10.514  0.8177 -0.3693 -0.5788
  182SLPC   C3220844   3.132   2.997  10.282 -0.4969  0.7206  0.1279
  182SLPC   H2X20845   3.156   2.890  10.266 -0.0868  0.8537 -0.1384
  182SLPC   H2Y20846   3.194   3.065  10.221  1.4301 -1.7933 -0.8903
  182SLPC   C2320847   3.385   2.575  10.387  0.0360  0.2589 -0.0762
  182SLPC   H3R20848   3.275   2.579  10.376  0.0267 -1.0978 -0.6303
  182SLPC   H3S20849   3.419   2.474  10.355 -2.5030 -0.6060 -0.2770
  182SLPC   C2420850   3.439   2.680  10.285  0.3853  0.2902 -0.6891
  182SLPC   H4R20851   3.545   2.705  10.307  0.3730 -2.3486  3.3609
  182SLPC   H4S20852   3.377   2.772  10.294 -0.5234 -0.3734 -0.0512
  182SLPC   C2520853   3.425   2.621  10.143 -0.0766  0.6492 -0.5093
  182SLPC   H5R20854   3.335   2.557  10.138 -1.5680  2.5879  0.3214
  182SLPC   H5S20855   3.510   2.550  10.134 -0.8114 -0.0456 -2.6012
  182SLPC   C2620856   3.424   2.713  10.028  0.3506  0.6041 -0.0252
  182SLPC   H6R20857   3.502   2.791  10.041  0.4128  0.6552 -0.6668
  182SLPC   H6S20858   3.324   2.761  10.030  0.9883  1.9252  1.4526
  182SLPC   C2720859   3.454   2.623   9.895 -0.3606 -0.2098  0.1750
  182SLPC   H7R20860   3.389   2.533   9.888 -0.6620 -0.0279  0.5760
  182SLPC   H7S20861   3.556   2.581   9.907 -0.3853  0.0144  1.3260
  182SLPC   C2820862   3.444   2.716   9.773  0.5468  0.0440 -0.6669
  182SLPC   H8R20863   3.478   2.655   9.687  1.2118  0.3506 -0.6267
  182SLPC   H8S20864   3.512   2.803   9.786 -1.3937  1.6990 -0.9624
  182SLPC   C2920865   3.312   2.786   9.751  0.4180 -0.3353  0.3089
  182SLPC   H9R20866   3.305   2.880   9.806  0.3851  0.2691 -0.6985
  182SLPC  C21020867   3.213   2.733   9.672 -0.3559 -0.1263 -0.1345
  182SLPC  H10R20868   3.132   2.804   9.650  1.6370  1.6208 -2.3628
  182SLPC  C21120869   3.212   2.605   9.604  0.3834  0.4918  0.4220
  182SLPC  H11R20870   3.286   2.541   9.657  2.3249  0.1810 -2.4133
  182SLPC  H11S20871   3.250   2.624   9.501 -2.8171  2.8728 -0.5003
  182SLPC  C21220872   3.079   2.534   9.582 -0.5247 -0.3521  0.4633
  182SLPC  H12R20873   3.057   2.446   9.644 -1.3997 -1.1606 -0.9475
  182SLPC  C21320874   2.993   2.565   9.480 -0.7782  0.4152 -0.2728
  182SLPC  H13R20875   2.901   2.504   9.477  0.1134 -0.9806 -0.3040
  182SLPC  C21420876   3.007   2.674   9.374 -0.5297 -0.4140 -0.0110
  182SLPC  H14R20877   3.084   2.641   9.301 -0.4676 -0.0252 -0.1232
  182SLPC  H14S20878   3.045   2.770   9.415 -2.3484  0.2336  0.2548
  182SLPC  C21520879   2.875   2.693   9.292 -0.0815 -0.2066 -0.5462
  182SLPC  H15R20880   2.837   2.599   9.246 -1.6956  0.7372 -1.2070
  182SLPC  H15S20881   2.915   2.739   9.199  0.9199 -0.9024 -0.4777
  182SLPC  C21620882   2.756   2.764   9.365 -0.9961  0.0499  0.0418
  182SLPC  H16R20883   2.789   2.868   9.388 -1.3034  0.4584 -1.2485
  182SLPC  H16S20884   2.742   2.700   9.455 -0.7487  0.5911  0.4692
  182SLPC  C21720885   2.629   2.766   9.284  0.2737 -0.3451 -0.3701
  182SLPC  H17R20886   2.663   2.788   9.181  2.8144 -0.3466  0.4120
  182SLPC  H17S20887   2.556   2.837   9.328  0.9593  0.0411  0.1678
  182SLPC  C21820888   2.564   2.627   9.285  0.5358  0.0889 -0.2007
  182SLPC  H18R20889   2.549   2.603   9.393  1.1390  3.2146  0.6598
  182SLPC  H18S20890   2.618   2.546   9.231  2.2426  0.3307  1.0463
  182SLPC  H18T20891   2.462   2.639   9.244 -0.0018 -3.5061 -0.2918
  182SLPC   C3320892   2.983   3.025  10.253 -0.4444  0.3330  0.1742
  182SLPC   H3X20893   2.955   3.128  10.285 -1.8219  0.4500 -1.2742
  182SLPC   H3Y20894   2.917   2.952  10.303  0.3504 -0.8293 -0.3963
  182SLPC   C3420895   2.954   3.012  10.103  0.2208  0.1814  0.3468
  182SLPC   H4X20896   3.007   2.918  10.074  0.1602 -0.0088  0.8499
  182SLPC   H4Y20897   2.995   3.102  10.053  0.3861 -0.2647 -0.3439
  182SLPC   C3520898   2.804   3.018  10.070 -0.3949  0.9370 -0.3112
  182SLPC   H5X20899   2.765   3.105  10.127 -1.2905 -0.0162  0.5709
  182SLPC   H5Y20900   2.738   2.936  10.107 -0.1300  1.3390  1.0971
  182SLPC   C3620901   2.775   3.029   9.921  0.7028 -0.1952 -0.3157
  182SLPC   H6X20902   2.800   3.131   9.884 -0.6088  0.2100 -0.1525
  182SLPC   H6Y20903   2.667   3.002   9.913  0.1010  1.9180 -0.0130
  182SLPC   C3720904   2.865   2.940   9.833 -0.2438 -0.6022 -0.1363
  182SLPC   H7X20905   2.866   2.835   9.867 -1.3164 -1.2203 -1.8439
  182SLPC   H7Y20906   2.968   2.979   9.847 -0.8446  1.1065 -0.2111
  182SLPC   C3820907   2.835   2.950   9.682  0.3463 -0.7802  0.3149
  182SLPC   H8X20908   2.739   2.902   9.653  1.1194 -0.8130 -2.4801
  182SLPC   H8Y20909   2.924   2.899   9.638  0.9223 -0.0923  0.6614
  182SLPC   C3920910   2.833   3.094   9.624  0.0249  0.0929  0.4506
  182SLPC   H9X20911   2.753   3.144   9.683 -1.7801 -2.9839  0.8482
  182SLPC   H9Y20912   2.810   3.096   9.515  1.9425  0.4858  0.0249
  182SLPC  C31020913   2.961   3.180   9.634  0.1651  0.2511 -0.3348
  182SLPC  H10X20914   3.001   3.166   9.736 -0.6464 -1.3742 -0.2115
  182SLPC  H10Y20915   2.941   3.289   9.621 -0.8831 -0.0547 -1.5663
  182SLPC  C31120916   3.065   3.127   9.538  0.1826 -0.1647 -0.3953
  182SLPC  H11X20917   3.009   3.116   9.443  0.0170  0.7443 -0.4113
  182SLPC  H11Y20918   3.096   3.026   9.572  0.2628  0.8809  2.9416
  182SLPC  C31220919   3.181   3.226   9.529 -0.1566 -0.6030 -0.4362
  182SLPC  H12X20920   3.221   3.246   9.631 -0.9693 -1.7077  0.1196
  182SLPC  H12Y20921   3.152   3.328   9.496  0.8759 -0.1487  0.0186
  182SLPC  C31320922   3.290   3.187   9.430  0.0542  0.5745 -0.0692
  182SLPC  H13X20923   3.365   3.268   9.443  0.7437  0.0868 -0.8632
  182SLPC  H13Y20924   3.256   3.173   9.325  0.8006  0.2522 -0.2806
  182SLPC  C31420925   3.361   3.058   9.476 -0.2355 -0.5149  0.2300
  182SLPC  H14X20926   3.291   2.974   9.459 -0.4283 -0.3718  0.3130
  182SLPC  H14Y20927   3.394   3.076   9.581  0.4582  1.3142 -0.2610
  182SLPC  C31520928   3.481   3.035   9.375  0.0283  0.0603  0.8210
  182SLPC  H15X20929   3.553   3.117   9.397  0.9514 -0.4676 -0.1146
  182SLPC  H15Y20930   3.440   3.047   9.273  1.8562 -0.8466 -0.0694
  182SLPC  C31620931   3.560   2.902   9.399 -0.6651  0.1079  0.5469
  182SLPC  H16X20932   3.572   2.884   9.507 -2.0826  0.2045  0.7400
  182SLPC  H16Y20933   3.658   2.905   9.347 -0.9674  1.3925  0.0174
  182SLPC  C31720934   3.480   2.787   9.333 -0.7389 -0.1166 -0.4801
  182SLPC  H17X20935   3.497   2.788   9.223  1.4559  1.4878 -0.1857
  182SLPC  H17Y20936   3.369   2.787   9.346 -0.7290 -1.5040 -0.2759
  182SLPC  C31820937   3.534   2.650   9.370  0.1782  0.4731 -0.2221
  182SLPC  H18X20938   3.645   2.642   9.362  0.3226  2.1557 -0.2175
  182SLPC  H18Y20939   3.487   2.591   9.288  2.0287 -0.5446 -0.6126
  182SLPC  H18Z20940   3.496   2.600   9.462  2.6960 -2.2574 -0.5214
  183SLPC     N20941   5.139   3.690  11.196 -0.0269  0.7257 -0.5176
  183SLPC   C1320942   5.260   3.777  11.191  0.3074 -0.1846  0.0103
  183SLPC  H13A20943   5.251   3.862  11.126  0.4676 -1.0388 -1.1700
  183SLPC  H13B20944   5.289   3.813  11.288  0.1942 -0.9703  0.3422
  183SLPC  H13C20945   5.345   3.720  11.157  0.0469  0.1456 -1.2652
  183SLPC   C1420946   5.177   3.572  11.286 -0.3490  0.2654  0.0947
  183SLPC  H14A20947   5.250   3.511  11.236  0.6148  0.8967  0.7083
  183SLPC  H14B20948   5.214   3.602  11.382  0.4833 -1.0940  0.2227
  183SLPC  H14C20949   5.098   3.501  11.306  2.0304 -2.1447  1.5628
  183SLPC   C1520950   5.114   3.637  11.061  0.1204  1.0549 -0.5452
  183SLPC  H15A20951   5.101   3.712  10.985  0.2219  1.9305  0.2873
  183SLPC  H15B20952   5.203   3.582  11.032 -0.9537  0.4362 -2.9453
  183SLPC  H15C20953   5.028   3.573  11.049  0.3970  0.8041 -1.2526
  183SLPC   C1220954   5.016   3.770  11.252 -0.4623  0.1969 -0.2315
  183SLPC  H12A20955   4.986   3.842  11.176  3.3683  1.7929 -0.4542
  183SLPC  H12B20956   5.052   3.829  11.335  0.1592  0.3719 -0.6204
  183SLPC   C1120957   4.903   3.685  11.304 -0.6226  0.1491  0.9217
  183SLPC  H11A20958   4.828   3.747  11.358 -1.5771 -0.9433  0.8917
  183SLPC  H11B20959   4.943   3.620  11.386  0.0827  0.2014  0.6289
  183SLPC     P20960   4.728   3.659  11.108 -0.0346  0.5347  0.7656
  183SLPC   O1320961   4.604   3.582  11.138 -0.5613 -0.8342  0.2107
  183SLPC   O1420962   4.723   3.808  11.123 -0.8679  0.0044  0.4396
  183SLPC   O1220963   4.841   3.602  11.205 -0.0440 -0.1137 -0.1151
  183SLPC   O1120964   4.778   3.617  10.965  0.0525  0.1277 -0.2820
  183SLPC    C120965   4.794   3.480  10.927  0.3892 -0.3290  0.0957
  183SLPC    HA20966   4.899   3.468  10.895  0.0642  0.8099 -1.5621
  183SLPC    HB20967   4.753   3.405  10.999 -1.5882  0.5717 -0.0102
  183SLPC    C220968   4.706   3.448  10.797  0.0053  0.1123 -0.1257
  183SLPC    HS20969   4.730   3.344  10.766 -0.7763 -0.2677  0.4937
  183SLPC   O2120970   4.734   3.537  10.683 -0.1714 -0.1037  0.0215
  183SLPC   C2120971   4.855   3.517  10.620  0.0502  0.5507 -0.0988
  183SLPC   O2220972   4.934   3.436  10.665  0.3078  0.1771 -0.6602
  183SLPC   C2220973   4.867   3.599  10.500  0.6661 -0.0091  0.9326
  183SLPC   H2R20974   4.794   3.572  10.420  0.8971  3.4018 -0.6140
  183SLPC   H2S20975   4.834   3.702  10.524  1.2601 -0.0477  1.9497
  183SLPC    C320976   4.557   3.455  10.841  0.7928  0.1630  0.2893
  183SLPC    HX20977   4.540   3.553  10.888  2.7222  0.5549  0.2781
  183SLPC    HY20978   4.536   3.388  10.927  1.4112  1.5657  1.5792
  183SLPC   O3120979   4.469   3.437  10.726  0.8600 -0.2125 -0.2097
  183SLPC   C3120980   4.464   3.328  10.652 -0.3405  0.2432 -0.2638
  183SLPC   O3220981   4.522   3.224  10.677  0.3264 -0.0137  0.0823
  183SLPC   C3220982   4.364   3.350  10.538  0.0234 -0.0635  0.1919
  183SLPC   H2X20983   4.419   3.392  10.451 -1.0489 -1.5201 -1.2229
  183SLPC   H2Y20984   4.295   3.433  10.565 -1.0665  0.2713 -3.2257
  183SLPC   C2320985   5.005   3.594  10.428 -0.0985 -0.7109  0.2396
  183SLPC   H3R20986   5.050   3.493  10.428 -1.2341 -1.2842  2.2390
  183SLPC   H3S20987   5.069   3.664  10.485  0.3618 -0.1560 -0.9273
  183SLPC   C2420988   4.998   3.645  10.281  0.1678  0.4283  0.0875
  183SLPC   H4R20989   4.953   3.746  10.290 -0.4027  0.2316 -0.4849
  183SLPC   H4S20990   4.928   3.581  10.223 -0.8956  1.7695 -0.1714
  183SLPC   C2520991   5.136   3.651  10.213 -0.5221 -0.2439  0.3013
  183SLPC   H5R20992   5.178   3.549  10.223 -0.9649 -0.3026  1.7165
  183SLPC   H5S20993   5.218   3.720  10.244  1.1890  0.5323 -4.8749
  183SLPC   C2620994   5.132   3.672  10.052  0.7990 -0.2675 -0.4402
  183SLPC   H6R20995   5.084   3.769  10.026 -0.8218 -1.3434 -1.6905
  183SLPC   H6S20996   5.058   3.597  10.016  0.3433 -0.2120  0.3441
  183SLPC   C2720997   5.274   3.641   9.989  0.5339  0.2538  0.3428
  183SLPC   H7R20998   5.303   3.535  10.007  1.5674  0.5709  0.6475
  183SLPC   H7S20999   5.334   3.699  10.063  1.0489 -0.1035  0.2117
  183SLPC   C2821000   5.291   3.713   9.852 -0.2242 -0.6473  0.4449
  183SLPC   H8R21001   5.401   3.724   9.836 -0.2582  0.3407  0.7939
  183SLPC   H8S21002   5.246   3.814   9.855  0.9648 -0.0569 -0.4249
  183SLPC   C2921003   5.229   3.635   9.742 -0.1434 -0.2335  0.2394
  183SLPC   H9R21004   5.134   3.582   9.755 -1.5675  1.6077 -1.9642
  183SLPC  C21021005   5.287   3.624   9.614 -0.6824 -0.4307 -0.7312
  183SLPC  H10R21006   5.227   3.575   9.536 -1.6232  0.1618 -0.3939
  183SLPC  C21121007   5.415   3.692   9.573  0.2506 -0.3726  0.2496
  183SLPC  H11R21008   5.477   3.718   9.662  2.9834 -0.8000 -1.4112
  183SLPC  H11S21009   5.398   3.783   9.512 -0.4495 -0.9725 -0.4744
  183SLPC  C21221010   5.498   3.598   9.488  0.2460 -0.0206  0.0294
  183SLPC  H12R21011   5.542   3.524   9.557 -0.9056  1.0491  2.0317
  183SLPC  C21321012   5.524   3.592   9.355  0.1870 -0.7019 -0.3124
  183SLPC  H13R21013   5.585   3.511   9.314  1.5448 -0.6247  1.4324
  183SLPC  C21421014   5.461   3.696   9.256 -0.0585 -0.3002  0.1582
  183SLPC  H14R21015   5.523   3.788   9.253 -1.3225  0.5524 -0.2615
  183SLPC  H14S21016   5.357   3.719   9.288 -0.2584 -1.5793  0.4936
  183SLPC  C21521017   5.471   3.634   9.115 -0.0997 -0.2144  0.2852
  183SLPC  H15R21018   5.578   3.617   9.092  0.9248  1.6814  3.1124
  183SLPC  H15S21019   5.431   3.709   9.044 -0.7195 -0.5650  0.2510
  183SLPC  C21621020   5.388   3.503   9.102 -0.4608  0.4668 -0.0379
  183SLPC  H16R21021   5.411   3.437   9.188  0.1524 -0.4760 -0.8957
  183SLPC  H16S21022   5.441   3.450   9.020 -0.6105 -0.1580  0.2614
  183SLPC  C21721023   5.238   3.522   9.094  0.3881 -0.4181 -0.0195
  183SLPC  H17R21024   5.208   3.519   8.987 -0.7753 -0.3712  0.2958
  183SLPC  H17S21025   5.210   3.623   9.132 -2.6918 -1.7496  1.6631
  183SLPC  C21821026   5.152   3.429   9.185  0.3038  0.1990  0.8029
  183SLPC  H18R21027   5.179   3.324   9.162  0.7095  0.3053  0.7897
  183SLPC  H18S21028   5.042   3.439   9.169  0.0977 -2.7599 -0.2881
  183SLPC  H18T21029   5.161   3.448   9.294 -2.5626  2.2345  0.8115
  183SLPC   C3321030   4.291   3.223  10.484  0.8179 -0.0655 -0.0151
  183SLPC   H3X21031   4.217   3.195  10.562  0.7009  0.9819  0.2541
  183SLPC   H3Y21032   4.364   3.140  10.471  0.2745 -0.3282 -1.6488
  183SLPC   C3421033   4.220   3.244  10.342 -0.4390  0.2395  0.0921
  183SLPC   H4X21034   4.162   3.338  10.340  2.7163  2.3763  1.2817
  183SLPC   H4Y21035   4.158   3.156  10.314  1.4680 -0.9773 -0.5330
  183SLPC   C3521036   4.324   3.254  10.224  0.0839 -0.3810  0.0273
  183SLPC   H5X21037   4.418   3.195  10.229 -0.5364 -1.6101 -1.7813
  183SLPC   H5Y21038   4.350   3.362  10.224 -0.8106 -0.1547 -0.1458
  183SLPC   C3621039   4.259   3.226  10.086  0.1407  0.0590 -0.1249
  183SLPC   H6X21040   4.170   3.289  10.066 -0.6771 -1.6754 -2.4883
  183SLPC   H6Y21041   4.222   3.121  10.083 -1.2343  0.4376  1.7560
  183SLPC   C3721042   4.356   3.248   9.966 -0.1808 -0.1586  0.0792
  183SLPC   H7X21043   4.447   3.185   9.978 -0.6025 -0.5776  1.1145
  183SLPC   H7Y21044   4.374   3.357   9.971  1.5624 -0.2695 -1.9089
  183SLPC   C3821045   4.280   3.203   9.837  0.4533 -0.3465  0.7676
  183SLPC   H8X21046   4.175   3.235   9.851  0.2885 -0.7677  0.4787
  183SLPC   H8Y21047   4.293   3.093   9.843  0.8353 -0.3158  0.5278
  183SLPC   C3921048   4.348   3.259   9.711  0.1490 -0.3523  0.3357
  183SLPC   H9X21049   4.457   3.252   9.730  0.7967 -1.1375 -3.0890
  183SLPC   H9Y21050   4.312   3.363   9.699  3.1310  0.5179 -2.4380
  183SLPC  C31021051   4.303   3.196   9.579 -0.7448  0.4634 -0.4380
  183SLPC  H10X21052   4.198   3.227   9.559 -1.2433 -1.4756 -0.9763
  183SLPC  H10Y21053   4.317   3.087   9.596 -1.4098  0.8234  3.1764
  183SLPC  C31121054   4.380   3.255   9.458  0.3970 -0.1478 -0.0749
  183SLPC  H11X21055   4.491   3.260   9.466  0.4590  1.0095 -1.3525
  183SLPC  H11Y21056   4.358   3.359   9.426  5.1455  0.5691 -1.8181
  183SLPC  C31221057   4.342   3.185   9.324 -0.8450 -0.3029  0.9411
  183SLPC  H12X21058   4.233   3.163   9.317 -0.7670 -0.1325 -2.9560
  183SLPC  H12Y21059   4.396   3.088   9.317  3.3218  1.5802  3.6657
  183SLPC  C31321060   4.395   3.263   9.199 -0.0977  0.1786 -0.6321
  183SLPC  H13X21061   4.501   3.292   9.218 -0.3080 -0.5214  2.0692
  183SLPC  H13Y21062   4.338   3.359   9.201  1.0179  0.8538  0.4000
  183SLPC  C31421063   4.373   3.200   9.064 -0.3288 -0.0763  0.3175
  183SLPC  H14X21064   4.267   3.165   9.057  0.0960 -1.7474  1.7441
  183SLPC  H14Y21065   4.441   3.112   9.064  1.6412  1.3784  0.2893
  183SLPC  C31521066   4.414   3.303   8.950  0.2259 -0.5224 -0.2568
  183SLPC  H15X21067   4.523   3.318   8.966  0.4674 -0.6861 -1.5910
  183SLPC  H15Y21068   4.364   3.400   8.969  0.6443 -0.4796  0.6685
  183SLPC  C31621069   4.405   3.245   8.808  0.4627  0.0674  0.1390
  183SLPC  H16X21070   4.479   3.164   8.793  0.0444 -0.1885 -0.5958
  183SLPC  H16Y21071   4.440   3.326   8.740 -1.1131  0.7752  0.1310
  183SLPC  C31721072   4.271   3.182   8.782 -0.3913 -0.0749  0.3726
  183SLPC  H17X21073   4.235   3.115   8.862 -1.6777 -0.4412 -0.4856
  183SLPC  H17Y21074   4.282   3.117   8.693 -0.2276 -1.1927  1.1844
  183SLPC  C31821075   4.161   3.288   8.749 -0.1255  0.0476 -0.7401
  183SLPC  H18X21076   4.142   3.352   8.838 -0.5352 -1.6138  0.4192
  183SLPC  H18Y21077   4.061   3.248   8.720 -0.6650  0.3178  0.6751
  183SLPC  H18Z21078   4.195   3.354   8.667 -1.2144  1.0424 -0.4106
  184SLPC     N21079   5.021   1.747  11.365 -0.3028  0.2679  0.2998
  184SLPC   C1321080   5.051   1.725  11.506  0.1904 -0.5803  1.1404
  184SLPC  H13A21081   4.954   1.709  11.551  0.4460 -0.1152  1.8600
  184SLPC  H13B21082   5.115   1.640  11.526 -0.2489 -1.3468 -0.4872
  184SLPC  H13C21083   5.097   1.811  11.553  2.7277 -0.2195 -1.6766
  184SLPC   C1421084   4.954   1.628  11.313  0.6332 -0.2378  0.0712
  184SLPC  H14A21085   5.009   1.535  11.323 -0.5509 -1.0816 -0.9003
  184SLPC  H14B21086   4.859   1.609  11.361  2.1780 -0.2839  3.4137
  184SLPC  H14C21087   4.941   1.628  11.206 -1.3391 -2.6673  0.2173
  184SLPC   C1521088   5.140   1.773  11.286 -0.1997 -0.0260 -0.7208
  184SLPC  H15A21089   5.227   1.733  11.337  0.9291  1.4585 -1.4042
  184SLPC  H15B21090   5.139   1.716  11.195  0.6141 -0.0539 -0.7160
  184SLPC  H15C21091   5.162   1.878  11.275 -1.8451  0.3654 -0.5942
  184SLPC   C1221092   4.928   1.863  11.361  0.1488 -0.8684  0.3534
  184SLPC  H12A21093   4.944   1.942  11.433 -0.5850  0.0533 -0.4544
  184SLPC  H12B21094   4.835   1.820  11.395 -0.0780 -0.4860  0.2218
  184SLPC   C1121095   4.894   1.924  11.212 -0.0119  0.0470 -0.3681
  184SLPC  H11A21096   4.809   1.994  11.226 -0.7394 -0.5219 -1.7185
  184SLPC  H11B21097   4.865   1.838  11.148  0.1347  0.4257 -0.9501
  184SLPC     P21098   5.065   2.133  11.210  0.1798 -0.1757 -0.1196
  184SLPC   O1321099   4.980   2.167  11.330 -0.0645  0.1450 -0.5685
  184SLPC   O1421100   5.206   2.108  11.249  0.7399 -0.0089 -0.8934
  184SLPC   O1221101   5.005   1.995  11.149  0.0862 -0.2115  0.8087
  184SLPC   O1121102   5.041   2.245  11.106 -0.5364 -0.2209 -0.1458
  184SLPC    C121103   4.914   2.279  11.053  0.3387 -0.0934  0.0533
  184SLPC    HA21104   4.834   2.247  11.124 -0.8051  2.8408  0.2386
  184SLPC    HB21105   4.907   2.389  11.038  0.6967 -0.1377 -0.4564
  184SLPC    C221106   4.881   2.198  10.923  0.3069  0.3652 -0.7093
  184SLPC    HS21107   4.883   2.088  10.939  0.9197  0.2032 -1.7688
  184SLPC   O2121108   4.979   2.224  10.815  0.3886 -0.2636  0.2067
  184SLPC   C2121109   5.015   2.121  10.734  0.6799 -0.4132 -0.1571
  184SLPC   O2221110   4.980   2.005  10.763 -0.0982 -0.0346  0.5010
  184SLPC   C2221111   5.068   2.180  10.607 -0.0582  0.1788 -0.0332
  184SLPC   H2R21112   5.020   2.277  10.582  0.6283  0.5696  0.1297
  184SLPC   H2S21113   5.171   2.210  10.635 -0.7154  0.3763  2.3257
  184SLPC    C321114   4.732   2.231  10.871  0.4450 -0.4287 -0.0036
  184SLPC    HX21115   4.728   2.341  10.856 -0.5548 -0.2322  1.4674
  184SLPC    HY21116   4.660   2.219  10.956 -0.2427  1.2195 -0.3144
  184SLPC   O3121117   4.697   2.159  10.752  0.4379 -0.3288 -0.0981
  184SLPC   C3121118   4.636   2.050  10.783  0.9026 -0.2407 -0.0875
  184SLPC   O3221119   4.603   2.011  10.894 -0.1534 -0.5809  0.1866
  184SLPC   C3221120   4.606   1.970  10.654 -0.2422 -0.7855  0.1086
  184SLPC   H2X21121   4.560   1.872  10.678 -2.1670 -0.1836 -0.9219
  184SLPC   H2Y21122   4.699   1.965  10.593  0.4260 -2.6320  1.1916
  184SLPC   C2321123   5.062   2.088  10.480  0.8267 -0.3103  0.0001
  184SLPC   H3R21124   4.956   2.068  10.454  0.5857 -1.3748  1.6668
  184SLPC   H3S21125   5.108   1.995  10.521 -1.0056 -0.3743  2.0830
  184SLPC   C2421126   5.144   2.142  10.359  0.0197  0.6486 -0.0848
  184SLPC   H4R21127   5.254   2.132  10.371  0.0680  2.9389  2.0283
  184SLPC   H4S21128   5.118   2.250  10.356  1.4448  1.2561  3.9651
  184SLPC   C2521129   5.105   2.072  10.226 -0.1656 -0.2328 -0.2375
  184SLPC   H5R21130   5.005   2.110  10.196  0.1576 -0.9953 -2.4094
  184SLPC   H5S21131   5.104   1.962  10.234 -2.2594 -0.3649 -1.7112
  184SLPC   C2621132   5.194   2.103  10.103 -0.6783  0.7886  0.7477
  184SLPC   H6R21133   5.296   2.066  10.124 -1.6210 -0.6040  3.2697
  184SLPC   H6S21134   5.210   2.211  10.084 -1.5281  1.1432  1.9408
  184SLPC   C2721135   5.145   2.030   9.976  0.5953  0.3828  0.3881
  184SLPC   H7R21136   5.045   2.071   9.950 -0.4496 -2.6822 -0.8529
  184SLPC   H7S21137   5.123   1.923   9.992  0.3885  0.2651 -0.5989
  184SLPC   C2821138   5.235   2.044   9.861 -0.4439  0.2661  0.7740
  184SLPC   H8R21139   5.189   1.983   9.779  2.6023  1.2071 -1.8273
  184SLPC   H8S21140   5.340   2.014   9.880  0.4345  2.6263  0.0318
  184SLPC   C2921141   5.246   2.191   9.819  0.4091 -0.2126 -0.1364
  184SLPC   H9R21142   5.205   2.272   9.881  1.4473  0.5442 -0.3951
  184SLPC  C21021143   5.305   2.242   9.709  0.2495 -0.0138  0.4611
  184SLPC  H10R21144   5.294   2.350   9.694 -0.1501  0.0095  0.9182
  184SLPC  C21121145   5.362   2.169   9.586 -0.1203 -0.3964 -0.0827
  184SLPC  H11R21146   5.401   2.070   9.617  1.5668 -0.9926 -3.6522
  184SLPC  H11S21147   5.450   2.231   9.559 -0.8708  0.8781  0.3226
  184SLPC  C21221148   5.243   2.151   9.489  0.5792 -0.3318  0.0502
  184SLPC  H12R21149   5.151   2.118   9.538  0.8588  0.5922  1.2309
  184SLPC  C21321150   5.248   2.153   9.356 -1.0486  0.2196 -0.3931
  184SLPC  H13R21151   5.158   2.136   9.296 -0.6454 -0.5352 -0.7968
  184SLPC  C21421152   5.368   2.178   9.271  0.6584 -0.5929  0.5064
  184SLPC  H14R21153   5.460   2.190   9.332  0.7384  2.9360 -0.1279
  184SLPC  H14S21154   5.345   2.279   9.230  0.2931 -2.1605 -3.6126
  184SLPC  C21521155   5.388   2.078   9.152 -0.6367  0.9449 -0.2721
  184SLPC  H15R21156   5.300   2.063   9.086 -2.3384  2.5002  1.4814
  184SLPC  H15S21157   5.415   1.977   9.189 -0.4892  1.2893  0.5684
  184SLPC  C21621158   5.506   2.118   9.067 -0.5426  0.5809 -0.3827
  184SLPC  H16R21159   5.587   2.099   9.140 -0.3142  0.4387 -0.6729
  184SLPC  H16S21160   5.530   2.224   9.044  2.5359  0.4082  1.5145
  184SLPC  C21721161   5.527   2.020   8.943 -0.4736 -0.1413  0.8801
  184SLPC  H17R21162   5.521   1.917   8.983 -0.7941  0.0497  1.3368
  184SLPC  H17S21163   5.627   2.047   8.904 -0.3114 -1.4901  0.3246
  184SLPC  C21821164   5.425   2.018   8.830  0.8609 -0.8915 -0.5049
  184SLPC  H18R21165   5.321   1.988   8.855  0.5819  0.5992  0.2394
  184SLPC  H18S21166   5.472   1.949   8.757  1.5498 -0.4482 -0.4828
  184SLPC  H18T21167   5.416   2.123   8.793  0.5766 -0.3131  1.0757
  184SLPC   C3321168   4.493   2.040  10.575  1.0148  0.0301 -0.0645
  184SLPC   H3X21169   4.524   2.143  10.544 -0.9820  0.6347 -0.2048
  184SLPC   H3Y21170   4.402   2.032  10.637  0.9704  0.7126 -0.0334
  184SLPC   C3421171   4.462   1.969  10.445 -0.0047 -0.4795  0.1008
  184SLPC   H4X21172   4.364   2.015  10.422  0.4017 -0.3569 -1.4886
  184SLPC   H4Y21173   4.464   1.861  10.468 -1.1050 -0.4160  0.5587
  184SLPC   C3521174   4.566   1.988  10.336  0.5786  0.9005 -0.5115
  184SLPC   H5X21175   4.668   1.958  10.369  0.3353  0.1544 -0.4224
  184SLPC   H5Y21176   4.574   2.099  10.331  0.6026  0.9076 -0.3384
  184SLPC   C3621177   4.512   1.930  10.206  0.7724 -0.0548 -0.1539
  184SLPC   H6X21178   4.401   1.937  10.203  0.8706  1.4629 -1.6368
  184SLPC   H6Y21179   4.530   1.821  10.194 -1.0624 -0.3179 -0.7031
  184SLPC   C3721180   4.561   2.018  10.083  0.2071  0.4825 -0.2658
  184SLPC   H7X21181   4.500   2.110  10.068  0.3824  0.5587 -0.5185
  184SLPC   H7Y21182   4.518   1.952  10.004 -2.2348 -2.1417  2.9636
  184SLPC   C3821183   4.711   2.054  10.077  0.7341 -0.4164  0.3447
  184SLPC   H8X21184   4.770   1.963  10.102  3.8019  1.3260 -0.1001
  184SLPC   H8Y21185   4.712   2.136  10.152 -0.4336 -1.3825  1.4646
  184SLPC   C3921186   4.762   2.102   9.939 -0.2995 -0.7576 -0.5937
  184SLPC   H9X21187   4.852   2.166   9.945 -0.1993 -0.9153 -0.4243
  184SLPC   H9Y21188   4.683   2.174   9.907 -0.8167  0.2937  2.7420
  184SLPC  C31021189   4.785   1.986   9.843  0.4962 -0.0245  1.1493
  184SLPC  H10X21190   4.706   1.909   9.834  1.4031 -0.8496 -0.0855
  184SLPC  H10Y21191   4.882   1.937   9.868  0.5670 -0.8725 -0.6473
  184SLPC  C31121192   4.808   2.049   9.705 -0.2467  0.4312  0.2134
  184SLPC  H11X21193   4.863   2.146   9.702 -0.8357  0.7602 -1.4338
  184SLPC  H11Y21194   4.702   2.076   9.684 -1.1185 -2.2420  0.8540
  184SLPC  C31221195   4.857   1.945   9.603 -0.2904  0.5594 -0.7526
  184SLPC  H12X21196   4.780   1.865   9.599 -1.5270  1.6956 -0.3846
  184SLPC  H12Y21197   4.956   1.899   9.625 -0.9682 -1.5852 -1.8382
  184SLPC  C31321198   4.861   2.014   9.465 -0.1385  0.6653  0.0491
  184SLPC  H13X21199   4.915   2.107   9.494 -0.5197  0.1929  2.4617
  184SLPC  H13Y21200   4.755   2.036   9.441 -0.8495  0.5748  2.8742
  184SLPC  C31421201   4.917   1.922   9.356  0.0671  0.0388 -0.0270
  184SLPC  H14X21202   4.864   1.824   9.360 -2.2060  1.2436  0.8920
  184SLPC  H14Y21203   5.026   1.903   9.369  0.0479  0.5115  0.9346
  184SLPC  C31521204   4.871   1.985   9.224 -0.7445  0.4585  0.7295
  184SLPC  H15X21205   4.933   2.074   9.199 -1.3461  0.8135  0.4860
  184SLPC  H15Y21206   4.769   2.028   9.221 -0.0062  2.6530  3.0393
  184SLPC  C31621207   4.878   1.895   9.103 -0.3027  0.1094  0.5991
  184SLPC  H16X21208   4.973   1.838   9.095 -0.8298 -0.8514  0.9798
  184SLPC  H16Y21209   4.878   1.968   9.019  1.4102  1.2083  1.5061
  184SLPC  C31721210   4.757   1.807   9.091 -0.7678 -0.1269  0.1121
  184SLPC  H17X21211   4.668   1.860   9.129 -1.0580 -1.0362  0.7111
  184SLPC  H17Y21212   4.765   1.726   9.166  2.3611  0.8617  1.0173
  184SLPC  C31821213   4.735   1.751   8.952 -0.4849  0.4852 -0.3325
  184SLPC  H18X21214   4.755   1.830   8.876  0.8396 -0.3948 -0.9197
  184SLPC  H18Y21215   4.632   1.712   8.934 -0.3205  0.4545 -1.2473
  184SLPC  H18Z21216   4.821   1.683   8.936  1.6168  2.3996  1.9226
  185SLPC     N21217   4.978   3.354   6.501  0.2355  1.1123  0.2601
  185SLPC   C1321218   4.957   3.498   6.511 -0.3515 -0.5438  0.0197
  185SLPC  H13A21219   5.046   3.551   6.483 -0.3062 -2.1695 -3.3814
  185SLPC  H13B21220   4.872   3.535   6.456 -1.5873 -1.2475  1.3669
  185SLPC  H13C21221   4.927   3.519   6.613 -0.8776 -1.6868  0.1240
  185SLPC   C1421222   5.026   3.322   6.360  0.5266 -0.3263  0.5862
  185SLPC  H14A21223   5.101   3.395   6.335  1.3045 -1.0097  0.8812
  185SLPC  H14B21224   5.066   3.224   6.338  1.1773 -0.0134  0.3509
  185SLPC  H14C21225   4.945   3.339   6.290  0.3065 -2.9386  0.0804
  185SLPC   C1521226   4.845   3.284   6.514 -1.0018 -0.0633  0.3555
  185SLPC  H15A21227   4.861   3.178   6.519  0.8653  0.2489  2.3244
  185SLPC  H15B21228   4.794   3.302   6.607 -1.7155 -1.5038  0.2659
  185SLPC  H15C21229   4.775   3.311   6.436  0.0422  2.1691  0.1059
  185SLPC   C1221230   5.091   3.307   6.590 -0.0824  0.8691  0.4566
  185SLPC  H12A21231   5.183   3.356   6.561 -0.8390  1.2510 -1.4341
  185SLPC  H12B21232   5.107   3.202   6.574 -0.5803  0.8752 -0.0949
  185SLPC   C1121233   5.061   3.324   6.739 -0.0913  0.0783  0.7626
  185SLPC  H11A21234   5.049   3.433   6.755  2.2010  0.3886  0.7577
  185SLPC  H11B21235   5.148   3.298   6.803 -0.2153  0.6312  1.1583
  185SLPC     P21236   4.947   3.095   6.813  0.0563  0.2090 -0.2177
  185SLPC   O1321237   4.810   3.039   6.796 -0.2506 -0.6381  0.0084
  185SLPC   O1421238   5.054   3.030   6.730 -0.0322  0.1696 -0.0496
  185SLPC   O1221239   4.944   3.245   6.776  0.3175 -0.0875 -0.1125
  185SLPC   O1121240   4.981   3.104   6.965 -0.3571 -0.1123 -0.1493
  185SLPC    C121241   4.915   3.179   7.070 -0.7366  0.5896 -0.3480
  185SLPC    HA21242   4.814   3.220   7.045 -0.9597  1.9880  2.5055
  185SLPC    HB21243   4.905   3.126   7.167  1.3736 -1.2970 -1.0645
  185SLPC    C221244   5.001   3.301   7.113  0.1791  0.4830  0.1270
  185SLPC    HS21245   5.045   3.338   7.018 -1.9151 -1.7363 -1.8425
  185SLPC   O2121246   5.110   3.251   7.190 -0.3142  0.4030 -0.1630
  185SLPC   C2121247   5.223   3.317   7.179 -0.5094 -0.2420 -0.0851
  185SLPC   O2221248   5.252   3.412   7.108 -0.1412 -0.0359  0.7680
  185SLPC   C2221249   5.318   3.269   7.288  0.0573 -0.2171 -0.1205
  185SLPC   H2R21250   5.285   3.314   7.383  0.6542 -0.8782  0.4112
  185SLPC   H2S21251   5.309   3.158   7.289  1.9917 -0.4043  1.0427
  185SLPC    C321252   4.924   3.413   7.186 -0.4693 -0.1309  0.5345
  185SLPC    HX21253   4.847   3.443   7.111 -0.5746 -0.2973  0.5730
  185SLPC    HY21254   4.985   3.505   7.189  0.0149 -0.4565  0.8079
  185SLPC   O3121255   4.866   3.375   7.311 -0.5670 -0.6717  0.4456
  185SLPC   C3121256   4.948   3.374   7.417 -0.2015 -0.7111  0.1817
  185SLPC   O3221257   5.063   3.417   7.429 -0.2015  0.4743  0.7538
  185SLPC   C3221258   4.868   3.303   7.523  0.3250 -0.2918 -0.5931
  185SLPC   H2X21259   4.836   3.201   7.491 -1.0441 -0.1107  0.1098
  185SLPC   H2Y21260   4.768   3.352   7.523  0.7034  0.6013  1.6084
  185SLPC   C2321261   5.463   3.305   7.262  0.4488 -0.5292 -0.3046
  185SLPC   H3R21262   5.490   3.413   7.261 -1.8740  0.1256 -0.2635
  185SLPC   H3S21263   5.494   3.253   7.168  2.4807 -0.2074  0.1454
  185SLPC   C2421264   5.557   3.249   7.371 -0.0093 -0.1387 -0.8990
  185SLPC   H4R21265   5.663   3.282   7.364 -0.6406  1.9148 -1.4318
  185SLPC   H4S21266   5.569   3.139   7.373 -2.9878 -0.5423 -0.7509
  185SLPC   C2521267   5.530   3.302   7.516  0.0702 -0.5830 -0.6773
  185SLPC   H5R21268   5.423   3.291   7.545 -0.5378  2.0958 -1.5832
  185SLPC   H5S21269   5.543   3.412   7.518  0.9009 -0.6693  1.3810
  185SLPC   C2621270   5.622   3.248   7.621 -0.4222  0.0179  0.2012
  185SLPC   H6R21271   5.730   3.264   7.603  0.4059 -2.9984  1.6934
  185SLPC   H6S21272   5.607   3.138   7.629  3.3565 -0.6032  0.3578
  185SLPC   C2721273   5.594   3.309   7.755  0.0127  0.1117  0.3293
  185SLPC   H7R21274   5.487   3.293   7.779  0.0644  0.7482  0.9999
  185SLPC   H7S21275   5.615   3.417   7.741 -3.7902  0.5709 -3.9278
  185SLPC   C2821276   5.693   3.266   7.861  0.1907  0.7259 -0.4731
  185SLPC   H8R21277   5.799   3.284   7.836  0.4988 -0.2432  0.0649
  185SLPC   H8S21278   5.686   3.155   7.863  1.7771  0.5786 -1.2882
  185SLPC   C2921279   5.655   3.322   8.002 -0.4401  0.6529 -0.1583
  185SLPC   H9R21280   5.700   3.416   8.034 -0.0041 -0.3702  2.4307
  185SLPC  C21021281   5.567   3.274   8.094 -0.0837  0.1557  0.0735
  185SLPC  H10R21282   5.539   3.345   8.173 -0.4803  2.6135 -2.1326
  185SLPC  C21121283   5.480   3.151   8.092 -0.1657 -0.1024  0.0453
  185SLPC  H11R21284   5.493   3.090   8.184 -0.0814  0.0853  0.1585
  185SLPC  H11S21285   5.519   3.088   8.009 -1.0287 -0.0488 -0.4132
  185SLPC  C21221286   5.333   3.154   8.084  0.1642 -0.1956  0.0787
  185SLPC  H12R21287   5.292   3.122   7.987  0.6828 -1.5345  0.2775
  185SLPC  C21321288   5.244   3.203   8.173 -0.3696 -0.1413  1.3638
  185SLPC  H13R21289   5.139   3.191   8.142 -0.5212  1.7343  1.0298
  185SLPC  C21421290   5.260   3.262   8.308 -0.0576  0.2824  0.3452
  185SLPC  H14R21291   5.200   3.354   8.323  1.1376  1.0785  0.3503
  185SLPC  H14S21292   5.369   3.284   8.313 -0.0715  0.2153  0.9438
  185SLPC  C21521293   5.215   3.161   8.425  0.0192 -0.4683  1.8272
  185SLPC  H15R21294   5.272   3.067   8.409  0.4273  0.2150 -1.4178
  185SLPC  H15S21295   5.109   3.136   8.402 -0.5907  1.4950  2.3039
  185SLPC  C21621296   5.218   3.208   8.569 -0.7041  0.0391  0.2017
  185SLPC  H16R21297   5.164   3.305   8.575  1.1183  1.0350  1.7141
  185SLPC  H16S21298   5.326   3.223   8.591 -0.6738 -0.7098  0.6191
  185SLPC  C21721299   5.154   3.113   8.663 -0.5904 -0.1285 -0.4694
  185SLPC  H17R21300   5.163   3.006   8.636 -0.0049 -0.4355  0.8758
  185SLPC  H17S21301   5.047   3.142   8.669 -0.3343  1.1679 -1.6497
  185SLPC  C21821302   5.212   3.136   8.802 -0.7612 -0.6941  0.2205
  185SLPC  H18R21303   5.234   3.245   8.803 -1.4214 -0.5440 -0.4162
  185SLPC  H18S21304   5.309   3.086   8.821 -0.7102 -1.7514 -2.3767
  185SLPC  H18T21305   5.139   3.119   8.884 -0.2340 -2.1441  0.4151
  185SLPC   C3321306   4.912   3.297   7.671  0.5648 -0.5979 -0.2517
  185SLPC   H3X21307   4.908   3.397   7.721  1.2849 -0.9505  0.5257
  185SLPC   H3Y21308   5.020   3.273   7.663  0.8365  1.0568 -2.6758
  185SLPC   C3421309   4.838   3.192   7.751  0.2575 -0.1658 -0.9145
  185SLPC   H4X21310   4.856   3.093   7.703  0.3459 -1.3098  1.3315
  185SLPC   H4Y21311   4.730   3.215   7.754  1.1300  4.9995 -0.0926
  185SLPC   C3521312   4.879   3.186   7.902 -0.4805  0.1410  0.0696
  185SLPC   H5X21313   4.864   3.287   7.945  0.6361  0.5180 -0.4096
  185SLPC   H5Y21314   4.985   3.157   7.919 -1.6681 -3.7100  2.4231
  185SLPC   C3621315   4.780   3.090   7.974 -0.6132  0.0454  0.0292
  185SLPC   H6X21316   4.779   2.989   7.929 -0.3301  0.2686 -0.4894
  185SLPC   H6Y21317   4.675   3.123   7.960 -0.9074 -1.6528 -2.3393
  185SLPC   C3721318   4.797   3.091   8.128 -0.5233 -1.1384  0.3617
  185SLPC   H7X21319   4.805   3.195   8.168  2.5895 -1.1422  0.0072
  185SLPC   H7Y21320   4.891   3.038   8.156  1.6935  0.4370 -3.2801
  185SLPC   C3821321   4.685   3.013   8.199 -0.2008  0.2804 -0.1507
  185SLPC   H8X21322   4.688   2.904   8.178 -0.1292  0.3805 -0.6538
  185SLPC   H8Y21323   4.586   3.059   8.179 -0.1240  0.4433 -0.1489
  185SLPC   C3921324   4.705   3.027   8.351 -0.5110  0.0102  0.1870
  185SLPC   H9X21325   4.669   3.128   8.381 -3.2353 -1.4295  2.2424
  185SLPC   H9Y21326   4.814   3.021   8.374 -0.7683 -0.5791  1.3083
  185SLPC  C31021327   4.633   2.925   8.433  0.1497 -0.3935 -0.8845
  185SLPC  H10X21328   4.678   2.827   8.408  3.3050  1.0649 -1.3439
  185SLPC  H10Y21329   4.526   2.919   8.401 -0.3685 -1.9275  0.9173
  185SLPC  C31121330   4.652   2.956   8.584  0.5269 -0.1436 -0.3982
  185SLPC  H11X21331   4.605   3.055   8.600  4.4525  1.7095  1.1934
  185SLPC  H11Y21332   4.762   2.966   8.599  0.5271 -1.6784  0.8911
  185SLPC  C31221333   4.599   2.844   8.674 -0.2680  0.1194 -0.9052
  185SLPC  H12X21334   4.645   2.844   8.775  0.1270  1.3409 -1.0706
  185SLPC  H12Y21335   4.634   2.745   8.640  0.6584  0.6192 -1.4458
  185SLPC  C31321336   4.444   2.841   8.679  0.0159  0.0918  0.2217
  185SLPC  H13X21337   4.411   2.815   8.576 -0.4635  0.5386  0.2591
  185SLPC  H13Y21338   4.413   2.944   8.708  1.8946  0.4238  1.2008
  185SLPC  C31421339   4.385   2.737   8.769 -0.5988  0.2101  0.3467
  185SLPC  H14X21340   4.279   2.765   8.791 -1.1110 -1.0578 -0.3771
  185SLPC  H14Y21341   4.436   2.734   8.868  2.4326 -1.5077 -1.1132
  185SLPC  C31521342   4.396   2.592   8.711  0.1773 -0.7567 -0.3277
  185SLPC  H15X21343   4.495   2.556   8.747  1.5801  1.6296 -1.5729
  185SLPC  H15Y21344   4.390   2.604   8.600  1.0661 -2.2359 -0.5653
  185SLPC  C31621345   4.285   2.509   8.775  0.0609 -0.2213  0.0112
  185SLPC  H16X21346   4.186   2.554   8.750  0.0435 -0.8974 -1.2178
  185SLPC  H16Y21347   4.299   2.502   8.885 -0.0909 -0.6401  0.0065
  185SLPC  C31721348   4.267   2.362   8.729  0.3967  0.0122  0.2158
  185SLPC  H17X21349   4.365   2.310   8.735 -0.2486 -1.2895 -0.1691
  185SLPC  H17Y21350   4.220   2.355   8.629 -2.4297  1.4156  1.3206
  185SLPC  C31821351   4.174   2.279   8.823 -0.2492 -0.4357  0.5466
  185SLPC  H18X21352   4.073   2.324   8.815  0.1045  0.3393  0.3034
  185SLPC  H18Y21353   4.206   2.308   8.925 -2.1984  0.0451  1.0727
  185SLPC  H18Z21354   4.177   2.170   8.806 -2.9153 -0.1378 -3.1883
  186SLPC     N21355   5.584   5.842   6.087 -0.0494 -0.8418  0.1867
  186SLPC   C1321356   5.445   5.796   6.066 -0.2289 -0.1425 -0.4341
  186SLPC  H13A21357   5.374   5.864   6.113 -0.2503 -1.0179  0.8313
  186SLPC  H13B21358   5.415   5.798   5.962  1.1539 -1.4105 -0.8841
  186SLPC  H13C21359   5.439   5.694   6.099 -1.0774 -0.4770 -1.5647
  186SLPC   C1421360   5.607   5.969   6.011  0.2971 -0.3538 -0.3060
  186SLPC  H14A21361   5.604   5.953   5.904 -3.5288 -0.1313 -0.3607
  186SLPC  H14B21362   5.536   6.046   6.038  1.7086  0.9038 -0.0507
  186SLPC  H14C21363   5.704   6.013   6.030  1.7848 -3.7427  0.6305
  186SLPC   C1521364   5.678   5.740   6.040  0.0709 -0.0914  0.3665
  186SLPC  H15A21365   5.781   5.773   6.050  0.0780 -0.4138  1.5143
  186SLPC  H15B21366   5.671   5.659   6.112  2.2913  2.4317  3.7810
  186SLPC  H15C21367   5.668   5.709   5.937 -0.1780  2.1295 -0.3204
  186SLPC   C1221368   5.600   5.870   6.236 -0.0366  0.3982  0.5335
  186SLPC  H12A21369   5.535   5.952   6.262 -1.2333 -0.5901  0.7734
  186SLPC  H12B21370   5.697   5.917   6.238  1.0713 -1.6961 -0.7617
  186SLPC   C1121371   5.599   5.760   6.341 -0.2133 -0.5717 -0.1948
  186SLPC  H11A21372   5.495   5.724   6.358  0.4651 -1.7823  1.7248
  186SLPC  H11B21373   5.639   5.811   6.431  1.7361  0.8507 -1.7807
  186SLPC     P21374   5.675   5.515   6.388  0.7098 -0.3509 -0.2125
  186SLPC   O1321375   5.536   5.474   6.377  0.4216 -0.0452  0.5770
  186SLPC   O1421376   5.777   5.413   6.342  0.4094  0.2840  0.0225
  186SLPC   O1221377   5.692   5.655   6.314  0.0649 -0.3882  0.0245
  186SLPC   O1121378   5.688   5.556   6.544  0.3081 -0.1069  0.6370
  186SLPC    C121379   5.817   5.580   6.596  0.1021  0.5763  0.0317
  186SLPC    HA21380   5.889   5.515   6.542 -0.4926  0.3911 -0.5557
  186SLPC    HB21381   5.849   5.686   6.591  3.1249 -0.3109 -2.2266
  186SLPC    C221382   5.825   5.538   6.746  0.0562  0.2228  0.5642
  186SLPC    HS21383   5.781   5.436   6.746  1.0864 -0.2274  0.3522
  186SLPC   O2121384   5.747   5.628   6.830 -0.3828  0.9010 -0.7364
  186SLPC   C2121385   5.684   5.580   6.940 -0.1454 -1.1353 -0.2483
  186SLPC   O2221386   5.671   5.461   6.966  0.3915 -0.0181  0.2831
  186SLPC   C2221387   5.665   5.698   7.039  0.4495  0.1408  0.0481
  186SLPC   H2R21388   5.748   5.769   7.016  2.3475 -1.7417  0.7475
  186SLPC   H2S21389   5.566   5.746   7.028  1.2135  1.4439 -1.5280
  186SLPC    C321390   5.962   5.529   6.802 -0.2470  0.4414 -0.0433
  186SLPC    HX21391   6.022   5.623   6.801  0.4342  0.0107 -0.5806
  186SLPC    HY21392   6.014   5.449   6.745  1.2188  1.2187  0.1559
  186SLPC   O3121393   5.946   5.476   6.939  0.5094 -0.2425 -0.0103
  186SLPC   C3121394   6.053   5.410   6.986 -0.4796  0.1360 -0.0986
  186SLPC   O3221395   6.156   5.401   6.926 -0.6857  0.2335  0.3672
  186SLPC   C3221396   6.038   5.361   7.132  0.2067 -0.2176  0.2849
  186SLPC   H2X21397   6.040   5.250   7.128  0.4483 -0.2209  0.4731
  186SLPC   H2Y21398   5.938   5.395   7.165  1.1559  1.3584  1.7095
  186SLPC   C2321399   5.692   5.631   7.176 -0.0153 -0.0942  0.2035
  186SLPC   H3R21400   5.782   5.567   7.171  0.1184  0.0681  0.5326
  186SLPC   H3S21401   5.598   5.578   7.205 -1.0573  0.0463 -2.5814
  186SLPC   C2421402   5.712   5.740   7.282 -0.1952  0.4079  0.4330
  186SLPC   H4R21403   5.614   5.792   7.273 -0.7255 -0.4806  1.0132
  186SLPC   H4S21404   5.787   5.822   7.270 -0.7304  1.0300  1.2191
  186SLPC   C2521405   5.736   5.685   7.426 -0.5727  0.6860  0.4832
  186SLPC   H5R21406   5.818   5.610   7.418 -0.8503  0.2035  1.9570
  186SLPC   H5S21407   5.642   5.630   7.449 -1.4712  1.7386 -0.5266
  186SLPC   C2621408   5.771   5.793   7.524 -0.4318  0.1662 -0.5499
  186SLPC   H6R21409   5.678   5.854   7.536 -0.2403  0.0795  1.8704
  186SLPC   H6S21410   5.858   5.855   7.494 -0.3859  0.7496  0.7098
  186SLPC   C2721411   5.796   5.736   7.663  0.1871 -0.9006 -0.8610
  186SLPC   H7R21412   5.889   5.674   7.664 -0.4254 -1.8347 -0.9345
  186SLPC   H7S21413   5.711   5.667   7.683  0.0591 -1.2712 -2.4922
  186SLPC   C2821414   5.814   5.848   7.764  0.3121  0.1037  0.9420
  186SLPC   H8R21415   5.731   5.917   7.737  0.5435  0.1948  0.4611
  186SLPC   H8S21416   5.910   5.901   7.745 -0.0531  1.3912  2.4730
  186SLPC   C2921417   5.778   5.796   7.901 -0.6409  0.1436 -0.1646
  186SLPC   H9R21418   5.690   5.731   7.904 -2.1179  2.0694  1.7401
  186SLPC  C21021419   5.823   5.833   8.020 -0.0994 -0.1209  0.0084
  186SLPC  H10R21420   5.775   5.787   8.108 -0.0386 -0.3433 -0.0733
  186SLPC  C21121421   5.929   5.933   8.045 -0.7280  0.1238 -1.0007
  186SLPC  H11R21422   5.882   6.031   8.020 -2.2475 -0.9876 -2.8197
  186SLPC  H11S21423   6.007   5.936   7.966  0.3903  1.7308  0.0929
  186SLPC  C21221424   6.002   5.933   8.176 -0.1148 -0.6295  0.8629
  186SLPC  H12R21425   6.066   5.844   8.185 -0.2168 -0.7105  0.7797
  186SLPC  C21321426   5.999   6.017   8.279 -0.0488 -0.4643 -0.4720
  186SLPC  H13R21427   6.069   6.012   8.363 -1.7998  0.1789  1.1012
  186SLPC  C21421428   5.903   6.136   8.278 -0.6976  0.1439 -0.4607
  186SLPC  H14R21429   5.838   6.140   8.188 -1.4398 -2.1970 -0.0856
  186SLPC  H14S21430   5.952   6.236   8.269 -0.1616 -0.0527  0.1937
  186SLPC  C21521431   5.818   6.139   8.407  0.1763 -0.1372 -0.2670
  186SLPC  H15R21432   5.878   6.127   8.500 -0.6137  1.2486  0.4633
  186SLPC  H15S21433   5.740   6.061   8.409 -0.5807  0.6027 -0.1358
  186SLPC  C21621434   5.754   6.276   8.427  0.1251 -0.1907 -0.3509
  186SLPC  H16R21435   5.701   6.290   8.330 -1.2470 -2.4767 -0.0031
  186SLPC  H16S21436   5.827   6.359   8.427  0.6840 -0.6763 -0.5306
  186SLPC  C21721437   5.658   6.283   8.549 -0.4621 -0.4384 -0.1913
  186SLPC  H17R21438   5.727   6.284   8.636  0.7406 -0.6690 -1.1075
  186SLPC  H17S21439   5.602   6.189   8.566 -2.0613  0.7551  1.4450
  186SLPC  C21821440   5.564   6.408   8.560  0.1604 -0.2186 -0.7349
  186SLPC  H18R21441   5.536   6.411   8.667 -0.6071 -0.9627 -0.8936
  186SLPC  H18S21442   5.474   6.388   8.497  1.7987 -2.7832 -2.4463
  186SLPC  H18T21443   5.624   6.499   8.538 -2.0879  1.8885  1.2771
  186SLPC   C3321444   6.154   5.419   7.221  0.3737  0.3321  0.1709
  186SLPC   H3X21445   6.182   5.516   7.174 -0.3053 -1.0070 -3.2829
  186SLPC   H3Y21446   6.245   5.356   7.215 -0.4026 -0.9149  0.9234
  186SLPC   C3421447   6.113   5.434   7.371  1.0672  0.3038  0.2090
  186SLPC   H4X21448   6.033   5.511   7.370  0.5265 -0.2446 -1.2420
  186SLPC   H4Y21449   6.195   5.485   7.425  1.8024 -0.3108 -0.2983
  186SLPC   C3521450   6.075   5.301   7.442 -0.1935  0.9405  0.1300
  186SLPC   H5X21451   6.159   5.254   7.497 -2.3527 -2.5607  0.7045
  186SLPC   H5Y21452   6.055   5.221   7.368 -0.6003 -0.1651  1.4053
  186SLPC   C3621453   5.941   5.305   7.523 -0.0961  0.1072 -0.2356
  186SLPC   H6X21454   5.921   5.201   7.557 -3.0985  0.1599 -1.4996
  186SLPC   H6Y21455   5.858   5.328   7.454 -0.6542 -0.8051  0.1136
  186SLPC   C3721456   5.945   5.388   7.653 -0.2050  0.0352 -0.1226
  186SLPC   H7X21457   5.841   5.396   7.690 -0.3064 -0.5937 -0.2698
  186SLPC   H7Y21458   5.966   5.489   7.610 -1.2349  0.7793  1.0378
  186SLPC   C3821459   6.044   5.342   7.755 -0.0251 -0.4948 -0.3454
  186SLPC   H8X21460   6.145   5.353   7.710 -0.5941  2.5572 -1.0747
  186SLPC   H8Y21461   6.031   5.234   7.779  0.2913 -1.0662 -2.5599
  186SLPC   C3921462   6.054   5.417   7.891 -0.0859 -0.1778  0.1046
  186SLPC   H9X21463   6.083   5.523   7.876  0.7602 -0.6558 -1.9601
  186SLPC   H9Y21464   6.138   5.370   7.946  1.6659  0.1014 -2.1987
  186SLPC  C31021465   5.927   5.422   7.977  0.3151 -0.4002 -0.5233
  186SLPC  H10X21466   5.881   5.323   7.995  0.4698 -0.3631  0.1048
  186SLPC  H10Y21467   5.854   5.489   7.925 -1.1178 -1.6626 -0.2202
  186SLPC  C31121468   5.965   5.475   8.116 -0.5655  0.0485  0.6602
  186SLPC  H11X21469   6.038   5.558   8.101 -0.2513 -0.5548 -1.4981
  186SLPC  H11Y21470   6.024   5.400   8.172  1.2754  0.4538 -0.6197
  186SLPC  C31221471   5.842   5.508   8.207  0.6353  0.3536  0.4488
  186SLPC  H12X21472   5.755   5.442   8.225  0.7272 -1.2747 -3.8017
  186SLPC  H12Y21473   5.798   5.598   8.159  1.0048  0.8467  1.0328
  186SLPC  C31321474   5.881   5.527   8.349  0.0551  0.8030 -0.3340
  186SLPC  H13X21475   5.975   5.586   8.340 -0.3692  1.7735  1.2227
  186SLPC  H13Y21476   5.914   5.430   8.391  4.0258  2.5035  1.0141
  186SLPC  C31421477   5.778   5.602   8.424  0.0802 -0.5141 -0.2514
  186SLPC  H14X21478   5.700   5.523   8.430  0.5129 -1.3062 -3.3483
  186SLPC  H14Y21479   5.745   5.686   8.359 -0.0645 -0.9861 -0.7928
  186SLPC  C31521480   5.829   5.660   8.553  0.4029 -0.7566  0.0666
  186SLPC  H15X21481   5.925   5.714   8.538 -0.4205  0.7552  0.0318
  186SLPC  H15Y21482   5.850   5.570   8.615  0.8181 -0.7477 -0.0569
  186SLPC  C31621483   5.728   5.764   8.618 -0.1269  0.1739  0.6254
  186SLPC  H16X21484   5.636   5.705   8.641 -0.0631  0.1700  0.8660
  186SLPC  H16Y21485   5.700   5.835   8.538  1.7925  1.3014  0.8976
  186SLPC  C31721486   5.788   5.838   8.732  0.6273  0.2157 -0.6084
  186SLPC  H17X21487   5.884   5.879   8.695 -0.1630 -0.2262 -3.3344
  186SLPC  H17Y21488   5.808   5.763   8.813 -0.3392 -0.6768 -1.1747
  186SLPC  C31821489   5.705   5.955   8.797 -0.3893 -0.5730  0.3189
  186SLPC  H18X21490   5.756   5.984   8.892 -2.4059 -1.0889  1.6257
  186SLPC  H18Y21491   5.597   5.930   8.807 -0.7005  0.1937 -0.8621
  186SLPC  H18Z21492   5.713   6.041   8.727 -0.7725 -0.0169  0.9464
  187SLPC     N21493   0.969   0.924   6.599  0.0625  0.4945  0.1893
  187SLPC   C1321494   0.922   0.956   6.740 -0.3011 -0.4691  0.5193
  187SLPC  H13A21495   1.004   0.984   6.804  0.1252  1.3770 -0.7508
  187SLPC  H13B21496   0.842   1.029   6.735  0.0248 -0.2005 -2.4493
  187SLPC  H13C21497   0.866   0.870   6.775 -2.6645  1.2740  1.2389
  187SLPC   C1421498   0.854   0.870   6.519  0.1220  0.2316 -0.5689
  187SLPC  H14A21499   0.884   0.858   6.416  0.4006  0.0539 -0.4680
  187SLPC  H14B21500   0.799   0.787   6.560 -0.1301  0.8455  0.3594
  187SLPC  H14C21501   0.781   0.950   6.515  0.2132  0.5514  2.2863
  187SLPC   C1521502   1.072   0.820   6.605  0.3911 -0.0542 -0.1400
  187SLPC  H15A21503   1.161   0.854   6.657  0.2007  0.8688 -0.3951
  187SLPC  H15B21504   1.028   0.729   6.641  1.3598  0.1086  1.5320
  187SLPC  H15C21505   1.099   0.804   6.501  0.3863  2.1597 -0.5260
  187SLPC   C1221506   1.038   1.053   6.546  0.3362 -0.2979  0.3840
  187SLPC  H12A21507   1.084   1.037   6.450 -1.0225  2.4423 -0.8080
  187SLPC  H12B21508   1.118   1.066   6.618  0.4511 -3.3571  0.9610
  187SLPC   C1121509   0.942   1.174   6.537  0.0583  0.2212 -0.0054
  187SLPC  H11A21510   0.902   1.207   6.636 -1.1402  0.4523 -0.5572
  187SLPC  H11B21511   0.864   1.147   6.463 -2.0221  2.0370  1.3925
  187SLPC     P21512   1.090   1.391   6.547  0.0811  0.0721  0.1847
  187SLPC   O1321513   1.231   1.355   6.529 -0.1457 -0.2759 -0.0075
  187SLPC   O1421514   1.047   1.529   6.505 -0.4156  0.5143  0.7489
  187SLPC   O1221515   1.004   1.283   6.464 -0.2484 -0.1078  0.0182
  187SLPC   O1121516   1.056   1.378   6.699  0.7129 -0.3089  0.7775
  187SLPC    C121517   1.027   1.499   6.773 -0.1365  0.3204  0.1933
  187SLPC    HA21518   1.067   1.478   6.875 -1.0053 -0.0551  0.4683
  187SLPC    HB21519   1.075   1.592   6.735  2.0252 -1.0385 -0.6131
  187SLPC    C221520   0.881   1.534   6.812  0.2286 -0.3453 -0.4365
  187SLPC    HS21521   0.845   1.614   6.744  1.2295  2.9838  2.6343
  187SLPC   O2121522   0.878   1.582   6.942 -0.1521 -0.2206 -0.1077
  187SLPC   C2121523   0.854   1.710   6.963 -0.0544  0.5775  0.4967
  187SLPC   O2221524   0.830   1.799   6.880 -0.5028  0.2060 -0.1476
  187SLPC   C2221525   0.846   1.728   7.112  0.2016 -0.2280  0.0878
  187SLPC   H2R21526   0.876   1.630   7.156  0.5161 -0.1499  0.0480
  187SLPC   H2S21527   0.934   1.790   7.140  0.1316 -0.1944  0.2384
  187SLPC    C321528   0.793   1.410   6.795  0.1770 -0.0676 -0.2752
  187SLPC    HX21529   0.851   1.327   6.839  0.2173 -0.3222 -0.8017
  187SLPC    HY21530   0.785   1.371   6.691 -1.8911 -1.9388  0.5098
  187SLPC   O3121531   0.661   1.426   6.858 -0.1117 -1.0037  0.2729
  187SLPC   C3121532   0.568   1.494   6.781  0.4569  0.7620 -0.1231
  187SLPC   O3221533   0.598   1.532   6.671 -0.2962 -1.0413  0.3225
  187SLPC   C3221534   0.430   1.487   6.846  0.0258 -0.4293 -0.3745
  187SLPC   H2X21535   0.396   1.381   6.854 -1.5888  0.1795  2.1622
  187SLPC   H2Y21536   0.352   1.540   6.787  0.0498  1.0275  0.8620
  187SLPC   C2321537   0.708   1.763   7.153  0.3444  0.9260  0.0113
  187SLPC   H3R21538   0.634   1.681   7.140  1.6319 -0.3505  0.4967
  187SLPC   H3S21539   0.677   1.854   7.098 -1.3270 -0.6281 -1.7856
  187SLPC   C2421540   0.712   1.818   7.299 -0.4546  0.3937  0.4208
  187SLPC   H4R21541   0.650   1.909   7.309  0.1053  0.7621  0.5922
  187SLPC   H4S21542   0.817   1.850   7.317 -0.1831 -0.6932  0.8685
  187SLPC   C2521543   0.673   1.714   7.400 -0.2326  0.0168  0.2854
  187SLPC   H5R21544   0.744   1.629   7.385  0.0021  0.1899  0.4058
  187SLPC   H5S21545   0.571   1.674   7.385 -0.2092 -0.6480  1.7156
  187SLPC   C2621546   0.672   1.763   7.547  0.0606 -0.2877  0.0172
  187SLPC   H6R21547   0.615   1.856   7.570  3.0483  1.6099  0.3092
  187SLPC   H6S21548   0.776   1.797   7.565 -0.0291 -0.2535  0.4897
  187SLPC   C2721549   0.637   1.649   7.640 -0.1527  0.1474 -0.5534
  187SLPC   H7R21550   0.711   1.568   7.654 -1.3505 -0.7445  1.0006
  187SLPC   H7S21551   0.544   1.595   7.609  0.3993 -2.0361  1.3029
  187SLPC   C2821552   0.599   1.697   7.785  0.0421  0.0227  0.5278
  187SLPC   H8R21553   0.555   1.609   7.836 -0.2956 -1.0117 -1.4466
  187SLPC   H8S21554   0.523   1.778   7.785  0.9942  0.9964 -1.4114
  187SLPC   C2921555   0.730   1.737   7.852  0.1913  0.0137 -0.6949
  187SLPC   H9R21556   0.757   1.840   7.824  3.7537 -0.5673  0.1414
  187SLPC  C21021557   0.798   1.681   7.950 -0.5317 -0.1453 -0.8816
  187SLPC  H10R21558   0.884   1.731   7.998 -0.6886 -0.8681  0.1896
  187SLPC  C21121559   0.774   1.543   8.008 -0.4478 -0.2281 -0.0881
  187SLPC  H11R21560   0.875   1.505   8.037  0.0515  2.1753  1.6522
  187SLPC  H11S21561   0.721   1.481   7.933  0.2357 -1.1994  0.2168
  187SLPC  C21221562   0.692   1.553   8.139  0.5939 -0.2172  0.3104
  187SLPC  H12R21563   0.588   1.591   8.131  0.2908 -1.3360 -1.5817
  187SLPC  C21321564   0.737   1.508   8.259 -0.3368 -0.3430  0.4306
  187SLPC  H13R21565   0.668   1.517   8.344 -2.1643  0.9552 -1.0995
  187SLPC  C21421566   0.863   1.432   8.286  0.5399 -0.0019  0.2609
  187SLPC  H14R21567   0.946   1.499   8.315 -0.2542  2.2108 -2.2166
  187SLPC  H14S21568   0.894   1.381   8.192  0.3982  1.9896 -0.9199
  187SLPC  C21521569   0.852   1.334   8.407  0.2755 -0.5929 -0.0568
  187SLPC  H15R21570   0.813   1.383   8.500  0.7773 -1.1487  0.4554
  187SLPC  H15S21571   0.958   1.304   8.426  0.2244  0.2477  1.8069
  187SLPC  C21621572   0.768   1.203   8.381 -0.0432  0.3388  0.4557
  187SLPC  H16R21573   0.800   1.159   8.285  2.3226  1.8728  0.4432
  187SLPC  H16S21574   0.660   1.229   8.384 -0.0584  0.3259  0.0480
  187SLPC  C21721575   0.781   1.096   8.492  0.0724 -0.3382 -0.5508
  187SLPC  H17R21576   0.883   1.057   8.510 -0.2289  0.1287  2.8169
  187SLPC  H17S21577   0.715   1.015   8.452 -1.2526  0.8150 -0.7804
  187SLPC  C21821578   0.709   1.135   8.627 -0.3860 -0.0604  0.3428
  187SLPC  H18R21579   0.606   1.166   8.600  0.1657  0.9058 -0.7817
  187SLPC  H18S21580   0.782   1.205   8.675  1.2112 -1.5275  0.1680
  187SLPC  H18T21581   0.693   1.045   8.689  1.9324 -2.4360 -2.2306
  187SLPC   C3321582   0.434   1.552   6.987 -0.0508  0.0369  0.4905
  187SLPC   H3X21583   0.460   1.660   6.985  2.0213 -0.4164  0.1303
  187SLPC   H3Y21584   0.513   1.498   7.043 -0.1490 -1.7393 -0.9993
  187SLPC   C3421585   0.299   1.540   7.062 -0.1150 -0.2524  0.2378
  187SLPC   H4X21586   0.274   1.431   7.056  1.4022 -0.7291  1.7475
  187SLPC   H4Y21587   0.221   1.594   7.005  0.0048  0.1379  0.4462
  187SLPC   C3521588   0.312   1.592   7.202 -0.2212  0.2440  0.3791
  187SLPC   H5X21589   0.345   1.699   7.201  1.0055 -0.0645 -2.2393
  187SLPC   H5Y21590   0.392   1.543   7.261 -1.2798 -1.8256  0.1706
  187SLPC   C3621591   0.177   1.586   7.270 -0.1386  0.5454  0.6297
  187SLPC   H6X21592   0.137   1.482   7.270  0.6299  0.2274 -0.6160
  187SLPC   H6Y21593   0.110   1.643   7.201  1.1382  0.9791 -0.2887
  187SLPC   C3721594   0.169   1.664   7.402  0.1677 -0.3464 -0.1545
  187SLPC   H7X21595   0.248   1.743   7.396 -1.6760  1.5823 -0.2087
  187SLPC   H7Y21596   0.066   1.698   7.425 -0.7940 -2.3327 -1.2934
  187SLPC   C3821597   0.220   1.566   7.514 -0.8090  0.4182  0.3571
  187SLPC   H8X21598   0.316   1.517   7.489  0.1828  2.0975  0.7635
  187SLPC   H8Y21599   0.143   1.486   7.523  1.0962 -1.2967  2.4053
  187SLPC   C3921600   0.242   1.640   7.646  0.5883 -0.4246  0.2337
  187SLPC   H9X21601   0.147   1.696   7.661  1.2092  0.4836  0.8502
  187SLPC   H9Y21602   0.321   1.716   7.634 -0.1253  0.3613  0.4239
  187SLPC  C31021603   0.271   1.532   7.757 -0.4625 -0.3560  0.2525
  187SLPC  H10X21604   0.367   1.489   7.724 -0.3719  1.8876 -2.8831
  187SLPC  H10Y21605   0.197   1.449   7.760  2.1750 -2.8488  1.6093
  187SLPC  C31121606   0.261   1.594   7.895 -0.0889  0.9514 -0.0939
  187SLPC  H11X21607   0.156   1.619   7.920 -1.3114 -1.4821 -2.3297
  187SLPC  H11Y21608   0.320   1.687   7.914  3.2084 -0.8265 -0.7966
  187SLPC  C31221609   0.310   1.495   8.002 -0.3404  0.0030  1.0900
  187SLPC  H12X21610   0.416   1.470   7.981 -0.5658 -0.1485  0.0632
  187SLPC  H12Y21611   0.249   1.403   8.000  1.4131 -1.2534  2.2671
  187SLPC  C31321612   0.308   1.546   8.145  0.2296 -0.7088 -0.6092
  187SLPC  H13X21613   0.209   1.586   8.176  0.1008 -2.0067  0.7636
  187SLPC  H13Y21614   0.362   1.643   8.139  0.4012 -0.8875 -2.6234
  187SLPC  C31421615   0.359   1.446   8.254  0.0007 -0.1285  0.2864
  187SLPC  H14X21616   0.467   1.428   8.234 -0.4457 -2.7724 -0.1222
  187SLPC  H14Y21617   0.304   1.352   8.232  0.7084 -1.0058  2.0960
  187SLPC  C31521618   0.336   1.488   8.403 -0.5011  0.1727 -0.0218
  187SLPC  H15X21619   0.235   1.533   8.416 -1.3977 -0.9896 -2.4921
  187SLPC  H15Y21620   0.409   1.563   8.440  0.0716 -1.2087  1.7853
  187SLPC  C31621621   0.341   1.373   8.505  0.1310  0.4727  0.0321
  187SLPC  H16X21622   0.429   1.309   8.480 -0.4687 -0.6799  0.7855
  187SLPC  H16Y21623   0.246   1.316   8.507 -0.0700  0.6686  4.2988
  187SLPC  C31721624   0.367   1.422   8.642  0.2689  0.0134 -0.0297
  187SLPC  H17X21625   0.280   1.488   8.664  0.3219 -0.5420  2.0431
  187SLPC  H17Y21626   0.462   1.480   8.638  1.4423 -1.9023 -2.1448
  187SLPC  C31821627   0.369   1.308   8.740  0.1371 -0.2997 -0.0766
  187SLPC  H18X21628   0.281   1.243   8.725 -0.7213  1.2738 -2.5061
  187SLPC  H18Y21629   0.366   1.348   8.844 -1.6742 -0.6308  0.0228
  187SLPC  H18Z21630   0.461   1.249   8.723  0.8375  0.6643  0.2256
  188SLPC     N21631   0.081   4.547   6.280 -0.1685  0.0529  0.5050
  188SLPC   C1321632   0.212   4.540   6.203 -0.0279 -0.0233  0.3062
  188SLPC  H13A21633   0.267   4.631   6.222  0.2135  0.4008 -2.0418
  188SLPC  H13B21634   0.281   4.468   6.245  0.9081  0.4391 -0.4049
  188SLPC  H13C21635   0.198   4.526   6.097  1.7101 -0.6148  0.1274
  188SLPC   C1421636   0.101   4.582   6.423 -0.4134  0.3969 -1.0642
  188SLPC  H14A21637   0.157   4.674   6.435  0.0380 -0.0720  0.7105
  188SLPC  H14B21638   0.007   4.591   6.475 -0.6066  2.4801 -1.6652
  188SLPC  H14C21639   0.167   4.511   6.469 -0.4288 -0.1785 -1.9136
  188SLPC   C1521640   0.024   4.411   6.278 -0.1042  0.9008  1.0419
  188SLPC  H15A21641   0.106   4.342   6.295 -0.6485  0.5881  2.6073
  188SLPC  H15B21642  -0.047   4.402   6.359 -3.5947  0.8728 -1.7932
  188SLPC  H15C21643  -0.037   4.395   6.190 -0.0367 -0.0603  1.1568
  188SLPC   C1221644  -0.009   4.647   6.208  0.3402 -0.5851  0.0399
  188SLPC  H12A21645  -0.000   4.622   6.103  1.4136 -0.6716  0.1404
  188SLPC  H12B21646   0.030   4.745   6.232 -0.7781 -0.7402  2.8589
  188SLPC   C1121647  -0.155   4.667   6.242 -0.5493  0.1253 -0.1300
  188SLPC  H11A21648  -0.203   4.568   6.233  1.4999 -0.9232 -0.1279
  188SLPC  H11B21649  -0.202   4.736   6.169 -2.4812  1.7037  2.4051
  188SLPC     P21650  -0.164   4.858   6.426  0.1973  0.1471  0.6114
  188SLPC   O1321651  -0.067   4.934   6.341 -0.4150  0.2938 -0.8398
  188SLPC   O1421652  -0.302   4.912   6.447 -0.2240 -0.1956 -0.1110
  188SLPC   O1221653  -0.176   4.705   6.379  0.4365  0.3111  0.6257
  188SLPC   O1121654  -0.087   4.851   6.563  0.7465 -0.3186 -0.2691
  188SLPC    C121655  -0.135   4.767   6.666 -0.1443 -0.1489  0.0239
  188SLPC    HA21656  -0.222   4.704   6.637 -0.5384  1.3706 -2.3700
  188SLPC    HB21657  -0.049   4.696   6.674  0.2768  0.2740 -0.6343
  188SLPC    C221658  -0.164   4.852   6.793 -0.9491 -0.3667  0.5800
  188SLPC    HS21659  -0.191   4.953   6.758 -2.0062 -1.3763 -1.6711
  188SLPC   O2121660  -0.038   4.854   6.871  0.2200  0.4744 -0.1795
  188SLPC   C2121661  -0.039   4.942   6.969  0.1226  0.3083  0.6352
  188SLPC   O2221662  -0.137   5.013   6.985 -0.5527  0.7250 -0.1434
  188SLPC   C2221663   0.096   4.949   7.037  0.2910  0.6681  0.2815
  188SLPC   H2R21664   0.112   4.866   7.109  0.8216  0.1268 -0.4408
  188SLPC   H2S21665   0.164   4.930   6.951  0.1551 -1.7523  0.6468
  188SLPC    C321666  -0.281   4.794   6.869 -0.3604  0.4741 -0.2120
  188SLPC    HX21667  -0.370   4.801   6.802 -0.8612  0.9913  0.4880
  188SLPC    HY21668  -0.318   4.862   6.949 -1.3021  0.5707 -0.7115
  188SLPC   O3121669  -0.261   4.657   6.911 -0.4620  0.8549  0.8720
  188SLPC   C3121670  -0.191   4.629   7.020 -0.2474  0.5788 -0.1722
  188SLPC   O3221671  -0.155   4.709   7.101 -0.0942 -0.5617  0.1245
  188SLPC   C3221672  -0.175   4.470   7.027 -0.3185 -0.6815 -0.8478
  188SLPC   H2X21673  -0.139   4.422   6.933  0.1873  0.6325 -1.3530
  188SLPC   H2Y21674  -0.275   4.435   7.057 -0.9746  2.1828  0.6860
  188SLPC   C2321675   0.107   5.083   7.112 -0.1263 -0.3970 -0.2213
  188SLPC   H3R21676   0.021   5.091   7.182  0.0240  0.8957 -0.1760
  188SLPC   H3S21677   0.114   5.175   7.050 -1.1678 -0.3605 -0.3073
  188SLPC   C2421678   0.238   5.093   7.198 -0.2724 -0.1246 -0.0656
  188SLPC   H4R21679   0.328   5.092   7.132  0.4772  1.5608  0.8571
  188SLPC   H4S21680   0.241   5.009   7.270 -0.0342  0.2084  0.3191
  188SLPC   C2521681   0.232   5.226   7.274  0.3409  0.1098 -0.7329
  188SLPC   H5R21682   0.147   5.222   7.345  1.9957  1.1311  1.4204
  188SLPC   H5S21683   0.213   5.311   7.205 -0.9885  2.1479  1.9777
  188SLPC   C2621684   0.359   5.242   7.362 -0.2122  0.7033  0.3442
  188SLPC   H6R21685   0.340   5.337   7.415  1.7535  1.7647 -0.7518
  188SLPC   H6S21686   0.444   5.255   7.292 -0.4623 -2.8755 -0.8344
  188SLPC   C2721687   0.376   5.141   7.470 -0.3606  0.1234 -0.2037
  188SLPC   H7R21688   0.379   5.039   7.426 -2.0967  1.3823 -3.5991
  188SLPC   H7S21689   0.284   5.136   7.532 -0.8233 -3.9893 -0.9276
  188SLPC   C2821690   0.499   5.153   7.563 -0.1410 -0.2070  0.0994
  188SLPC   H8R21691   0.489   5.072   7.638  0.1392  0.6709  1.1043
  188SLPC   H8S21692   0.490   5.245   7.625  2.5551 -1.1128  2.0453
  188SLPC   C2921693   0.637   5.142   7.494 -0.2472  0.7813  0.0406
  188SLPC   H9R21694   0.643   5.065   7.415  2.4128 -0.3553  1.2296
  188SLPC  C21021695   0.751   5.214   7.517  0.8161  0.1170 -0.3694
  188SLPC  H10R21696   0.842   5.196   7.458  1.3932  1.3871  0.0941
  188SLPC  C21121697   0.764   5.314   7.627  0.4570 -0.2586  0.2565
  188SLPC  H11R21698   0.747   5.274   7.729  3.8104  0.7821  1.3744
  188SLPC  H11S21699   0.683   5.386   7.602 -0.5161 -1.4683 -0.1226
  188SLPC  C21221700   0.899   5.391   7.625 -0.1563  0.5888 -0.3919
  188SLPC  H12R21701   0.961   5.362   7.710 -0.8013 -0.3899 -0.2310
  188SLPC  C21321702   0.944   5.482   7.538  0.6538 -0.1004  0.9961
  188SLPC  H13R21703   1.045   5.523   7.552  0.6580  0.7871 -1.1606
  188SLPC  C21421704   0.873   5.545   7.423  0.3024  0.2815 -0.0212
  188SLPC  H14R21705   0.843   5.650   7.445  0.5567  0.3201  0.1478
  188SLPC  H14S21706   0.779   5.492   7.397  0.8294 -0.4316 -0.5022
  188SLPC  C21521707   0.966   5.558   7.305  0.0313 -0.2543 -0.2481
  188SLPC  H15R21708   0.978   5.453   7.271  0.1544 -0.3471  0.0855
  188SLPC  H15S21709   1.069   5.596   7.323 -0.1463  0.4643 -0.6684
  188SLPC  C21621710   0.907   5.635   7.188 -0.4157  0.0486  0.6633
  188SLPC  H16R21711   0.869   5.737   7.210  1.8965  0.4397  3.3744
  188SLPC  H16S21712   0.826   5.563   7.164  0.5034 -1.0391  0.7413
  188SLPC  C21721713   1.014   5.631   7.076  0.5136  0.0509 -0.0333
  188SLPC  H17R21714   1.050   5.531   7.045  1.6497  0.3078  0.3962
  188SLPC  H17S21715   1.112   5.666   7.116 -0.1058  1.0547  0.6637
  188SLPC  C21821716   0.976   5.715   6.949  0.7950 -0.2183  0.3386
  188SLPC  H18R21717   0.875   5.683   6.916  0.1499  0.3818  1.6580
  188SLPC  H18S21718   1.051   5.704   6.868  0.8650  0.3993  0.3110
  188SLPC  H18T21719   0.978   5.825   6.964 -0.8905  0.2959 -2.5209
  188SLPC   C3321720  -0.070   4.435   7.134 -0.0025  0.5127  0.1584
  188SLPC   H3X21721   0.007   4.513   7.118  1.4074 -1.1004 -1.4311
  188SLPC   H3Y21722  -0.047   4.329   7.107  0.2679  0.7539 -0.5848
  188SLPC   C3421723  -0.125   4.422   7.276 -0.0918 -0.2546  0.3766
  188SLPC   H4X21724  -0.140   4.529   7.304  0.9075  1.1146 -3.6022
  188SLPC   H4Y21725  -0.043   4.393   7.345 -0.3663  1.5405  1.5302
  188SLPC   C3521726  -0.224   4.303   7.295 -0.2193  0.3681  0.3767
  188SLPC   H5X21727  -0.178   4.206   7.266 -0.9447 -0.1363  0.8730
  188SLPC   H5Y21728  -0.319   4.324   7.242  0.5622  0.2776 -1.1007
  188SLPC   C3621729  -0.265   4.298   7.448 -0.3339  0.2448 -0.6028
  188SLPC   H6X21730  -0.361   4.245   7.458  0.1041 -0.5294 -0.4485
  188SLPC   H6Y21731  -0.280   4.400   7.490  0.3551  0.8635 -1.7875
  188SLPC   C3721732  -0.164   4.215   7.533 -0.2942 -0.5234  0.1007
  188SLPC   H7X21733  -0.061   4.255   7.522 -0.6184  0.0484 -0.9864
  188SLPC   H7Y21734  -0.162   4.111   7.494 -1.1724 -1.1483  1.6196
  188SLPC   C3821735  -0.208   4.202   7.679  0.2442 -0.0986 -0.3756
  188SLPC   H8X21736  -0.148   4.123   7.727  1.0272 -0.7363 -2.3133
  188SLPC   H8Y21737  -0.313   4.166   7.687  0.8057 -1.9290 -0.9524
  188SLPC   C3921738  -0.213   4.336   7.755  0.1554 -0.1639 -0.1339
  188SLPC   H9X21739  -0.284   4.411   7.713  0.1257  0.7037  1.3761
  188SLPC   H9Y21740  -0.108   4.370   7.747  1.1524 -2.3317  2.3946
  188SLPC  C31021741  -0.235   4.327   7.903  0.0096  0.1610 -0.8998
  188SLPC  H10X21742  -0.257   4.431   7.936  0.1712 -0.2204  0.4805
  188SLPC  H10Y21743  -0.141   4.287   7.947 -0.6479 -0.9282 -0.4686
  188SLPC  C31121744  -0.355   4.238   7.947  0.3364 -0.6269  0.5073
  188SLPC  H11X21745  -0.344   4.129   7.926 -3.0374 -0.8162 -0.9077
  188SLPC  H11Y21746  -0.440   4.271   7.884  1.0266  0.3111  0.0523
  188SLPC  C31221747  -0.395   4.258   8.091  0.3792 -0.3291 -0.0851
  188SLPC  H12X21748  -0.502   4.230   8.097  0.0483  0.3015 -2.2910
  188SLPC  H12Y21749  -0.385   4.367   8.111 -0.4292 -0.1445 -0.6357
  188SLPC  C31321750  -0.308   4.168   8.174 -0.3479  0.0051 -0.0025
  188SLPC  H13X21751  -0.202   4.200   8.168 -1.0211  2.1212 -1.9342
  188SLPC  H13Y21752  -0.304   4.063   8.137  0.8520  0.7331 -2.1173
  188SLPC  C31421753  -0.362   4.167   8.321 -0.4635  0.3332 -0.9148
  188SLPC  H14X21754  -0.327   4.068   8.358  1.0365  2.0985  2.9990
  188SLPC  H14Y21755  -0.472   4.177   8.309 -0.3295 -0.0097 -2.7869
  188SLPC  C31521756  -0.294   4.284   8.398 -0.5127  0.1035 -0.0045
  188SLPC  H15X21757  -0.317   4.388   8.364 -0.5278  0.4727  1.0827
  188SLPC  H15Y21758  -0.184   4.270   8.393 -0.5882 -0.2557 -0.7427
  188SLPC  C31621759  -0.326   4.286   8.550  0.2804 -0.4294 -0.0307
  188SLPC  H16X21760  -0.281   4.195   8.594 -0.3955 -0.9212 -0.3511
  188SLPC  H16Y21761  -0.435   4.280   8.572  0.7467  0.2303  2.8841
  188SLPC  C31721762  -0.263   4.401   8.625  0.3027 -0.6306 -0.3621
  188SLPC  H17X21763  -0.314   4.498   8.608  2.6939  0.7236 -0.3183
  188SLPC  H17Y21764  -0.159   4.419   8.590  0.7576 -1.2269  0.6359
  188SLPC  C31821765  -0.252   4.366   8.773 -0.2514  0.6108 -0.3150
  188SLPC  H18X21766  -0.164   4.305   8.801 -1.6804 -0.9474  0.9571
  188SLPC  H18Y21767  -0.336   4.302   8.809  0.3497  0.1412  0.2620
  188SLPC  H18Z21768  -0.260   4.456   8.838 -2.4248 -1.2772  2.2834
  189SLPC     N21769   1.383   6.577   6.050 -0.1467  0.2272 -0.0421
  189SLPC   C1321770   1.493   6.477   6.063 -0.0388 -0.4429 -0.3261
  189SLPC  H13A21771   1.565   6.480   5.982 -1.0852 -0.3462 -1.2732
  189SLPC  H13B21772   1.542   6.499   6.157 -1.6619 -0.4514  0.5629
  189SLPC  H13C21773   1.456   6.376   6.066  2.8115 -1.5837  0.4065
  189SLPC   C1421774   1.283   6.511   5.962  0.4462  0.6090  0.3314
  189SLPC  H14A21775   1.325   6.477   5.868 -0.3849  0.5254 -0.0147
  189SLPC  H14B21776   1.251   6.424   6.016  1.0497  0.7096  0.8596
  189SLPC  H14C21777   1.194   6.567   5.939 -0.4352 -1.6993 -2.4964
  189SLPC   C1521778   1.444   6.700   5.987  1.3922  0.2713  0.8567
  189SLPC  H15A21779   1.480   6.688   5.886  0.2172  1.3577  0.2639
  189SLPC  H15B21780   1.365   6.774   5.979  1.6708  0.5493  0.6553
  189SLPC  H15C21781   1.519   6.736   6.055  1.8949 -1.1611  1.0935
  189SLPC   C1221782   1.323   6.601   6.189  0.7873  0.6751 -0.0728
  189SLPC  H12A21783   1.285   6.511   6.236 -0.0807  1.2487  0.3616
  189SLPC  H12B21784   1.244   6.674   6.199  1.7486  1.4171  3.5480
  189SLPC   C1121785   1.425   6.659   6.289  0.2854 -0.0971 -0.3732
  189SLPC  H11A21786   1.354   6.687   6.370  0.6631  0.4669 -0.2322
  189SLPC  H11B21787   1.467   6.756   6.255  1.9916 -0.1775  1.3554
  189SLPC     P21788   1.482   6.456   6.455 -0.2963 -0.1901  0.4661
  189SLPC   O1321789   1.333   6.436   6.460  0.1463 -0.6255  0.6078
  189SLPC   O1421790   1.570   6.335   6.440 -0.6367 -0.6721 -0.1529
  189SLPC   O1221791   1.523   6.568   6.332 -0.2921 -0.0911 -1.0757
  189SLPC   O1121792   1.518   6.540   6.594  0.9967  0.1249 -0.7219
  189SLPC    C121793   1.652   6.583   6.606 -0.1116 -1.1650  0.0658
  189SLPC    HA21794   1.705   6.502   6.660  0.6788 -0.5438  0.2446
  189SLPC    HB21795   1.698   6.599   6.507  0.9762  1.7874  0.9363
  189SLPC    C221796   1.652   6.728   6.669 -0.1463  0.6119 -0.0545
  189SLPC    HS21797   1.751   6.775   6.649  1.0616 -1.4140  0.8511
  189SLPC   O2121798   1.630   6.721   6.810 -0.0335 -0.3825 -0.5691
  189SLPC   C2121799   1.720   6.659   6.887 -1.3067  0.4634  0.5746
  189SLPC   O2221800   1.827   6.613   6.838  0.8034 -0.3401 -0.0592
  189SLPC   C2221801   1.694   6.659   7.038  0.0824  1.3692  0.6316
  189SLPC   H2R21802   1.644   6.756   7.057 -0.1410  0.9667  2.2900
  189SLPC   H2S21803   1.616   6.583   7.057 -0.3801  1.8625  0.7168
  189SLPC    C321804   1.532   6.816   6.610  0.0378 -0.4196  0.4676
  189SLPC    HX21805   1.436   6.759   6.615  0.0798 -0.5794 -0.3927
  189SLPC    HY21806   1.546   6.831   6.501 -0.1939 -0.2875  0.4557
  189SLPC   O3121807   1.516   6.939   6.686  0.1309  0.3761  0.6776
  189SLPC   C3121808   1.610   7.032   6.643  0.7366  0.1040  0.2254
  189SLPC   O3221809   1.685   7.003   6.547  0.0151 -0.2164  1.1707
  189SLPC   C3221810   1.626   7.142   6.744 -0.1645 -0.0680  0.3701
  189SLPC   H2X21811   1.541   7.213   6.744 -2.8709 -3.0473 -0.5709
  189SLPC   H2Y21812   1.704   7.203   6.694 -0.5465 -0.9558 -1.3873
  189SLPC   C2321813   1.820   6.630   7.127  0.2909 -0.1282 -0.0055
  189SLPC   H3R21814   1.906   6.694   7.097 -0.8772  0.5822 -2.0498
  189SLPC   H3S21815   1.851   6.526   7.105 -1.1513 -1.1037  2.2449
  189SLPC   C2421816   1.790   6.647   7.277  0.2505 -0.2122  0.3623
  189SLPC   H4R21817   1.712   6.573   7.306 -0.2866 -0.4118 -1.4067
  189SLPC   H4S21818   1.739   6.744   7.293 -0.7577 -0.8210  0.9636
  189SLPC   C2521819   1.913   6.633   7.362  0.5412 -0.4736  0.5786
  189SLPC   H5R21820   1.990   6.711   7.346 -0.2024  0.3079  0.7560
  189SLPC   H5S21821   1.950   6.534   7.327 -0.8166 -1.0826  0.7993
  189SLPC   C2621822   1.879   6.609   7.512 -0.2985  0.2205  0.1641
  189SLPC   H6R21823   1.826   6.512   7.516  2.0644 -1.1176  1.2045
  189SLPC   H6S21824   1.811   6.693   7.539  0.1071  0.0081  1.9472
  189SLPC   C2721825   2.005   6.602   7.594  0.3169  0.4531  0.0555
  189SLPC   H7R21826   2.041   6.707   7.602 -1.0204  1.1103 -1.8504
  189SLPC   H7S21827   2.074   6.533   7.540 -0.2351  0.4064 -0.6016
  189SLPC   C2821828   1.978   6.551   7.733 -0.2288 -0.6508  1.1016
  189SLPC   H8R21829   2.074   6.540   7.789  0.3742 -0.6933  0.0789
  189SLPC   H8S21830   1.931   6.452   7.715  0.3351 -0.6450 -0.5850
  189SLPC   C2921831   1.873   6.615   7.819  0.1896  0.1813 -0.1871
  189SLPC   H9R21832   1.772   6.614   7.776 -0.7707 -0.9270  1.9698
  189SLPC  C21021833   1.894   6.684   7.933 -0.5179 -0.0560 -0.4941
  189SLPC  H10R21834   1.800   6.709   7.985 -0.9440 -2.2541 -0.0935
  189SLPC  C21121835   2.019   6.695   8.008  0.2509 -0.5706 -0.0381
  189SLPC  H11R21836   2.102   6.705   7.935  1.7172 -2.9910  1.1690
  189SLPC  H11S21837   2.040   6.603   8.068  1.1342  0.6733  1.6702
  189SLPC  C21221838   2.032   6.812   8.109 -0.5329 -0.0499 -0.0634
  189SLPC  H12R21839   2.064   6.907   8.063 -0.7799 -0.7190 -1.6561
  189SLPC  C21321840   1.999   6.821   8.242  0.4024  0.0232 -0.0919
  189SLPC  H13R21841   2.013   6.917   8.293  0.0370  1.1216 -1.9567
  189SLPC  C21421842   1.940   6.710   8.333  0.6500 -1.0441  0.4686
  189SLPC  H14R21843   1.993   6.721   8.430  3.5250  0.0104 -1.1001
  189SLPC  H14S21844   1.973   6.610   8.299  0.1505 -0.9515 -0.3067
  189SLPC  C21521845   1.787   6.730   8.352 -0.0001  0.5329  0.1395
  189SLPC  H15R21846   1.732   6.678   8.271  0.5162 -0.1305  0.2109
  189SLPC  H15S21847   1.756   6.837   8.344 -2.8238 -0.1362  1.0762
  189SLPC  C21621848   1.731   6.668   8.478 -0.1642  0.1850  0.2529
  189SLPC  H16R21849   1.632   6.715   8.494  0.3929  0.9727  1.6004
  189SLPC  H16S21850   1.794   6.682   8.569  1.0087 -3.0480  0.0418
  189SLPC  C21721851   1.725   6.511   8.462  0.0688 -0.1435  0.1394
  189SLPC  H17R21852   1.829   6.474   8.465 -0.4383 -1.7298  3.3921
  189SLPC  H17S21853   1.668   6.484   8.371  1.1529 -3.9778  0.4614
  189SLPC  C21821854   1.657   6.431   8.579  0.2143 -0.1650  0.1107
  189SLPC  H18R21855   1.546   6.433   8.583  0.1739 -1.9503  0.5004
  189SLPC  H18S21856   1.692   6.479   8.673  1.0017  0.1953 -0.3529
  189SLPC  H18T21857   1.680   6.323   8.574 -2.7434 -0.8291 -2.7045
  189SLPC   C3321858   1.675   7.095   6.884  0.2830 -0.6762  0.4969
  189SLPC   H3X21859   1.740   7.171   6.932  1.1458 -1.1063  0.0351
  189SLPC   H3Y21860   1.730   6.999   6.870 -1.9068 -1.6733 -2.5726
  189SLPC   C3421861   1.550   7.084   6.981  0.6186 -0.2639  0.0323
  189SLPC   H4X21862   1.501   6.990   6.947 -0.5773  0.7665 -1.2809
  189SLPC   H4Y21863   1.478   7.168   6.967 -0.0011 -0.8192 -0.1548
  189SLPC   C3521864   1.588   7.084   7.125 -0.8811  0.6680 -0.0605
  189SLPC   H5X21865   1.635   7.182   7.145 -0.5971  0.3759  0.7683
  189SLPC   H5Y21866   1.664   7.005   7.140  0.8774  1.8965 -2.0784
  189SLPC   C3621867   1.466   7.074   7.212  0.3528 -0.6869 -0.3782
  189SLPC   H6X21868   1.382   7.137   7.176 -0.6703 -0.7394  1.8059
  189SLPC   H6Y21869   1.498   7.121   7.307  0.6851  0.8784 -1.2325
  189SLPC   C3721870   1.428   6.933   7.245 -0.2030  0.1621  0.9930
  189SLPC   H7X21871   1.479   6.861   7.178  0.2486 -0.5993  2.1138
  189SLPC   H7Y21872   1.320   6.909   7.248  0.2339 -2.2169  0.0933
  189SLPC   C3821873   1.493   6.889   7.376  0.3473  0.2096  0.5855
  189SLPC   H8X21874   1.474   6.958   7.460  3.0981 -0.9379  2.2523
  189SLPC   H8Y21875   1.603   6.886   7.360  0.5431  3.6932  0.6153
  189SLPC   C3921876   1.449   6.747   7.410  0.0869 -0.5313 -0.4669
  189SLPC   H9X21877   1.502   6.685   7.334  0.1035  0.2024 -1.0677
  189SLPC   H9Y21878   1.341   6.724   7.401 -0.0388  0.0312 -0.4452
  189SLPC  C31021879   1.487   6.710   7.556  0.0361  0.1221  0.4188
  189SLPC  H10X21880   1.595   6.727   7.575 -0.7556  2.5335  3.4799
  189SLPC  H10Y21881   1.471   6.600   7.550  0.5576 -0.0029  1.1654
  189SLPC  C31121882   1.405   6.783   7.660 -0.2897  0.6895 -0.2520
  189SLPC  H11X21883   1.298   6.781   7.629 -0.0981  2.9926 -1.2923
  189SLPC  H11Y21884   1.433   6.891   7.658  0.6700  0.4438 -0.2291
  189SLPC  C31221885   1.428   6.732   7.806 -0.8935  0.0055 -0.4461
  189SLPC  H12X21886   1.537   6.739   7.824 -1.3455  1.0437  2.3297
  189SLPC  H12Y21887   1.405   6.623   7.811 -0.6133  0.0039  1.1638
  189SLPC  C31321888   1.354   6.807   7.917 -0.0599  0.3540  0.0793
  189SLPC  H13X21889   1.245   6.812   7.896 -0.0219  1.1614  0.0557
  189SLPC  H13Y21890   1.379   6.915   7.925 -1.1537  0.6898 -0.7095
  189SLPC  C31421891   1.386   6.753   8.061 -0.1600  0.0321  0.0647
  189SLPC  H14X21892   1.490   6.788   8.078 -0.4043  0.5221  0.5997
  189SLPC  H14Y21893   1.371   6.643   8.059 -0.3716  0.0465  0.8082
  189SLPC  C31521894   1.303   6.811   8.170  0.6926 -0.2495 -0.0439
  189SLPC  H15X21895   1.196   6.786   8.149 -0.0153  1.4854  1.2741
  189SLPC  H15Y21896   1.314   6.921   8.161  0.1050 -0.3565 -3.1882
  189SLPC  C31621897   1.344   6.749   8.312  0.2833 -0.1149  0.2276
  189SLPC  H16X21898   1.454   6.760   8.324  0.2411 -1.7304  3.0286
  189SLPC  H16Y21899   1.315   6.643   8.295  1.1004  0.0898 -3.1787
  189SLPC  C31721900   1.292   6.824   8.434  0.3185 -0.2126  0.0854
  189SLPC  H17X21901   1.181   6.827   8.428  0.2545 -2.3009 -0.9477
  189SLPC  H17Y21902   1.330   6.928   8.430 -1.9176  0.6652  0.4153
  189SLPC  C31821903   1.333   6.745   8.556  0.1563 -0.5956  0.2601
  189SLPC  H18X21904   1.300   6.795   8.650  1.5933  1.1948 -0.1374
  189SLPC  H18Y21905   1.444   6.739   8.559  0.1745 -0.5914 -0.3599
  189SLPC  H18Z21906   1.288   6.643   8.551 -1.1626 -0.1399  1.7314
  190SLPC     N21907   3.478   5.598   6.405 -0.6640 -0.2808 -0.2943
  190SLPC   C1321908   3.437   5.449   6.430  0.2494 -0.0312 -0.6124
  190SLPC  H13A21909   3.359   5.454   6.504  0.0301  1.3555 -0.9038
  190SLPC  H13B21910   3.408   5.401   6.337 -3.9710  0.9724 -0.0133
  190SLPC  H13C21911   3.517   5.386   6.465 -0.3268 -0.0562  0.7124
  190SLPC   C1421912   3.357   5.665   6.347  0.2855  0.0670 -0.1434
  190SLPC  H14A21913   3.373   5.771   6.339  1.4902 -0.1461 -0.7603
  190SLPC  H14B21914   3.338   5.628   6.247 -0.5880  0.3512 -0.0933
  190SLPC  H14C21915   3.266   5.649   6.403  0.1970 -1.5283 -0.6761
  190SLPC   C1521916   3.582   5.606   6.300  0.0057  0.3176  0.2205
  190SLPC  H15A21917   3.552   5.557   6.209 -0.5829  1.0370  0.0245
  190SLPC  H15B21918   3.607   5.706   6.269 -2.0952  0.5487 -0.8877
  190SLPC  H15C21919   3.675   5.553   6.317  0.1477  0.1040 -1.1710
  190SLPC   C1221920   3.526   5.656   6.542  0.7738 -0.6841 -0.0481
  190SLPC  H12A21921   3.444   5.638   6.610  1.1188 -2.2195 -0.0084
  190SLPC  H12B21922   3.543   5.762   6.529  1.6106 -1.0756 -2.9327
  190SLPC   C1121923   3.662   5.601   6.595 -0.1615  0.8228  1.1032
  190SLPC  H11A21924   3.679   5.641   6.697 -0.0166  1.0404  0.9946
  190SLPC  H11B21925   3.748   5.637   6.534  0.0134 -2.3489 -0.7603
  190SLPC     P21926   3.786   5.379   6.565 -0.0010 -0.3926 -0.3627
  190SLPC   O1321927   3.760   5.240   6.600  0.4277  0.5471  0.0496
  190SLPC   O1421928   3.834   5.408   6.430  0.1475  0.4320  1.1335
  190SLPC   O1221929   3.660   5.462   6.607 -0.0792  0.2649  0.7511
  190SLPC   O1121930   3.889   5.443   6.670  0.1181 -0.1064 -0.4038
  190SLPC    C121931   3.866   5.432   6.812  0.5433  0.7448 -0.3506
  190SLPC    HA21932   3.775   5.487   6.844 -0.9221 -0.7405 -1.7994
  190SLPC    HB21933   3.859   5.326   6.843  0.5852  0.4103 -1.4421
  190SLPC    C221934   3.986   5.486   6.897 -0.1275 -0.1505 -0.4938
  190SLPC    HS21935   4.060   5.404   6.906 -1.4595 -1.1220  4.0033
  190SLPC   O2121936   3.941   5.506   7.031 -0.3388  0.2068 -0.3091
  190SLPC   C2121937   3.934   5.400   7.108  0.0781 -0.3800  0.6423
  190SLPC   O2221938   3.932   5.287   7.066 -0.1954  0.0614 -0.1697
  190SLPC   C2221939   3.929   5.439   7.248 -0.9621 -0.7807 -0.7725
  190SLPC   H2R21940   4.034   5.457   7.278 -0.6572  0.5115 -2.5002
  190SLPC   H2S21941   3.879   5.538   7.250 -1.5064 -1.0524 -0.4821
  190SLPC    C321942   4.047   5.620   6.845  0.3574  0.0453 -0.6839
  190SLPC    HX21943   3.966   5.695   6.860 -1.1997 -1.8126  0.6399
  190SLPC    HY21944   4.072   5.618   6.737 -2.6265  0.5520 -1.4753
  190SLPC   O3121945   4.163   5.662   6.922  0.2221  0.6868  0.4653
  190SLPC   C3121946   4.269   5.577   6.906  0.0878 -0.2562  0.2022
  190SLPC   O3221947   4.269   5.489   6.824 -0.8031  0.4296  0.1416
  190SLPC   C3221948   4.388   5.610   6.983 -0.9636 -0.2633  0.4691
  190SLPC   H2X21949   4.446   5.684   6.924 -1.9070  1.4305  1.5986
  190SLPC   H2Y21950   4.460   5.525   6.986 -0.4375  0.1961  1.1623
  190SLPC   C2321951   3.839   5.346   7.334  0.3569 -0.6234 -0.2960
  190SLPC   H3R21952   3.886   5.247   7.355  1.6631  0.2017  0.8737
  190SLPC   H3S21953   3.750   5.312   7.277  0.4483 -0.4693 -0.5325
  190SLPC   C2421954   3.812   5.402   7.472 -0.7310  0.2964  0.7221
  190SLPC   H4R21955   3.733   5.349   7.529 -0.5924 -0.9607 -0.2007
  190SLPC   H4S21956   3.776   5.505   7.449 -1.2309 -0.2326 -1.0776
  190SLPC   C2521957   3.934   5.413   7.559 -0.1003  0.3367 -0.8013
  190SLPC   H5R21958   4.004   5.487   7.513 -0.9036  1.8339  0.2827
  190SLPC   H5S21959   3.980   5.312   7.562 -0.4491  0.1872  2.0407
  190SLPC   C2621960   3.905   5.460   7.702  0.1493 -0.6969 -0.4847
  190SLPC   H6R21961   3.865   5.382   7.770  1.5725 -2.0392 -1.1221
  190SLPC   H6S21962   3.827   5.540   7.696 -1.0231 -1.8650 -1.2450
  190SLPC   C2721963   4.022   5.535   7.774  0.3049  0.2053 -0.2422
  190SLPC   H7R21964   4.043   5.624   7.710  1.3543 -1.3465 -2.1586
  190SLPC   H7S21965   4.111   5.471   7.761  0.2150  0.1890 -0.8274
  190SLPC   C2821966   3.994   5.567   7.922 -0.6993 -0.2782 -0.6577
  190SLPC   H8R21967   3.893   5.611   7.936 -0.7524 -0.9867  1.6535
  190SLPC   H8S21968   4.070   5.643   7.950 -0.9058  0.2723 -1.5503
  190SLPC   C2921969   4.013   5.453   8.022 -0.0173  0.0618  0.5083
  190SLPC   H9R21970   4.050   5.360   7.976 -1.0044 -0.7126  1.2372
  190SLPC  C21021971   4.022   5.462   8.156  0.6363 -0.8622 -0.7412
  190SLPC  H10R21972   4.027   5.369   8.215 -0.1536 -1.4796 -1.6089
  190SLPC  C21121973   4.019   5.589   8.244  0.1729 -0.5715  0.9185
  190SLPC  H11R21974   3.910   5.601   8.263 -0.8811 -4.6174 -1.4582
  190SLPC  H11S21975   4.048   5.677   8.183  1.1556 -2.6066 -1.7546
  190SLPC  C21221976   4.107   5.583   8.363  0.9616  0.4921 -0.1746
  190SLPC  H12R21977   4.205   5.536   8.344  0.3325 -1.8014  1.7408
  190SLPC  C21321978   4.070   5.621   8.487 -0.9508  0.2763 -0.0480
  190SLPC  H13R21979   4.146   5.622   8.567 -1.4260 -0.6670  0.4290
  190SLPC  C21421980   3.943   5.672   8.542  0.1890  0.1863  0.1122
  190SLPC  H14R21981   3.916   5.616   8.634 -0.4624  0.2520 -0.0345
  190SLPC  H14S21982   3.853   5.668   8.478 -0.6551 -0.2368  1.3078
  190SLPC  C21521983   3.946   5.825   8.587 -0.2859 -0.2879  0.7794
  190SLPC  H15R21984   3.948   5.884   8.493 -0.6867  1.7392  1.9846
  190SLPC  H15S21985   4.045   5.846   8.632  0.7774 -1.2232 -1.0274
  190SLPC  C21621986   3.835   5.876   8.680  0.4336  0.1754 -0.0144
  190SLPC  H16R21987   3.826   5.803   8.763  2.2923  0.6771  0.6786
  190SLPC  H16S21988   3.737   5.872   8.627 -0.6624  2.2479  1.6836
  190SLPC  C21721989   3.852   6.016   8.735  0.4948  0.4855 -0.0868
  190SLPC  H17R21990   3.810   6.082   8.656  0.5414 -0.5625 -1.0141
  190SLPC  H17S21991   3.960   6.040   8.750  0.6009  0.8883 -1.4037
  190SLPC  C21821992   3.785   6.054   8.867 -0.0388  0.6071  0.5113
  190SLPC  H18R21993   3.674   6.049   8.861 -0.1944  0.2991  2.7915
  190SLPC  H18S21994   3.808   6.155   8.908 -0.5195  0.3709  1.3855
  190SLPC  H18T21995   3.808   5.980   8.946 -1.2147 -1.9026 -1.3748
  190SLPC   C3321996   4.360   5.638   7.127 -0.4158  0.2200 -0.4843
  190SLPC   H3X21997   4.292   5.725   7.133 -1.0880 -0.0675 -2.8631
  190SLPC   H3Y21998   4.453   5.670   7.178 -0.9535 -0.0727  0.7139
  190SLPC   C3421999   4.315   5.509   7.207 -0.0227 -0.4270  0.7722
  190SLPC   H4X22000   4.407   5.447   7.212 -1.0445 -2.0143  0.5075
  190SLPC   H4Y22001   4.241   5.447   7.153  0.2922  0.3291 -0.5642
  190SLPC   C3522002   4.270   5.533   7.356  0.5630 -0.1298  1.1228
  190SLPC   H5X22003   4.242   5.437   7.403 -1.6355  0.3171  0.8122
  190SLPC   H5Y22004   4.179   5.595   7.339  0.7037 -0.1763  0.1503
  190SLPC   C3622005   4.364   5.616   7.449 -0.4280 -0.2115  0.2891
  190SLPC   H6X22006   4.374   5.720   7.412 -2.5300 -0.4493 -1.1104
  190SLPC   H6Y22007   4.460   5.566   7.474 -0.4063 -0.5983 -0.5247
  190SLPC   C3722008   4.298   5.639   7.584  0.5545 -0.0556  0.4741
  190SLPC   H7X22009   4.285   5.537   7.626  0.0862 -0.3907 -0.4679
  190SLPC   H7Y22010   4.193   5.675   7.580  0.8849  0.8926  0.0621
  190SLPC   C3822011   4.392   5.735   7.668 -0.2223 -0.2027  0.0314
  190SLPC   H8X22012   4.413   5.831   7.616 -1.6586  0.1534  0.0408
  190SLPC   H8Y22013   4.486   5.677   7.665 -1.1777 -1.7744 -1.4850
  190SLPC   C3922014   4.349   5.758   7.810 -0.0760  0.0060 -0.0290
  190SLPC   H9X22015   4.311   5.663   7.853  0.5357 -0.6048 -0.8148
  190SLPC   H9Y22016   4.263   5.825   7.794  0.0757  0.1473 -0.2574
  190SLPC  C31022017   4.452   5.836   7.896  0.2622 -0.2970 -0.9973
  190SLPC  H10X22018   4.486   5.938   7.869  0.7537  1.4796  4.8699
  190SLPC  H10Y22019   4.542   5.772   7.901  0.3996 -0.0683 -0.5492
  190SLPC  C31122020   4.386   5.867   8.039  0.3102 -0.1079  0.0026
  190SLPC  H11X22021   4.289   5.915   8.013 -0.4874 -2.8437 -2.6903
  190SLPC  H11Y22022   4.456   5.942   8.080 -0.9215 -0.1025  2.2460
  190SLPC  C31222023   4.364   5.756   8.138 -0.3189  0.3836 -0.2428
  190SLPC  H12X22024   4.451   5.688   8.145  0.3835  1.3336  0.5338
  190SLPC  H12Y22025   4.269   5.706   8.109 -0.9152  2.3183 -1.8376
  190SLPC  C31322026   4.362   5.813   8.284 -0.5687  0.1246 -0.4836
  190SLPC  H13X22027   4.459   5.854   8.320 -0.7182  0.1472 -0.1066
  190SLPC  H13Y22028   4.342   5.737   8.363  1.6101  0.2481  0.2585
  190SLPC  C31422029   4.257   5.924   8.307 -0.6965 -0.4345 -0.2371
  190SLPC  H14X22030   4.158   5.881   8.279 -1.6759  2.5882 -1.7921
  190SLPC  H14Y22031   4.267   6.006   8.233 -2.4723 -0.2908 -0.3704
  190SLPC  C31522032   4.254   5.970   8.455  0.5868  0.0340 -0.3013
  190SLPC  H15X22033   4.269   5.875   8.509  0.1272  0.8217  1.2744
  190SLPC  H15Y22034   4.153   6.011   8.478  0.7295 -0.1031  0.5936
  190SLPC  C31622035   4.351   6.080   8.488  0.5416  0.8543 -0.1538
  190SLPC  H16X22036   4.407   6.118   8.400 -0.2908  3.6836  0.4227
  190SLPC  H16Y22037   4.417   6.035   8.566  0.1307 -0.2007 -0.4070
  190SLPC  C31722038   4.276   6.193   8.561  0.6437 -0.3881 -0.8035
  190SLPC  H17X22039   4.199   6.231   8.490 -0.3462 -0.5972  0.1316
  190SLPC  H17Y22040   4.346   6.277   8.584  1.9447 -1.6536  0.0728
  190SLPC  C31822041   4.206   6.145   8.691 -0.0991 -0.1018  0.7342
  190SLPC  H18X22042   4.118   6.210   8.710  0.3889  0.8970 -0.2840
  190SLPC  H18Y22043   4.275   6.156   8.777  1.0749  1.4478 -0.3427
  190SLPC  H18Z22044   4.171   6.040   8.684  1.2391 -0.5563  0.5301
  191SLPC     N22045   1.095   2.379   6.096 -0.1651  0.6568  0.7456
  191SLPC   C1322046   1.217   2.362   5.997  0.6330  0.6041 -0.5019
  191SLPC  H13A22047   1.182   2.346   5.896 -2.0316  4.0569 -0.3173
  191SLPC  H13B22048   1.285   2.445   6.000  1.2826  0.0473  0.5392
  191SLPC  H13C22049   1.272   2.273   6.022 -1.2254 -0.3612  0.4526
  191SLPC   C1422050   1.010   2.258   6.076 -0.3400 -0.2582 -0.0282
  191SLPC  H14A22051   1.067   2.177   6.120  1.0994  0.9871  0.4718
  191SLPC  H14B22052   0.928   2.260   6.146  0.3150 -1.0650  0.7946
  191SLPC  H14C22053   0.969   2.245   5.976 -1.4742 -3.0394  0.6909
  191SLPC   C1522054   1.022   2.501   6.048  0.4814  0.1132  0.1422
  191SLPC  H15A22055   1.096   2.579   6.042  1.2520 -0.6637 -0.6457
  191SLPC  H15B22056   0.985   2.491   5.947 -2.5813  2.5665  0.8317
  191SLPC  H15C22057   0.930   2.514   6.105  0.6012  0.7544  0.1976
  191SLPC   C1222058   1.140   2.390   6.244 -0.2193  0.4307 -0.0306
  191SLPC  H12A22059   1.053   2.421   6.301 -0.5918  1.2656 -1.0029
  191SLPC  H12B22060   1.219   2.464   6.248 -0.1983  0.7785 -3.6553
  191SLPC   C1122061   1.203   2.261   6.295 -0.0383 -0.2550  0.4969
  191SLPC  H11A22062   1.138   2.173   6.276  0.2059 -0.7196  1.7777
  191SLPC  H11B22063   1.213   2.274   6.405  0.9528 -1.0458  0.5123
  191SLPC     P22064   1.414   2.110   6.283  0.4530 -0.3072 -0.1906
  191SLPC   O1322065   1.353   1.983   6.238  0.2060 -0.7244  0.2949
  191SLPC   O1422066   1.562   2.128   6.255  0.3431 -0.6048 -0.0394
  191SLPC   O1222067   1.332   2.244   6.240 -0.1186  0.4628  0.1678
  191SLPC   O1122068   1.385   2.099   6.442 -0.3405 -0.5409  0.1670
  191SLPC    C122069   1.498   2.086   6.536  0.7651  0.0768  0.1205
  191SLPC    HA22070   1.533   1.982   6.554  0.8595 -0.2138 -1.5812
  191SLPC    HB22071   1.589   2.137   6.498  1.0895 -0.2903  0.3874
  191SLPC    C222072   1.465   2.142   6.674 -0.3362  0.2380 -0.9061
  191SLPC    HS22073   1.544   2.118   6.749 -0.5122  1.1313 -0.4208
  191SLPC   O2122074   1.336   2.089   6.717 -0.3371  0.1414 -0.0881
  191SLPC   C2122075   1.340   1.969   6.784 -0.2323  0.3635 -0.1487
  191SLPC   O2222076   1.445   1.912   6.816 -0.0186 -0.1417 -0.2402
  191SLPC   C2222077   1.203   1.923   6.832  0.4956 -0.1105  0.3944
  191SLPC   H2R22078   1.140   1.927   6.741  0.4726  1.5513  0.4605
  191SLPC   H2S22079   1.200   1.819   6.873  0.0873 -0.7764 -1.2402
  191SLPC    C322080   1.454   2.299   6.669  0.5770  0.6263  0.1188
  191SLPC    HX22081   1.393   2.324   6.580 -0.5806  0.7055  0.9121
  191SLPC    HY22082   1.551   2.344   6.640  1.0126 -1.1995 -1.4081
  191SLPC   O3122083   1.420   2.358   6.799 -0.1686  0.1328  0.3243
  191SLPC   C3122084   1.299   2.405   6.809 -0.4713  0.6548  0.0341
  191SLPC   O3222085   1.209   2.395   6.728 -0.1409  0.6962  0.1381
  191SLPC   C3222086   1.282   2.446   6.952 -0.5104 -0.1154 -0.3389
  191SLPC   H2X22087   1.337   2.540   6.972 -1.3600  0.0340  1.5744
  191SLPC   H2Y22088   1.318   2.363   7.016 -4.1440 -1.7748 -0.1718
  191SLPC   C2322089   1.138   2.010   6.936  0.3072  0.6627 -0.2024
  191SLPC   H3R22090   1.031   1.984   6.951  0.2735  1.7171  1.6597
  191SLPC   H3S22091   1.135   2.115   6.899  2.7444  1.5110  1.6618
  191SLPC   C2422092   1.219   2.011   7.069  0.3708  1.2932  0.8214
  191SLPC   H4R22093   1.317   2.062   7.067  0.0798  1.8485 -0.1544
  191SLPC   H4S22094   1.229   1.904   7.099 -1.3104  0.4860 -1.1961
  191SLPC   C2522095   1.160   2.110   7.166  0.0919 -0.2011 -0.1129
  191SLPC   H5R22096   1.059   2.076   7.200  0.0710  1.6077  1.8162
  191SLPC   H5S22097   1.139   2.207   7.116  0.3560 -0.6239 -1.0651
  191SLPC   C2622098   1.227   2.130   7.302  0.2158 -0.7809 -0.5482
  191SLPC   H6R22099   1.302   2.210   7.284 -0.1143 -0.0430  1.1620
  191SLPC   H6S22100   1.272   2.039   7.348 -1.7003 -1.7122 -0.4247
  191SLPC   C2722101   1.127   2.178   7.413  0.2518 -0.2203  0.3087
  191SLPC   H7R22102   1.063   2.264   7.385  2.3127  2.0465  2.1647
  191SLPC   H7S22103   1.194   2.215   7.492 -1.6187  1.2248  1.2871
  191SLPC   C2822104   1.049   2.064   7.476  0.1163 -0.2313  0.6408
  191SLPC   H8R22105   1.121   1.979   7.472  1.6753  1.0614  0.3516
  191SLPC   H8S22106   0.977   2.037   7.396  0.5499  0.6146 -0.0384
  191SLPC   C2922107   0.984   2.067   7.615 -0.0534  0.0397 -1.0277
  191SLPC   H9R22108   0.880   2.103   7.615 -0.1389 -0.2084 -0.7765
  191SLPC  C21022109   1.037   2.043   7.740 -0.2771  0.3794 -0.1194
  191SLPC  H10R22110   0.979   2.056   7.833  0.5723 -1.8764  0.7817
  191SLPC  C21122111   1.183   2.000   7.748  0.1543  0.6169 -0.8350
  191SLPC  H11R22112   1.236   2.078   7.807  0.3587  0.7266 -1.1586
  191SLPC  H11S22113   1.231   2.009   7.648  1.5978 -3.0659 -0.6277
  191SLPC  C21222114   1.207   1.860   7.800  0.3657 -0.4886 -0.2295
  191SLPC  H12R22115   1.219   1.784   7.722  2.3717  0.0837 -0.5412
  191SLPC  C21322116   1.225   1.829   7.930  0.4828  0.0110  0.1219
  191SLPC  H13R22117   1.256   1.726   7.955  3.5929  0.2564 -2.1596
  191SLPC  C21422118   1.218   1.922   8.050  0.1829  0.3161 -0.6838
  191SLPC  H14R22119   1.134   1.896   8.118  1.5520  0.0623  0.9906
  191SLPC  H14S22120   1.180   2.022   8.019  0.3399  0.5716 -0.0733
  191SLPC  C21522121   1.341   1.943   8.139 -0.2042 -0.2698 -0.0034
  191SLPC  H15R22122   1.326   2.010   8.226  2.3754 -0.4196  0.6539
  191SLPC  H15S22123   1.415   1.992   8.072 -2.0420  1.0397 -1.1845
  191SLPC  C21622124   1.385   1.815   8.222  1.1006  0.0080  0.6879
  191SLPC  H16R22125   1.486   1.831   8.266  2.2733 -1.5155 -1.3101
  191SLPC  H16S22126   1.402   1.738   8.144  4.0228  1.0925  0.1384
  191SLPC  C21722127   1.272   1.766   8.315 -0.4002  0.4394  0.2400
  191SLPC  H17R22128   1.304   1.664   8.346  0.9295  1.2551  1.6600
  191SLPC  H17S22129   1.179   1.747   8.257 -0.1789  1.3650 -0.4235
  191SLPC  C21822130   1.267   1.852   8.449 -0.0211 -0.3184  0.1212
  191SLPC  H18R22131   1.358   1.840   8.512  1.6232  1.0220 -1.8447
  191SLPC  H18S22132   1.184   1.807   8.506 -1.2105 -1.0299 -2.0465
  191SLPC  H18T22133   1.238   1.958   8.432 -1.4943 -0.4097  1.8534
  191SLPC   C3322134   1.128   2.461   6.985 -0.2780  0.0379 -0.4038
  191SLPC   H3X22135   1.079   2.366   6.957  0.8086 -0.8919  0.7146
  191SLPC   H3Y22136   1.084   2.545   6.927  0.5038  0.2286 -0.7416
  191SLPC   C3422137   1.095   2.494   7.137 -0.4568  0.2954 -0.0760
  191SLPC   H4X22138   1.139   2.418   7.205 -1.0591 -0.7553 -0.8317
  191SLPC   H4Y22139   0.987   2.468   7.148 -0.0357 -2.3056 -1.1529
  191SLPC   C3522140   1.133   2.641   7.177  0.5043  0.0926 -0.2253
  191SLPC   H5X22141   1.120   2.707   7.088 -1.7506 -0.6108 -0.4668
  191SLPC   H5Y22142   1.236   2.653   7.218 -0.0881  2.1798  0.7693
  191SLPC   C3622143   1.030   2.691   7.282 -0.5900 -0.3715  0.8571
  191SLPC   H6X22144   0.935   2.639   7.256  0.4445 -0.6618 -2.8536
  191SLPC   H6Y22145   1.011   2.799   7.266 -2.2832 -0.5891  1.2191
  191SLPC   C3722146   1.080   2.675   7.432 -0.8435  0.1876 -0.1149
  191SLPC   H7X22147   1.188   2.697   7.446 -0.6776 -1.3182  1.2238
  191SLPC   H7Y22148   1.073   2.568   7.462  1.6873  0.4748  1.8484
  191SLPC   C3822149   0.999   2.760   7.533  0.3468  0.1112 -0.1603
  191SLPC   H8X22150   0.892   2.732   7.540 -0.0083  1.6733  1.4889
  191SLPC   H8Y22151   0.993   2.864   7.496  0.4167  1.1771  2.5699
  191SLPC   C3922152   1.050   2.754   7.677 -0.6379  0.2441  0.2475
  191SLPC   H9X22153   1.154   2.792   7.678 -0.9203  1.1957 -1.5356
  191SLPC   H9Y22154   1.054   2.646   7.704 -0.7039  0.6129  1.8003
  191SLPC  C31022155   0.970   2.838   7.775  0.4833  0.7766 -0.4579
  191SLPC  H10X22156   0.865   2.801   7.781  0.9483 -0.4144  0.9047
  191SLPC  H10Y22157   0.954   2.937   7.727 -1.2414  0.6303 -0.2561
  191SLPC  C31122158   1.039   2.844   7.915  0.8311  0.3510  0.0413
  191SLPC  H11X22159   1.136   2.896   7.897  0.5873  0.4295 -1.1283
  191SLPC  H11Y22160   1.055   2.743   7.958  2.1728  1.0294  1.2458
  191SLPC  C31222161   0.961   2.913   8.022 -0.1423  0.1618  0.6623
  191SLPC  H12X22162   0.855   2.890   7.998 -0.1531  0.8484  0.0163
  191SLPC  H12Y22163   0.969   3.023   8.014  0.7789 -0.0463 -3.3484
  191SLPC  C31322164   0.989   2.867   8.169  0.4376 -0.0936  0.5255
  191SLPC  H13X22165   1.099   2.883   8.176  0.3036  1.4910 -0.5323
  191SLPC  H13Y22166   0.958   2.761   8.185  1.9359 -0.5723  0.4396
  191SLPC  C31422167   0.920   2.953   8.282 -0.1728  0.3067  0.6186
  191SLPC  H14X22168   0.810   2.945   8.271 -0.1056 -0.7876  0.6786
  191SLPC  H14Y22169   0.962   3.056   8.277 -0.8428  0.5504 -0.3331
  191SLPC  C31522170   0.943   2.901   8.429  0.0126 -0.8930  0.8645
  191SLPC  H15X22171   0.900   2.802   8.454 -3.3662  0.8054  2.4364
  191SLPC  H15Y22172   0.898   2.983   8.490  1.3527 -0.1961  0.9568
  191SLPC  C31622173   1.088   2.893   8.481  0.0273  1.3358 -0.0373
  191SLPC  H16X22174   1.142   2.990   8.479 -0.5060  1.6576  0.7602
  191SLPC  H16Y22175   1.143   2.820   8.417 -1.4910 -1.4259  1.6173
  191SLPC  C31722176   1.093   2.839   8.627 -0.2558  0.5180  0.1026
  191SLPC  H17X22177   1.037   2.743   8.635  0.8193 -0.2166 -0.8989
  191SLPC  H17Y22178   1.042   2.908   8.698 -4.2919 -1.6414 -0.3732
  191SLPC  C31822179   1.236   2.796   8.666  0.5462  0.1352 -0.4066
  191SLPC  H18X22180   1.308   2.863   8.614 -0.2166  0.4126 -1.1174
  191SLPC  H18Y22181   1.273   2.697   8.633  1.7406  0.8913 -1.4472
  191SLPC  H18Z22182   1.252   2.804   8.776  0.5134  1.7458 -0.4921
  192SLPC     N22183   2.925   2.153   6.110 -0.2977  0.2170 -0.6852
  192SLPC   C1322184   2.834   2.258   6.056 -0.7906  0.6484  0.9004
  192SLPC  H13A22185   2.778   2.218   5.972  0.8532  0.2798 -0.0736
  192SLPC  H13B22186   2.765   2.290   6.132 -1.8546 -0.0895  0.2770
  192SLPC  H13C22187   2.895   2.339   6.019  2.1536 -1.7482  0.1332
  192SLPC   C1422188   3.041   2.128   6.019  0.5565 -0.0712 -0.8161
  192SLPC  H14A22189   3.008   2.097   5.921 -2.0413 -1.1434  0.2938
  192SLPC  H14B22190   3.114   2.207   6.014  1.3829 -0.8810 -2.3232
  192SLPC  H14C22191   3.094   2.037   6.045 -2.4456 -1.6446  0.3440
  192SLPC   C1522192   2.843   2.032   6.120 -0.5052 -0.0001  0.2283
  192SLPC  H15A22193   2.807   1.982   6.031  1.1227 -0.9138  0.0463
  192SLPC  H15B22194   2.889   1.950   6.174 -2.1230 -0.0961  1.5340
  192SLPC  H15C22195   2.756   2.063   6.176 -1.6730 -0.5832 -1.2010
  192SLPC   C1222196   2.975   2.203   6.245  0.3585  0.3002 -0.1010
  192SLPC  H12A22197   3.015   2.124   6.306  1.2018  2.5011  2.3700
  192SLPC  H12B22198   2.886   2.225   6.301 -0.6536  2.7110 -2.4460
  192SLPC   C1122199   3.066   2.322   6.256  0.4045 -0.3728 -0.0525
  192SLPC  H11A22200   3.027   2.398   6.186  2.1220  0.9752  0.3896
  192SLPC  H11B22201   3.165   2.292   6.216  0.6757 -0.0863  0.3921
  192SLPC     P22202   2.946   2.434   6.456  0.5094 -0.2159 -0.2889
  192SLPC   O1322203   2.977   2.576   6.463 -0.1976 -0.6933  0.0158
  192SLPC   O1422204   2.811   2.399   6.398  0.3064 -0.2545  0.2353
  192SLPC   O1222205   3.064   2.356   6.395  0.0981 -0.3539  0.2120
  192SLPC   O1122206   2.945   2.383   6.604 -0.1982  0.4779  0.7835
  192SLPC    C122207   3.035   2.424   6.704 -0.2796 -0.2297  0.4154
  192SLPC    HA22208   3.105   2.341   6.726 -1.3296 -0.3241  4.0148
  192SLPC    HB22209   3.083   2.520   6.676 -0.4369  0.1091  1.2890
  192SLPC    C222210   2.961   2.467   6.834  0.1143  0.0449  0.4185
  192SLPC    HS22211   3.037   2.506   6.905 -1.1444  0.7719  1.4084
  192SLPC   O2122212   2.904   2.348   6.884 -0.0393  0.1360  0.4160
  192SLPC   C2122213   2.973   2.274   6.973  0.2941  0.0469 -0.0253
  192SLPC   O2222214   3.069   2.313   7.037  0.4471 -0.2089  0.8326
  192SLPC   C2222215   2.918   2.129   6.973  0.7228  0.5034 -0.0356
  192SLPC   H2R22216   2.882   2.101   6.872  0.8004 -0.6512  0.2437
  192SLPC   H2S22217   2.997   2.061   7.011 -1.7866 -2.7730 -0.2651
  192SLPC    C322218   2.858   2.580   6.813 -0.3401  0.1112 -0.1210
  192SLPC    HX22219   2.774   2.554   6.745 -1.7412  2.1650  0.7272
  192SLPC    HY22220   2.902   2.663   6.753  0.2932 -2.1899 -3.0700
  192SLPC   O3122221   2.808   2.627   6.940  0.1025  0.8222  0.5717
  192SLPC   C3122222   2.686   2.575   6.975 -0.6168 -0.1036 -0.0165
  192SLPC   O3222223   2.607   2.525   6.899 -0.2129  0.2480 -0.2457
  192SLPC   C3222224   2.668   2.587   7.128  0.2183 -0.5699 -0.1505
  192SLPC   H2X22225   2.706   2.492   7.169  3.5237  0.1121 -1.3150
  192SLPC   H2Y22226   2.557   2.596   7.137  0.3731 -0.4202  2.0841
  192SLPC   C2322227   2.798   2.127   7.068 -0.6494  0.6298 -0.1787
  192SLPC   H3R22228   2.755   2.028   7.041  1.4835  0.4972 -3.7502
  192SLPC   H3S22229   2.720   2.202   7.045 -3.0068 -1.5016  0.4586
  192SLPC   C2422230   2.835   2.125   7.218 -0.7983 -0.1590  0.2660
  192SLPC   H4R22231   2.919   2.196   7.229 -0.8823  0.1615 -0.9478
  192SLPC   H4S22232   2.880   2.028   7.247  1.4470  0.6371 -0.3415
  192SLPC   C2522233   2.720   2.165   7.308  0.0373 -0.4395 -0.4186
  192SLPC   H5R22234   2.635   2.098   7.280  0.1995 -1.5037  1.4855
  192SLPC   H5S22235   2.683   2.270   7.305  0.5629 -0.2534 -0.5713
  192SLPC   C2622236   2.759   2.149   7.455  0.0817 -0.1135 -0.4196
  192SLPC   H6R22237   2.858   2.197   7.467  0.8524 -1.7791  0.2128
  192SLPC   H6S22238   2.781   2.043   7.481  1.2767  0.1424 -0.3417
  192SLPC   C2722239   2.663   2.207   7.563  0.9421 -0.4824  0.7043
  192SLPC   H7R22240   2.578   2.137   7.548  1.5782 -0.8423 -1.4694
  192SLPC   H7S22241   2.632   2.307   7.526 -0.1603 -0.4474  1.6600
  192SLPC   C2822242   2.715   2.233   7.702 -0.2285  0.6814  0.5916
  192SLPC   H8R22243   2.804   2.299   7.695 -1.3525  2.1581 -0.4329
  192SLPC   H8S22244   2.741   2.135   7.748  1.3596  0.2950 -0.9991
  192SLPC   C2922245   2.606   2.298   7.783 -0.4236 -0.6879  0.7882
  192SLPC   H9R22246   2.526   2.338   7.719 -0.7061 -1.9672  0.3258
  192SLPC  C21022247   2.609   2.303   7.917 -0.1945  0.0299  0.2247
  192SLPC  H10R22248   2.528   2.349   7.975 -2.0420 -0.7469 -1.6277
  192SLPC  C21122249   2.709   2.236   8.011  0.1777  0.1887  0.2949
  192SLPC  H11R22250   2.808   2.241   7.961  0.5278  0.0760  0.9588
  192SLPC  H11S22251   2.691   2.126   8.011 -1.2157  0.3649 -1.7006
  192SLPC  C21222252   2.718   2.282   8.153 -0.4008 -0.3820  0.3172
  192SLPC  H12R22253   2.771   2.378   8.170 -2.8027  1.5495 -2.1321
  192SLPC  C21322254   2.643   2.232   8.253 -0.1899  0.1104 -0.0571
  192SLPC  H13R22255   2.648   2.294   8.344  0.2082  2.9247 -1.8750
  192SLPC  C21422256   2.539   2.127   8.246 -1.4988 -0.5775  0.6663
  192SLPC  H14R22257   2.577   2.032   8.289 -1.4655 -0.6309  0.5206
  192SLPC  H14S22258   2.509   2.110   8.140  0.5419  1.5321 -0.3395
  192SLPC  C21522259   2.409   2.165   8.326 -0.3515 -0.4020 -0.0253
  192SLPC  H15R22260   2.353   2.240   8.266  0.5446  2.1176  2.0938
  192SLPC  H15S22261   2.431   2.207   8.426  1.2122 -3.9134  1.2620
  192SLPC  C21622262   2.327   2.042   8.354  0.2790  0.1060  0.2386
  192SLPC  H16R22263   2.389   1.974   8.416 -1.8849 -0.7024  1.6539
  192SLPC  H16S22264   2.317   1.991   8.256  0.9942  0.9093 -0.2628
  192SLPC  C21722265   2.179   2.059   8.414 -0.3022  0.3359 -0.0912
  192SLPC  H17R22266   2.110   2.106   8.341 -1.8780 -1.4235  0.2148
  192SLPC  H17S22267   2.137   1.961   8.444 -2.1896  1.0457 -0.2730
  192SLPC  C21822268   2.174   2.149   8.537  0.4814 -0.7317 -0.5547
  192SLPC  H18R22269   2.213   2.250   8.514 -0.0581 -0.4351 -0.1874
  192SLPC  H18S22270   2.227   2.105   8.624  1.6319  1.9874  0.2313
  192SLPC  H18T22271   2.067   2.155   8.568  1.0258 -0.7660  1.4409
  192SLPC   C3322272   2.748   2.697   7.188 -0.1040 -0.1190 -0.1393
  192SLPC   H3X22273   2.797   2.762   7.113 -0.7940  0.2434 -0.2825
  192SLPC   H3Y22274   2.826   2.639   7.242 -0.6947  0.3729  1.2991
  192SLPC   C3422275   2.682   2.780   7.303  0.2929  0.1236  0.3952
  192SLPC   H4X22276   2.612   2.857   7.265 -0.5046  0.2237  1.9774
  192SLPC   H4Y22277   2.766   2.827   7.359  0.0301  0.6003  0.3958
  192SLPC   C3522278   2.607   2.686   7.405 -0.3090 -0.0840 -0.8454
  192SLPC   H5X22279   2.679   2.605   7.431 -2.2428 -1.2444  1.2775
  192SLPC   H5Y22280   2.539   2.620   7.347  3.0716 -4.1880 -0.6790
  192SLPC   C3622281   2.557   2.766   7.528 -0.6757  0.6705 -0.4585
  192SLPC   H6X22282   2.497   2.852   7.489  0.5957  2.1151  0.6594
  192SLPC   H6Y22283   2.645   2.807   7.583  0.1323  1.1056 -2.0244
  192SLPC   C3722284   2.487   2.676   7.626 -0.4342  0.5802  0.3898
  192SLPC   H7X22285   2.533   2.575   7.636 -3.6886 -0.8927  1.8945
  192SLPC   H7Y22286   2.390   2.653   7.578 -0.3648 -0.0286  0.5268
  192SLPC   C3822287   2.477   2.736   7.764 -0.2994 -0.6087 -0.2413
  192SLPC   H8X22288   2.434   2.838   7.753 -1.5650 -1.2016 -1.0219
  192SLPC   H8Y22289   2.574   2.735   7.818 -0.5420 -1.7631  0.2075
  192SLPC   C3922290   2.386   2.639   7.852 -0.4634 -0.4764 -0.0988
  192SLPC   H9X22291   2.424   2.535   7.855 -1.1132 -0.7829 -1.3232
  192SLPC   H9Y22292   2.290   2.615   7.802 -1.1260 -0.0932  0.9610
  192SLPC  C31022293   2.356   2.686   8.000  0.2257  0.8008  0.2099
  192SLPC  H10X22294   2.318   2.790   8.005  0.5746  0.9532 -0.2377
  192SLPC  H10Y22295   2.448   2.690   8.061  0.6053 -2.8425  0.1162
  192SLPC  C31122296   2.260   2.582   8.060 -1.0881 -0.5709  0.1669
  192SLPC  H11X22297   2.300   2.478   8.063 -3.0678 -1.4719 -1.8560
  192SLPC  H11Y22298   2.171   2.567   7.995  0.5755 -3.6933 -1.6373
  192SLPC  C31222299   2.199   2.625   8.201  0.0908  0.0552  0.0217
  192SLPC  H12X22300   2.101   2.572   8.200  0.5773 -0.8605 -0.6551
  192SLPC  H12Y22301   2.170   2.732   8.204 -1.1703 -0.2558 -0.2323
  192SLPC  C31322302   2.293   2.588   8.313  0.5049  0.1907  0.3344
  192SLPC  H13X22303   2.394   2.625   8.284  1.6838 -1.1505  2.4535
  192SLPC  H13Y22304   2.299   2.477   8.318 -0.6532  0.1053  0.0923
  192SLPC  C31422305   2.267   2.632   8.450  0.3739 -0.1224 -0.0642
  192SLPC  H14X22306   2.167   2.602   8.488  0.0042  1.0736 -0.0434
  192SLPC  H14Y22307   2.262   2.743   8.451  1.9984 -0.0232 -0.5259
  192SLPC  C31522308   2.375   2.582   8.546  1.0255  0.1204 -0.0029
  192SLPC  H15X22309   2.435   2.669   8.580 -1.4066  0.9937  2.3871
  192SLPC  H15Y22310   2.437   2.499   8.507 -2.0134 -1.5547 -1.6589
  192SLPC  C31622311   2.312   2.532   8.681 -0.0266  0.0606 -0.2438
  192SLPC  H16X22312   2.244   2.453   8.645  0.4470 -0.0339 -0.9568
  192SLPC  H16Y22313   2.274   2.629   8.721  2.9109  1.1304  0.2415
  192SLPC  C31722314   2.427   2.477   8.769 -0.1106 -0.3075 -0.4735
  192SLPC  H17X22315   2.514   2.544   8.760 -0.4639  0.0359 -1.3878
  192SLPC  H17Y22316   2.458   2.379   8.727 -1.4962 -1.0860  0.2042
  192SLPC  C31822317   2.387   2.470   8.911 -0.0881 -0.7066 -0.5484
  192SLPC  H18X22318   2.300   2.409   8.945  1.0594 -2.6723 -0.9734
  192SLPC  H18Y22319   2.355   2.573   8.937  1.0543 -0.3169 -0.6305
  192SLPC  H18Z22320   2.473   2.450   8.978 -0.5755  0.4685  0.4538
  193SOD    SOD22321   5.302   1.838  15.383 -0.2555 -0.3811  0.5992
  194SOD    SOD22322   0.023   6.721   3.689  0.1146  0.0670  0.0311
  195SOD    SOD22323   5.776   5.086   6.743 -0.0356 -0.0597 -0.4720
  196SOD    SOD22324   1.889   3.294  17.363 -0.1650  0.3845 -0.4518
  197SOD    SOD22325   6.673   0.144   6.164  0.2513  0.1861 -0.2087
  198SOD    SOD22326   1.892   2.382  11.762 -0.1968  0.5477  0.0013
  199SOD    SOD22327   5.492   6.748   3.609  0.8642  0.2207 -0.1830
  200SOD    SOD22328   2.414   5.809   6.027 -0.1007  0.0759 -0.3237
  201SOD    SOD22329   3.694   4.258  14.589 -0.3757 -0.2284  0.1410
  202SOD    SOD22330   5.560   6.481  13.004  0.0006 -0.1719  0.0275
  203SOD    SOD22331   1.100   4.562   0.470 -0.0086 -0.1554  0.0143
  204SOD    SOD22332   6.759   5.450  10.927 -0.0959  0.2968 -0.3952
  205SOD    SOD22333   4.933   3.960   1.442 -0.2406 -0.0720  0.2183
  206SOD    SOD22334   1.336   0.294   4.654  0.6720  0.8045 -0.0447
  207SOD    SOD22335   3.291   1.014   5.507  0.5345  0.0745 -0.6732
  208SOD    SOD22336   1.861   4.669  16.412 -0.2697 -0.2872  0.0503
  209SOD    SOD22337   2.073   5.403   5.293 -0.2399 -0.0535 -0.5022
  210SOD    SOD22338   5.267   4.768  11.714  0.3028  0.1792 -0.0150
  211SOD    SOD22339   4.094   5.669  16.564  0.2143  0.5285 -0.2952
  212SOD    SOD22340   6.438   1.202   6.079 -0.2785 -0.2685 -0.1378
  213SOD    SOD22341   1.749   2.959   5.243 -0.4408  0.4020  0.1496
  214SOD    SOD22342   0.837   4.396   6.525  0.0335 -0.1332  0.3413
  215SOD    SOD22343   3.847   3.230   3.532 -0.0635 -0.1999  0.0295
  216SOD    SOD22344   1.989   2.653   3.499 -0.1738 -0.0267 -0.0694
  217SOD    SOD22345   0.475   0.899   5.297 -0.2289 -0.6491 -0.3671
  218SOD    SOD22346   4.739   5.631   3.032  0.0234 -0.2675  0.0214
  219SOD    SOD22347   1.857   2.387  15.225 -0.0605  0.4816  0.3768
  220SOD    SOD22348   5.981   1.774   1.223  0.2527 -0.5133 -0.3304
  221SOD    SOD22349   1.221   6.057   6.080  0.0088 -0.0729  0.3235
  222SOD    SOD22350   2.696   5.377  14.612 -0.1460  0.2106  0.1230
  223SOD    SOD22351   5.274   0.980   5.057 -0.0819  0.3110  0.3964
  224SOD    SOD22352   1.011   1.408  17.197  0.0434  0.0296  0.8025
  225SOD    SOD22353   3.333   3.178  16.256 -0.2794  0.4232 -0.1558
  226SOD    SOD22354   5.029   4.668  15.914 -0.0211 -0.2982 -0.4048
  227SOD    SOD22355   0.664   3.735  11.336  0.3084 -0.6049  0.2761
  228SOD    SOD22356   4.340   3.052  15.883  0.5187  0.3653 -0.2401
  229SOD    SOD22357   3.509   0.141   1.413 -0.1511  0.0325  0.2814
  230SOD    SOD22358   5.413   5.843   0.785  0.1004 -0.4084 -0.4263
  231SOD    SOD22359   4.187   1.196   6.153 -0.5041 -0.1279 -0.0306
  232SOD    SOD22360   3.146   3.982  14.073 -0.0865  0.2572  0.3043
  233SOD    SOD22361   4.204   1.406   5.250 -0.2435  0.0237  0.2122
  234SOD    SOD22362   4.538   1.816  16.143 -0.3667 -0.2778  0.2679
  235SOD    SOD22363   3.829   2.776  11.075 -0.0826 -0.0133 -0.0986
  236SOD    SOD22364   3.452   0.308  14.578 -0.2381 -0.0029 -0.2740
  237SOD    SOD22365   2.396   6.319  12.134  0.1595 -0.5310 -0.3021
  238SOD    SOD22366   1.433   6.356   4.605  0.3051  0.2238 -0.3250
  239SOD    SOD22367   6.060   3.015  17.404 -0.0302  0.5406  0.0925
  240SOD    SOD22368   5.295   6.486  11.594 -0.1950  0.0654  0.7675
  241SOD    SOD22369   0.009   4.826   3.138 -0.4918  0.4446  0.4975
  242SOD    SOD22370   6.459   0.147  10.695  0.1005  0.0226 -0.1869
  243SOD    SOD22371   2.816   0.107  11.787  0.0057 -0.1298 -0.6278
  244SOD    SOD22372   1.469   4.805   1.342  0.2289  0.2307 -0.4074
  245SOD    SOD22373   2.357   5.127  10.881 -0.5466 -0.3830 -0.5065
  246SOD    SOD22374   6.483   1.841  16.798 -0.2972 -0.2319  0.3682
  247SOD    SOD22375   3.335   5.562  17.067 -0.4880 -0.0258 -0.2366
  248SOD    SOD22376   0.444   4.890  11.921  0.1760  0.5381  0.1158
  249SOD    SOD22377   3.608   3.235   6.876  0.1853  0.0697 -0.4151
  250SOD    SOD22378   2.738   3.956   1.496 -0.1160 -0.3221  0.2870
  251SOD    SOD22379   4.267   2.552   4.268 -0.1078  0.0365 -0.0503
  252SOD    SOD22380   1.080   5.274   3.862 -0.2405  0.0458  0.3558
  253SOD    SOD22381   5.483   1.119   4.182  0.4198 -0.4120  0.0401
  254SOD    SOD22382   1.835   6.464  12.008  0.0897  0.4236 -0.1082
  255SOD    SOD22383   0.240   3.674   6.224  0.1311  0.0878 -0.4219
  256SOD    SOD22384   4.113   0.364  11.474  0.0755 -0.0966 -0.4214
  257SOD    SOD22385   6.031   2.566   4.043 -0.3596  0.5664  0.4427
  258SOD    SOD22386   6.673   3.696   2.115  0.0468  0.0537 -0.2533
  259SOD    SOD22387   4.728   4.800  14.632 -0.1426 -0.0433 -0.2809
  260SOD    SOD22388   1.108   0.217   1.905  0.0287 -0.8954  0.0362
  261SOD    SOD22389   4.417   5.813   0.408  0.0577  0.0109  0.2770
  262SOD    SOD22390   3.449   2.759  12.813  0.5307 -0.0420 -0.3094
  263SOD    SOD22391   2.079   5.512  16.315 -0.2617 -0.4565 -0.5914
  264SOD    SOD22392   3.755   5.394  11.791  0.6791  0.2133 -0.1213
  265SOD    SOD22393   5.885   6.321  11.528  0.3217 -0.0444  0.8165
  266CLA    CLA22394   3.352   2.015   5.191  0.0136 -0.2892 -0.0179
  267CLA    CLA22395   3.855   6.642   0.367 -0.0831  0.1441 -0.1308
  268CLA    CLA22396   4.681   4.589   2.073  0.0889  0.0310 -0.0787
  269CLA    CLA22397   1.847   4.551   1.157 -0.2436  0.0599 -0.1220
  270CLA    CLA22398   3.712   2.316  12.133 -0.4505 -0.2212  0.1512
  271CLA    CLA22399   0.387   0.932  14.590 -0.1060 -0.1973 -0.0998
  272CLA    CLA22400   1.136   5.585  17.126 -0.3167  0.0536 -0.0246
  273CLA    CLA22401   4.461   5.410   2.718  0.1006 -0.1475  0.3434
  274CLA    CLA22402   5.280   0.040  17.063  0.2460  0.2223 -0.0496
  275CLA    CLA22403   2.134   3.012   4.450  0.1070  0.2146  0.2685
  276CLA    CLA22404   3.841   3.033  15.277  0.0640 -0.1247  0.1301
  277CLA    CLA22405   4.404   3.942  17.210 -0.0484 -0.3765 -0.2709
  278CLA    CLA22406   2.552   1.154   5.812  0.4564 -0.0036 -0.3107
  279CLA    CLA22407   5.136   3.176   2.064 -0.2945  0.1621 -0.1758
  280CLA    CLA22408   2.727   2.719  17.213 -0.6298 -0.0634 -0.1150
  281CLA    CLA22409   2.882   6.112  11.721  0.0666 -0.2343 -0.1069
  282CLA    CLA22410   2.238   4.217   6.017 -0.2433  0.1959 -0.1638
  283CLA    CLA22411   6.179   3.548   4.580  0.6485  0.3534  0.1540
  284CLA    CLA22412   5.191   0.422  12.007 -0.2481 -0.0199 -0.1745
  285CLA    CLA22413   1.373   3.654   4.629 -0.1255  0.1803  0.3221
  286CLA    CLA22414   6.644   2.383  13.091  0.5526  0.7286  0.0334
  287CLA    CLA22415   0.339   5.587   2.700  0.1256 -0.0791 -0.0997
  288CLA    CLA22416   5.811   2.878   1.660 -0.0208 -0.3380  0.1930
  289CLA    CLA22417   5.131   4.458  16.787  0.3114  0.2564  0.2777
  290CLA    CLA22418   0.223   3.183   2.506 -0.0974 -0.3165 -0.2584
  291CLA    CLA22419   0.554   1.610   0.907 -0.0307 -0.1116  0.0186
  292CLA    CLA22420   0.353   2.899  11.747 -0.6287 -0.0477 -0.1487
  293CLA    CLA22421   0.862   0.324   4.890  0.1135  0.3986  0.4054
  294CLA    CLA22422   6.756   5.258   1.671  1.0364  0.0472  0.4223
  295CLA    CLA22423   2.804   6.242  16.565  0.4505 -0.0226 -0.5417
  296CLA    CLA22424   5.897   6.618   3.780  0.1962 -0.1125  0.3672
  297CLA    CLA22425   1.046   5.452   2.047  0.0483 -0.1165  0.0202
  298CLA    CLA22426   4.295   3.297  16.898 -0.1747 -0.1985 -0.1467
  299CLA    CLA22427   0.580   4.065   3.628 -0.0554 -0.1288 -0.3445
  300CLA    CLA22428   5.848   4.680  12.957  0.5420  0.2555 -0.2815
  301CLA    CLA22429   4.272   1.039   5.950  0.1581 -0.3366  0.0911
  302CLA    CLA22430   6.665   0.613   2.295 -0.0102 -0.2401 -0.3014
  303CLA    CLA22431   2.366   4.641  14.169  0.0543 -0.4821 -0.2909
  304CLA    CLA22432   4.528   3.330  15.328  0.1807 -0.1638  0.4243
  305CLA    CLA22433   3.718   0.108  14.268  0.2645 -0.1149 -0.0169
  306CLA    CLA22434   2.258   5.575   5.647 -0.3914  0.1325 -0.3399
  307CLA    CLA22435   2.021   2.912  15.543 -0.0391 -0.4094  0.1967
  308CLA    CLA22436   5.340   1.318   4.286  0.2129 -0.0390  0.0294
  309CLA    CLA22437   6.019   3.935   1.971  0.2461 -0.1465  0.1718
  310CLA    CLA22438   4.482   5.124  17.482  0.3424  0.0043  0.0789
  311CLA    CLA22439   2.574   1.319  12.298 -0.2837 -0.3158 -0.0147
  312CLA    CLA22440   2.035   5.821  16.582  0.1122 -0.0267  0.1208
  313CLA    CLA22441   4.603   1.023  17.201 -0.2490 -0.4581 -0.3894
  314CLA    CLA22442   5.612   1.072   2.439  0.0866  0.3060  0.2541
  315CLA    CLA22443   0.240   1.594  15.728 -0.2811 -0.2559  0.2571
  316CLA    CLA22444   6.764   3.445  16.891  0.3718  0.0887 -0.3522
  317CLA    CLA22445   2.782   4.330  12.786 -0.2373 -0.2606 -0.2106
  318CLA    CLA22446   3.920   3.469  11.560 -0.3721  0.1828 -0.2353
  319TIP3   OH222447   1.708   2.460  15.799 -0.0396  0.7257 -0.1316
  319TIP3    H122448   1.670   2.429  15.717  0.0081  2.3691 -0.8232
  319TIP3    H222449   1.639   2.449  15.863 -1.1154  2.0218 -1.0050
  320TIP3   OH222450   2.840   2.736  11.292 -0.3917 -0.0910 -0.2008
  320TIP3    H122451   2.838   2.674  11.365 -1.6876  0.4276  0.2240
  320TIP3    H222452   2.790   2.693  11.223  0.7200 -0.5211 -0.7741
  321TIP3   OH222453   3.446   4.326  16.673 -0.2931  0.4883 -0.6688
  321TIP3    H122454   3.537   4.343  16.698 -0.3441  0.1629 -0.2609
  321TIP3    H222455   3.422   4.248  16.722 -0.5086  0.0525 -1.4504
  322TIP3   OH222456   3.140   3.463   5.862  0.1455  0.1223 -0.1398
  322TIP3    H122457   3.115   3.372   5.846 -2.6416  0.8500 -0.5469
  322TIP3    H222458   3.143   3.470   5.958  0.7829 -0.4605 -0.1056
  323TIP3   OH222459   3.773   1.886   0.349  0.0607 -0.4699 -0.1343
  323TIP3    H122460   3.795   1.833   0.272 -0.5552  0.3164 -0.8698
  323TIP3    H222461   3.686   1.855   0.375 -0.6593  0.6702 -1.0519
  324TIP3   OH222462   4.665   0.747  15.182 -0.4747  0.1943 -0.0297
  324TIP3    H122463   4.598   0.730  15.249 -0.2512  0.6114  0.3096
  324TIP3    H222464   4.706   0.829  15.211  0.7997 -0.5380  0.2737
  325TIP3   OH222465   1.316   2.620  14.645 -0.1151 -0.2335 -0.4439
  325TIP3    H122466   1.247   2.685  14.661 -0.2125 -0.3038 -0.5742
  325TIP3    H222467   1.342   2.635  14.554  1.1684  0.8756  0.0582
  326TIP3   OH222468   1.734   6.297   2.123  0.1123 -0.0137  0.2381
  326TIP3    H122469   1.737   6.236   2.196 -0.3975 -2.7014 -1.8426
  326TIP3    H222470   1.659   6.354   2.142 -2.1859 -2.8432  0.2672
  327TIP3   OH222471   3.181   6.056   3.631  0.5591 -0.0585 -0.4913
  327TIP3    H122472   3.143   6.095   3.710  0.2954 -0.1392 -0.5761
  327TIP3    H222473   3.263   6.016   3.660 -0.2222 -1.3317  0.0301
  328TIP3   OH222474   1.646   5.714  14.679  0.0457  0.0672 -0.1325
  328TIP3    H122475   1.707   5.654  14.722 -0.2208 -0.3132 -0.2789
  328TIP3    H222476   1.686   5.731  14.594  0.8747  1.2872  0.4571
  329TIP3   OH222477   6.044   6.564   1.115 -0.5014  0.3384  0.5461
  329TIP3    H122478   5.999   6.544   1.033 -1.6031 -1.0142  1.4193
  329TIP3    H222479   5.994   6.636   1.153 -0.2891  0.6290  0.2866
  330TIP3   OH222480   3.155   5.074  13.054 -0.1295  0.8456  0.0486
  330TIP3    H122481   3.127   5.003  13.113  0.9864 -0.1125 -0.5298
  330TIP3    H222482   3.143   5.038  12.966  0.4081  1.3939 -0.2544
  331TIP3   OH222483   6.687   5.423  16.129 -0.2249 -0.4875 -0.0050
  331TIP3    H122484   6.627   5.353  16.104 -1.9174  1.3685 -1.5387
  331TIP3    H222485   6.753   5.423  16.059 -0.7288 -0.0224 -0.4907
  332TIP3   OH222486   2.072   6.411   5.555 -0.6279  0.4538 -0.1564
  332TIP3    H122487   2.134   6.343   5.530 -1.3762 -0.4347  0.3677
  332TIP3    H222488   2.107   6.491   5.515 -0.1999 -0.3804 -1.5166
  333TIP3   OH222489   3.312   3.020   4.878 -0.5767 -0.1674 -0.0816
  333TIP3    H122490   3.247   3.077   4.839  1.2278  1.1845 -1.2430
  333TIP3    H222491   3.294   2.934   4.841 -0.3253  0.6378 -2.1849
  334TIP3   OH222492   2.612   4.158   0.495  0.1915  0.2418  0.6655
  334TIP3    H122493   2.535   4.135   0.443  0.4507 -2.6922  1.3745
  334TIP3    H222494   2.577   4.178   0.582  0.0056  2.4383  0.1505
  335TIP3   OH222495   4.949   2.964  11.326 -0.4080  0.2943  0.4256
  335TIP3    H122496   4.998   2.932  11.250  0.1230  1.7701  0.1281
  335TIP3    H222497   4.937   2.886  11.380 -0.5314 -0.7250 -1.0142
  336TIP3   OH222498   5.616   3.912   2.457  0.8226  0.0754  0.5614
  336TIP3    H122499   5.668   3.949   2.529  1.0470 -0.6686  0.7864
  336TIP3    H222500   5.676   3.852   2.413  0.4518 -0.0425  0.2108
  337TIP3   OH222501   6.759   6.158  12.443 -0.5345  0.0923 -0.0597
  337TIP3    H122502   6.750   6.102  12.366  1.9304 -0.3134 -0.1260
  337TIP3    H222503   6.847   6.140  12.476 -0.4478  2.3872  1.1558
  338TIP3   OH222504   3.290   1.520  10.807 -0.5842  0.1679  0.0170
  338TIP3    H122505   3.382   1.495  10.812 -0.5459 -0.6721 -2.9635
  338TIP3    H222506   3.291   1.610  10.775 -0.8037  0.4821  0.8833
  339TIP3   OH222507   6.307   5.353  13.375 -0.3670  0.1255  0.8828
  339TIP3    H122508   6.344   5.415  13.314 -1.5182 -0.0746 -0.0690
  339TIP3    H222509   6.240   5.403  13.423  0.0832  0.1161  1.5370
  340TIP3   OH222510   4.452   1.552   0.448  0.0968  0.1583  0.1958
  340TIP3    H122511   4.447   1.463   0.483 -2.2032 -0.2548 -0.9479
  340TIP3    H222512   4.410   1.607   0.514 -0.2133  0.0825  0.0633
  341TIP3   OH222513   3.903   1.869   5.633 -0.0550 -0.4977 -0.1757
  341TIP3    H122514   3.831   1.815   5.667  0.8106 -1.4233  0.2221
  341TIP3    H222515   3.974   1.857   5.696  0.3973  0.5420 -0.4737
  342TIP3   OH222516   3.303   1.709   5.113 -0.1798  0.3735  0.2721
  342TIP3    H122517   3.310   1.803   5.126 -1.1888  0.3315  1.3192
  342TIP3    H222518   3.369   1.672   5.171  0.9216  0.4359 -0.8858
  343TIP3   OH222519   2.235   5.848  16.817 -0.1277 -0.9328  0.0215
  343TIP3    H122520   2.166   5.800  16.771 -1.3399 -0.8337  1.6107
  343TIP3    H222521   2.272   5.906  16.752 -1.2344 -1.3383 -1.0100
  344TIP3   OH222522   1.789   5.016  16.744  0.8874 -0.1331 -0.6313
  344TIP3    H122523   1.720   5.011  16.678 -2.0347  1.5633  2.0182
  344TIP3    H222524   1.812   4.925  16.763 -2.3569 -0.9577 -0.0743
  345TIP3   OH222525   6.471   6.525   0.887 -0.5732 -0.3405  0.0952
  345TIP3    H122526   6.549   6.567   0.853 -1.0317  0.1739 -0.3397
  345TIP3    H222527   6.503   6.464   0.954  0.3368 -1.2332 -1.1076
  346TIP3   OH222528   0.076   3.913  14.719 -0.2784 -0.4195  0.4107
  346TIP3    H122529   0.134   3.855  14.671 -0.4861 -0.9831  0.8276
  346TIP3    H222530   0.048   3.978  14.655  0.9603 -0.0174  0.2555
  347TIP3   OH222531   5.581   4.751   4.727  0.2557  0.1390  0.2663
  347TIP3    H122532   5.613   4.771   4.640  0.3529 -1.1502 -0.0162
  347TIP3    H222533   5.657   4.714   4.773  0.4849  1.7122  1.2488
  348TIP3   OH222534   5.927   2.137  13.285 -0.2171  0.3623 -0.2662
  348TIP3    H122535   5.841   2.130  13.244 -0.5080  1.4975  0.1008
  348TIP3    H222536   5.958   2.047  13.293  0.3112  0.0828 -3.8963
  349TIP3   OH222537   1.968   2.342  13.903  1.0487 -0.0198  0.1498
  349TIP3    H122538   2.025   2.407  13.944 -0.4304  1.2863  0.2589
  349TIP3    H222539   1.886   2.348  13.953 -0.0885  0.0953 -1.6477
  350TIP3   OH222540   4.644   0.378   2.656  0.2371  0.2881 -0.1868
  350TIP3    H122541   4.667   0.306   2.714 -1.6675  1.2401  1.8952
  350TIP3    H222542   4.557   0.356   2.623 -0.2155  1.3997  0.1956
  351TIP3   OH222543   4.116   6.085   6.686 -0.3009  0.0994  0.3628
  351TIP3    H122544   4.108   6.177   6.659 -0.1258  0.2340  0.7674
  351TIP3    H222545   4.152   6.089   6.775 -0.4877 -0.3546  0.4612
  352TIP3   OH222546   4.587   1.416  16.795  0.0032 -0.0149 -0.2799
  352TIP3    H122547   4.613   1.448  16.881 -1.4142 -1.2684  0.6742
  352TIP3    H222548   4.658   1.358  16.768  0.6844  0.7625 -0.2070
  353TIP3   OH222549   1.564   2.082   4.387  0.4228 -0.2684  0.3360
  353TIP3    H122550   1.571   1.999   4.434 -0.0849 -1.1925 -1.1550
  353TIP3    H222551   1.478   2.116   4.411 -0.4533 -1.4481 -0.9770
  354TIP3   OH222552   3.350   0.709  16.011 -0.3797  0.7165 -0.5662
  354TIP3    H122553   3.362   0.751  15.926 -0.6694 -2.7886 -2.5326
  354TIP3    H222554   3.256   0.697  16.019 -0.3552  1.0121  0.2956
  355TIP3   OH222555   1.022   6.014   6.178 -0.7635 -0.3305 -0.1201
  355TIP3    H122556   0.938   6.036   6.219 -1.8068 -2.2538 -1.0759
  355TIP3    H222557   1.072   5.972   6.248 -1.0954 -0.3005  0.1373
  356TIP3   OH222558   0.838   2.576  11.759  0.5313 -0.0916 -0.3583
  356TIP3    H122559   0.778   2.649  11.773 -1.1323 -1.1041 -1.8481
  356TIP3    H222560   0.797   2.502  11.805  1.8357 -0.2883  0.5488
  357TIP3   OH222561   0.902   1.891  13.125 -0.1002  0.1012 -0.4002
  357TIP3    H122562   0.964   1.947  13.172 -1.7106  1.0685  0.6860
  357TIP3    H222563   0.935   1.802  13.139  0.3181  0.4905  1.2986
  358TIP3   OH222564   3.510   5.305   1.834 -0.2685  0.4976 -0.0160
  358TIP3    H122565   3.427   5.312   1.881  1.2966 -0.3981  3.1600
  358TIP3    H222566   3.558   5.384   1.859  0.0414  0.7926 -1.4672
  359TIP3   OH222567   5.829   6.200  12.831 -0.0897 -0.2056  0.2226
  359TIP3    H122568   5.802   6.116  12.795  0.0615 -0.5169  0.8211
  359TIP3    H222569   5.874   6.178  12.913  0.2346  0.4341  0.2235
  360TIP3   OH222570   4.337   2.201  16.710 -0.2602 -0.4194  0.5937
  360TIP3    H122571   4.321   2.276  16.766 -1.1206 -0.7115  0.7427
  360TIP3    H222572   4.254   2.154  16.708 -1.0720  0.8617 -2.8859
  361TIP3   OH222573   3.466   0.428   1.091  0.0481 -0.0909 -0.0073
  361TIP3    H122574   3.527   0.355   1.093  0.3029  0.1300  0.8190
  361TIP3    H222575   3.507   0.493   1.035 -0.3663 -0.7215 -1.0830
  362TIP3   OH222576   4.677   1.310   2.707  0.7946 -0.3886 -0.3536
  362TIP3    H122577   4.646   1.273   2.789  0.1043  0.1770 -0.3581
  362TIP3    H222578   4.654   1.402   2.712  0.5298 -0.3979 -1.2888
  363TIP3   OH222579   0.002   1.250   2.307 -0.2184 -0.5413 -0.5172
  363TIP3    H122580   0.067   1.191   2.269 -0.4384 -1.3416  0.3380
  363TIP3    H222581  -0.075   1.196   2.322 -0.7146  0.1533 -0.4917
  364TIP3   OH222582   4.275   0.210  12.877  0.2566 -0.2115 -0.0571
  364TIP3    H122583   4.287   0.240  12.788  1.1931 -2.8809 -0.9427
  364TIP3    H222584   4.188   0.169  12.878  0.5478 -0.8472  0.0179
  365TIP3   OH222585   6.273   6.292   0.649  0.7171 -0.1052 -0.3992
  365TIP3    H122586   6.281   6.211   0.599 -2.6367 -0.0141 -1.3205
  365TIP3    H222587   6.250   6.264   0.738  0.4110 -0.1889 -0.5039
  366TIP3   OH222588   5.004   1.352  15.078 -0.1087  0.5190  0.0001
  366TIP3    H122589   5.023   1.298  15.001 -0.4670 -1.7015  1.3616
  366TIP3    H222590   4.926   1.402  15.054 -1.5009 -1.7035 -0.4379
  367TIP3   OH222591   0.734   5.292   6.994 -0.7360 -0.0582 -0.2217
  367TIP3    H122592   0.814   5.295   7.046 -1.1601  0.3292  0.4164
  367TIP3    H222593   0.764   5.303   6.903 -0.0819  0.2529  0.0282
  368TIP3   OH222594   5.640   4.374  17.330  0.9445 -0.2736  0.1114
  368TIP3    H122595   5.596   4.302  17.376  0.5737 -0.4641 -0.5330
  368TIP3    H222596   5.718   4.334  17.292  0.9460 -0.2436  0.0829
  369TIP3   OH222597   0.322   5.515  11.612  0.4132  0.5547 -0.2054
  369TIP3    H122598   0.350   5.566  11.688  0.9356 -0.5129  0.3494
  369TIP3    H222599   0.374   5.550  11.539 -0.7097  2.1699 -0.2927
  370TIP3   OH222600   0.934   3.991   4.571  0.7058  0.4404 -0.0821
  370TIP3    H122601   0.982   3.911   4.591  2.1722  1.4779  0.7913
  370TIP3    H222602   0.920   4.032   4.656 -1.1698  0.5139 -0.3959
  371TIP3   OH222603   1.579   1.282  16.870  0.0340 -0.3095 -0.3604
  371TIP3    H122604   1.521   1.352  16.840 -1.0179 -0.7947  0.4837
  371TIP3    H222605   1.611   1.242  16.789 -0.8391 -0.0567 -0.8438
  372TIP3   OH222606   3.966   5.191  12.680 -0.0952 -0.1860  0.2480
  372TIP3    H122607   3.935   5.271  12.637 -1.1082 -0.8543 -0.3122
  372TIP3    H222608   4.055   5.212  12.710 -0.2546  1.0571 -0.1164
  373TIP3   OH222609   0.817   1.656   3.898  0.0135 -0.0411 -0.2167
  373TIP3    H122610   0.901   1.700   3.882  0.2180 -1.3346 -3.5641
  373TIP3    H222611   0.755   1.700   3.840 -1.4710  0.2945  1.5378
  374TIP3   OH222612   5.494   3.900  12.487 -0.0054 -0.6104 -0.1124
  374TIP3    H122613   5.426   3.958  12.455 -1.1953 -2.2215 -0.6256
  374TIP3    H222614   5.464   3.872  12.574  0.6721 -0.3081  0.2330
  375TIP3   OH222615   6.566   5.491   1.735  0.2556  0.4902 -0.3534
  375TIP3    H122616   6.634   5.557   1.720  3.4831 -1.9111  2.1830
  375TIP3    H222617   6.603   5.410   1.701 -1.6436 -0.8338  0.5435
  376TIP3   OH222618   1.156   1.432   0.274  0.0690  0.3580  0.5369
  376TIP3    H122619   1.101   1.487   0.219 -1.1425  0.5572  1.8930
  376TIP3    H222620   1.126   1.449   0.363  2.3087  0.4236  1.3333
  377TIP3   OH222621   5.220   1.847   2.450 -0.0108 -0.0661  0.2593
  377TIP3    H122622   5.311   1.817   2.445  0.6077  1.6777  0.2527
  377TIP3    H222623   5.192   1.853   2.358  1.0776  2.6523 -0.0009
  378TIP3   OH222624   0.784   2.585  16.448 -0.0238 -0.1231 -0.6441
  378TIP3    H122625   0.761   2.608  16.538  1.3308 -1.1326 -0.0017
  378TIP3    H222626   0.845   2.653  16.421  2.8840 -1.9564  0.7608
  379TIP3   OH222627   1.448   1.162  15.578 -0.2067  0.2457 -0.2589
  379TIP3    H122628   1.537   1.150  15.543 -0.0066 -0.8111  0.5503
  379TIP3    H222629   1.395   1.185  15.502  1.0996  2.8875 -0.4759
  380TIP3   OH222630   1.866   4.015  17.502  0.3338  0.3231  0.1635
  380TIP3    H122631   1.912   3.958  17.564 -0.4779  0.2019  0.6632
  380TIP3    H222632   1.858   3.962  17.422  0.2901  0.0214  0.3656
  381TIP3   OH222633   5.434   6.146   4.379  0.0472  0.1463  0.2842
  381TIP3    H122634   5.460   6.167   4.469  1.5159  0.5463 -0.2087
  381TIP3    H222635   5.452   6.226   4.330 -0.8987 -0.0148 -0.3529
  382TIP3   OH222636   6.308   5.478  10.638  0.8798 -0.1950  0.1811
  382TIP3    H122637   6.232   5.428  10.606 -0.6811  1.0666  1.7134
  382TIP3    H222638   6.350   5.419  10.701  1.8539 -1.3100 -1.4486
  383TIP3   OH222639   3.699   2.849   4.887 -0.6191 -0.2839 -0.0643
  383TIP3    H122640   3.645   2.925   4.866 -0.0532  0.2906  0.4946
  383TIP3    H222641   3.651   2.805   4.957 -1.0568 -0.5721 -0.5384
  384TIP3   OH222642   3.409   1.560  12.304 -0.1377  0.3369  0.3528
  384TIP3    H122643   3.486   1.521  12.263 -0.2271 -0.4274  0.9038
  384TIP3    H222644   3.392   1.639  12.252  0.0979 -0.2974 -0.7233
  385TIP3   OH222645   3.583   2.413  12.648 -0.2438  0.0131 -0.4782
  385TIP3    H122646   3.513   2.475  12.633  0.2811  0.7461  0.0403
  385TIP3    H222647   3.646   2.460  12.702 -0.7244 -1.5843  1.6056
  386TIP3   OH222648   6.550   4.083   2.654  0.4865  0.3047 -0.1385
  386TIP3    H122649   6.578   4.164   2.612  1.5091  0.1429  0.2185
  386TIP3    H222650   6.606   4.075   2.731  1.4902 -1.5525 -1.0216
  387TIP3   OH222651   6.008   3.075  17.169  0.4405  0.3668  0.2889
  387TIP3    H122652   5.922   3.039  17.188  0.3699  0.8279  0.8549
  387TIP3    H222653   6.015   3.072  17.073 -0.7146  1.4691  0.1426
  388TIP3   OH222654   2.290   5.345   6.039  0.3110 -0.4446 -0.1402
  388TIP3    H122655   2.378   5.307   6.034  1.1282  1.4859 -2.0795
  388TIP3    H222656   2.239   5.294   5.976 -0.1671 -1.8829  1.3322
  389TIP3   OH222657   5.668   5.518   5.550  0.1590  0.0962 -0.5914
  389TIP3    H122658   5.610   5.532   5.475  0.0839 -0.0606 -0.5629
  389TIP3    H222659   5.665   5.424   5.566 -0.9522  0.2990  0.5006
  390TIP3   OH222660   4.272   0.678   1.045 -0.3938 -0.3282  0.1855
  390TIP3    H122661   4.273   0.601   1.103  0.8689 -0.6333 -0.1921
  390TIP3    H222662   4.364   0.688   1.018 -0.8113  0.3370 -1.0611
  391TIP3   OH222663   1.427   1.128  10.702  0.1830 -0.5130  0.0325
  391TIP3    H122664   1.342   1.114  10.659 -0.6015  1.6600  0.7492
  391TIP3    H222665   1.489   1.140  10.629 -0.6816  0.7148 -0.5408
  392TIP3   OH222666   6.603   2.894   3.768 -0.1652  0.4494  0.0999
  392TIP3    H122667   6.664   2.897   3.695  1.2402 -0.2282  1.1869
  392TIP3    H222668   6.647   2.941   3.839 -1.4562  1.0268  0.5494
  393TIP3   OH222669   4.734   3.253  11.742 -0.1454 -0.2345 -0.1108
  393TIP3    H122670   4.751   3.347  11.746 -1.1366 -0.0722  0.8539
  393TIP3    H222671   4.728   3.233  11.649 -1.3286  0.9436 -0.3189
  394TIP3   OH222672   5.515   5.113   3.759 -0.7370 -0.0809 -0.4608
  394TIP3    H122673   5.506   5.039   3.700 -0.8068 -0.8514  0.4988
  394TIP3    H222674   5.554   5.182   3.704 -0.0101 -1.0396 -1.1967
  395TIP3   OH222675   5.371   0.469  13.691 -0.0310 -0.2268  0.2823
  395TIP3    H122676   5.384   0.383  13.652  1.9739  0.4402 -0.6663
  395TIP3    H222677   5.399   0.459  13.782 -0.2965 -0.6886  0.3152
  396TIP3   OH222678   2.247   5.338   0.357 -0.3569  0.5986 -0.4914
  396TIP3    H122679   2.252   5.433   0.349 -0.3128  0.6534  0.1016
  396TIP3    H222680   2.153   5.319   0.348 -0.6958  0.9525  1.6488
  397TIP3   OH222681   1.652   4.240  17.392 -0.4118 -0.2314  0.1794
  397TIP3    H122682   1.584   4.176  17.369 -1.2055  0.7025 -0.1610
  397TIP3    H222683   1.680   4.215  17.480  0.0489 -1.6616 -0.3390
  398TIP3   OH222684   2.579   6.721  16.952 -0.1141 -0.4207  0.5064
  398TIP3    H122685   2.487   6.705  16.933 -0.0395 -1.8033  1.2038
  398TIP3    H222686   2.584   6.815  16.971 -1.6541 -0.5923  1.8988
  399TIP3   OH222687   1.474   5.481  14.612 -0.5602 -0.0092 -0.6397
  399TIP3    H122688   1.546   5.537  14.583  0.2950 -1.4282 -1.3760
  399TIP3    H222689   1.395   5.523  14.577 -0.1092  1.4828  0.0340
  400TIP3   OH222690   1.261   1.097  17.236  0.1917 -0.7111 -0.0746
  400TIP3    H122691   1.254   1.070  17.144  2.0847 -1.8962  0.0706
  400TIP3    H222692   1.335   1.158  17.237 -0.3189 -0.0873  0.5578
  401TIP3   OH222693   5.205   5.053   5.649 -0.2069 -0.1031 -0.5922
  401TIP3    H122694   5.163   5.133   5.619 -0.5286 -0.2699 -0.5977
  401TIP3    H222695   5.245   5.016   5.570 -0.2251 -0.0447 -0.6287
  402TIP3   OH222696   5.264   2.131   5.427 -0.4905 -0.0704 -0.3368
  402TIP3    H122697   5.272   2.184   5.506  1.0687 -0.6892 -0.0325
  402TIP3    H222698   5.270   2.193   5.355 -5.3062  1.0166 -0.1737
  403TIP3   OH222699   0.349   1.325  17.404 -0.3890  1.0405  0.5269
  403TIP3    H122700   0.373   1.412  17.373  0.4797  0.3264 -0.9103
  403TIP3    H222701   0.263   1.336  17.443  0.7281  3.0288  2.6848
  404TIP3   OH222702   6.321   4.961  13.755  0.1018  0.0593 -0.3816
  404TIP3    H122703   6.329   5.044  13.802 -0.6599 -0.5784  0.9254
  404TIP3    H222704   6.240   4.923  13.787  0.7773 -1.5124 -0.4331
  405TIP3   OH222705   3.702   1.060   0.800 -0.0585  0.0343  0.5016
  405TIP3    H122706   3.791   1.079   0.829  0.5444 -1.8008 -0.0155
  405TIP3    H222707   3.660   1.146   0.794  1.9012  1.0203  0.0092
  406TIP3   OH222708   4.905   3.889   0.530 -0.3783  0.0790  0.4230
  406TIP3    H122709   4.940   3.805   0.502  0.0324  0.9262 -1.8053
  406TIP3    H222710   4.866   3.872   0.616 -0.2061 -2.3338  0.0789
  407TIP3   OH222711   5.509   1.600  12.370 -0.0088  0.6524 -0.5497
  407TIP3    H122712   5.464   1.684  12.376 -0.1524  0.6915 -1.8846
  407TIP3    H222713   5.539   1.595  12.279 -1.7508 -1.6235 -1.0786
  408TIP3   OH222714   4.101   0.506  16.814  0.9042 -0.7737  0.0102
  408TIP3    H122715   4.174   0.544  16.765  0.1211 -0.7647 -1.1980
  408TIP3    H222716   4.052   0.455  16.749 -1.6217  1.2640  0.1038
  409TIP3   OH222717   1.101   5.314   3.616  0.0793 -0.2636  0.2063
  409TIP3    H122718   1.136   5.392   3.572  0.0525  0.4445  1.4051
  409TIP3    H222719   1.100   5.247   3.548 -0.4908  0.9475 -1.0159
  410TIP3   OH222720   5.590   6.183   4.929  0.2997 -0.0932 -1.0228
  410TIP3    H122721   5.545   6.099   4.923 -2.4938  1.2058  0.0137
  410TIP3    H222722   5.553   6.235   4.858  0.4175  0.9206 -0.3605
  411TIP3   OH222723   6.037   2.606  14.681  0.2180 -0.5358  0.4366
  411TIP3    H122724   5.976   2.660  14.633  0.2844  0.6046  1.5709
  411TIP3    H222725   6.009   2.516  14.665 -1.8898 -0.0377  1.0899
  412TIP3   OH222726   1.918   0.926   0.194 -0.8124  0.2901 -0.1184
  412TIP3    H122727   1.925   0.838   0.155  0.8599  1.1493 -1.9007
  412TIP3    H222728   1.835   0.924   0.242 -0.9518 -2.1647 -0.3233
  413TIP3   OH222729   1.154   1.518   6.156 -0.0943  0.1359  0.2019
  413TIP3    H122730   1.203   1.601   6.159  0.1839  0.0092 -0.7160
  413TIP3    H222731   1.124   1.511   6.066 -1.5674  0.0556  0.6702
  414TIP3   OH222732   0.716   2.727   5.769 -0.3091  0.0401  0.1519
  414TIP3    H122733   0.683   2.750   5.856 -0.2570 -0.2412  0.2471
  414TIP3    H222734   0.638   2.698   5.721 -0.2483 -0.3409  0.2829
  415TIP3   OH222735   1.785   4.305   0.732 -0.1943 -0.2195 -0.7385
  415TIP3    H122736   1.692   4.289   0.749 -0.1175 -2.4207 -1.9585
  415TIP3    H222737   1.831   4.258   0.802  0.0267  1.5687  0.3541
  416TIP3   OH222738   3.850   4.210   3.007  0.0292  0.1721  0.1982
  416TIP3    H122739   3.889   4.190   2.922  0.0064 -0.6055  0.3637
  416TIP3    H222740   3.756   4.198   2.994 -0.0284  0.6239  0.1831
  417TIP3   OH222741   4.392   5.430  10.749 -0.5299  0.2543 -0.5166
  417TIP3    H122742   4.315   5.388  10.709  0.0841 -0.9668 -0.4747
  417TIP3    H222743   4.370   5.439  10.841  0.1727 -2.1894 -0.0278
  418TIP3   OH222744   1.340   2.078  12.766  0.1320  0.3823  0.2190
  418TIP3    H122745   1.393   2.157  12.779  0.8272 -0.4374  3.1104
  418TIP3    H222746   1.305   2.059  12.853 -0.1908 -2.3796 -0.4325
  419TIP3   OH222747   2.194   2.778   0.356 -0.4615  0.7815  0.4102
  419TIP3    H122748   2.132   2.803   0.287  0.7070  2.4771 -0.0737
  419TIP3    H222749   2.150   2.799   0.438 -1.0900  0.5898  0.1247
  420TIP3   OH222750   5.226   4.005  11.906 -0.2237  0.6367  0.7711
  420TIP3    H122751   5.316   4.035  11.893  0.0920 -0.4566  0.2934
  420TIP3    H222752   5.174   4.085  11.902  0.6518  1.2057  0.2899
  421TIP3   OH222753   4.045   5.426   2.078 -0.2558 -0.4584 -0.0371
  421TIP3    H122754   4.063   5.366   2.005 -3.1248 -0.2449 -1.0601
  421TIP3    H222755   4.047   5.370   2.156  2.6956 -0.7257 -0.1789
  422TIP3   OH222756   1.807   0.961  14.286  0.4708  0.2283  0.0592
  422TIP3    H122757   1.796   1.001  14.200 -0.3400 -0.3022 -0.1023
  422TIP3    H222758   1.789   1.031  14.348  1.2079  0.6529 -0.2002
  423TIP3   OH222759   5.708   3.293  17.362  0.2379  0.2055 -0.2446
  423TIP3    H122760   5.615   3.303  17.340  0.6511 -0.4952 -2.5826
  423TIP3    H222761   5.742   3.232  17.296  2.5072  0.9229  0.1752
  424TIP3   OH222762   6.359   0.671   1.136 -0.0464 -0.2531  0.5207
  424TIP3    H122763   6.364   0.709   1.224  0.5583  2.4367 -0.5718
  424TIP3    H222764   6.313   0.737   1.084  1.7088 -0.6636 -1.7089
  425TIP3   OH222765   1.048   1.479  15.188  0.0233  0.2216 -0.0328
  425TIP3    H122766   1.136   1.478  15.151 -0.5447  1.0296 -1.5045
  425TIP3    H222767   1.050   1.548  15.254  0.4166  0.4578 -0.2850
  426TIP3   OH222768   3.404   3.057  17.014 -0.0290 -0.1751 -0.2511
  426TIP3    H122769   3.367   2.973  16.987  0.2590 -1.2547  2.3875
  426TIP3    H222770   3.479   3.070  16.956 -1.0547 -0.8615 -1.7937
  427TIP3   OH222771   4.127   3.838   5.759  0.4192  0.0171 -0.3635
  427TIP3    H122772   4.126   3.856   5.852  1.9154  2.7716 -0.7863
  427TIP3    H222773   4.213   3.799   5.743  0.5974  0.5491 -0.7348
  428TIP3   OH222774   0.111   6.513  15.461  0.1216  0.1600 -0.4180
  428TIP3    H122775   0.048   6.516  15.533  1.1304 -0.3927  0.5165
  428TIP3    H222776   0.166   6.438  15.481  0.6700  0.2446 -1.5689
  429TIP3   OH222777   1.355   3.550  16.637 -0.4236 -0.4687  0.3124
  429TIP3    H122778   1.298   3.603  16.581 -0.0786 -0.4820 -0.0563
  429TIP3    H222779   1.297   3.482  16.672 -0.4043 -1.2132 -1.0198
  430TIP3   OH222780   3.120   2.735  11.360 -0.1234 -0.1002  0.4749
  430TIP3    H122781   3.063   2.743  11.283  0.1183 -1.4703  0.1283
  430TIP3    H222782   3.163   2.650  11.349  1.4645  0.5936  1.0962
  431TIP3   OH222783   1.500   0.470  15.028  0.2227  0.8339  0.2892
  431TIP3    H122784   1.580   0.419  15.039  0.2991  1.2820  2.1209
  431TIP3    H222785   1.499   0.491  14.934 -0.0748 -2.8378 -0.7009
  432TIP3   OH222786   0.637   5.328   5.690  0.0538 -0.5336 -0.2539
  432TIP3    H122787   0.680   5.348   5.773  1.4946  1.4013 -1.3748
  432TIP3    H222788   0.550   5.368   5.697 -0.9639 -2.8233  1.3088
  433TIP3   OH222789   4.109   3.202   3.514 -0.0519 -1.0740  0.2486
  433TIP3    H122790   4.153   3.214   3.430  1.3843  2.5881  1.3352
  433TIP3    H222791   4.179   3.174   3.574 -0.0172  0.5876  1.0588
  434TIP3   OH222792   6.498   4.522  14.899  0.3391  0.6934 -0.1193
  434TIP3    H122793   6.539   4.464  14.835  1.7341  0.2910  1.0620
  434TIP3    H222794   6.564   4.590  14.915  0.7467 -0.1189  2.0404
  435TIP3   OH222795   0.066   0.219  11.876  0.1778 -0.0766  0.2727
  435TIP3    H122796  -0.013   0.235  11.927  1.8661  0.6272  2.8535
  435TIP3    H222797   0.068   0.124  11.863 -0.4531 -0.2414  1.3081
  436TIP3   OH222798   4.987   2.415  14.711  0.4733  0.4435 -0.5977
  436TIP3    H122799   4.969   2.500  14.750 -1.2599  0.5951 -1.6567
  436TIP3    H222800   5.026   2.435  14.626  1.2432  0.1334 -0.3359
  437TIP3   OH222801   5.027   5.235   2.580 -0.1811  0.0775  0.0917
  437TIP3    H122802   4.980   5.318   2.579 -1.0786 -0.4177 -0.4349
  437TIP3    H222803   5.077   5.234   2.499 -1.3012 -0.4963 -0.6229
  438TIP3   OH222804   5.710   3.459   4.587 -0.1130 -0.1991  0.8562
  438TIP3    H122805   5.670   3.384   4.630 -0.3232  0.4986  1.8944
  438TIP3    H222806   5.772   3.420   4.525 -0.8666 -1.2428  0.7241
  439TIP3   OH222807   0.342   2.652  11.938 -0.8055 -0.0710 -0.0075
  439TIP3    H122808   0.345   2.723  11.873 -0.4714 -0.8403 -0.8572
  439TIP3    H222809   0.308   2.577  11.889  0.1809 -0.8707  0.4951
  440TIP3   OH222810   2.040   1.104   0.369  0.7785  0.2839  0.0099
  440TIP3    H122811   2.024   1.036   0.434 -0.7037 -0.2324 -0.8302
  440TIP3    H222812   2.010   1.065   0.287  3.2030  0.6481 -1.1567
  441TIP3   OH222813   0.441   5.750  15.936 -0.1919 -0.5832 -0.1700
  441TIP3    H122814   0.421   5.840  15.961 -1.5053 -0.9265  0.0818
  441TIP3    H222815   0.498   5.758  15.859 -1.1042  0.4510 -0.7599
  442TIP3   OH222816   0.795   4.229  13.188 -0.0166 -0.0929 -0.3891
  442TIP3    H122817   0.839   4.314  13.189  1.5252 -0.8371  1.3526
  442TIP3    H222818   0.854   4.172  13.138  1.4182 -1.2335  2.4159
  443TIP3   OH222819   1.198   1.429  11.937  0.1212  0.1971  0.3216
  443TIP3    H122820   1.200   1.523  11.952  3.1949  0.7184 -2.3405
  443TIP3    H222821   1.264   1.393  11.996 -0.8369 -0.3425  1.1170
  444TIP3   OH222822   2.395   5.478  17.106 -0.4999  0.4955 -0.4424
  444TIP3    H122823   2.421   5.525  17.026  1.5078 -0.5139 -0.4552
  444TIP3    H222824   2.466   5.415  17.120 -1.4101 -0.1584  1.4918
  445TIP3   OH222825   0.546   0.489   5.109  0.2848  0.1701  0.0287
  445TIP3    H122826   0.492   0.530   5.177 -1.3684  0.9976 -1.6976
  445TIP3    H222827   0.492   0.492   5.030  0.9333 -3.4853 -0.7111
  446TIP3   OH222828   4.776   3.403   1.486  0.6281  0.8629 -0.3680
  446TIP3    H122829   4.760   3.325   1.538  2.8164  0.3500 -0.4084
  446TIP3    H222830   4.717   3.469   1.523  1.6087  0.3324  2.3131
  447TIP3   OH222831   2.779   2.124   6.484  0.3152  0.2584  0.3041
  447TIP3    H122832   2.726   2.110   6.563  0.2878  1.1999  0.4647
  447TIP3    H222833   2.775   2.219   6.469  1.2866  0.2402 -0.1516
  448TIP3   OH222834   5.365   4.636   5.565  0.4995  1.1496  0.3118
  448TIP3    H122835   5.381   4.574   5.494  1.4237  2.2307 -0.4678
  448TIP3    H222836   5.449   4.642   5.612  0.1112  1.0063  1.0355
  449TIP3   OH222837   2.097   5.388  17.108  0.0007 -0.2621  0.1702
  449TIP3    H122838   2.092   5.360  17.016 -1.3099 -1.5281  0.5745
  449TIP3    H222839   2.190   5.403  17.124  0.1744  0.7556 -1.5735
  450TIP3   OH222840   4.897   3.067   3.862 -0.1751 -0.0671  0.2387
  450TIP3    H122841   4.951   3.070   3.782 -0.9454  1.1621 -0.2628
  450TIP3    H222842   4.960   3.073   3.933  0.4344  0.5578 -0.3277
  451TIP3   OH222843   4.441   5.626  16.227  0.4552  0.4589 -0.5207
  451TIP3    H122844   4.412   5.699  16.172 -1.7765  1.2023  1.4535
  451TIP3    H222845   4.441   5.550  16.169 -1.4970  1.2608 -1.6504
  452TIP3   OH222846   2.746   6.371  17.002 -0.6664  0.0551 -0.1013
  452TIP3    H122847   2.717   6.343  16.916 -0.7327  0.7253 -0.3068
  452TIP3    H222848   2.757   6.290  17.052  1.8348 -0.5471 -1.4841
  453TIP3   OH222849   2.094   4.343   1.180 -0.5164 -0.7661 -0.6290
  453TIP3    H122850   2.062   4.430   1.155  2.0762  0.3939 -0.2467
  453TIP3    H222851   2.031   4.283   1.142 -3.0786  1.2785  0.0740
  454TIP3   OH222852   5.079   2.795  16.400  0.0934  0.4144 -0.2020
  454TIP3    H122853   5.008   2.843  16.443  1.1584  1.3851  0.5582
  454TIP3    H222854   5.079   2.709  16.442 -0.4865  0.4844 -0.0495
  455TIP3   OH222855   5.403   0.660   4.143  0.2126  0.1138 -0.1184
  455TIP3    H122856   5.390   0.661   4.048  2.9310  0.0592 -0.5757
  455TIP3    H222857   5.447   0.742   4.162 -0.1902  0.0727  1.1125
  456TIP3   OH222858   4.179   3.785   5.185 -0.0267 -0.3124 -0.0321
  456TIP3    H122859   4.236   3.862   5.177 -0.3420 -0.0131  0.5876
  456TIP3    H222860   4.193   3.754   5.274 -0.1437 -0.7862 -0.1787
  457TIP3   OH222861   0.359   5.121  11.966 -0.1947 -0.4623  0.2876
  457TIP3    H122862   0.430   5.173  12.003  0.5703 -1.0262 -0.3662
  457TIP3    H222863   0.282   5.177  11.975  0.5129  0.5853  0.0629
  458TIP3   OH222864   1.672   6.624   0.419 -0.1460 -0.5710 -0.0502
  458TIP3    H122865   1.599   6.674   0.382  0.6106  0.6010 -0.0279
  458TIP3    H222866   1.634   6.540   0.443 -0.8571 -1.0516 -2.6408
  459TIP3   OH222867   0.914   6.677   6.232 -0.2477 -0.3330 -0.9988
  459TIP3    H122868   0.842   6.740   6.229 -1.5001 -1.5419  1.1251
  459TIP3    H222869   0.905   6.635   6.318  1.5455 -2.2076 -1.6587
  460TIP3   OH222870   3.399   2.578   5.609 -0.3382 -0.4412  0.2886
  460TIP3    H122871   3.342   2.650   5.582  1.6109  1.3782  0.8288
  460TIP3    H222872   3.472   2.580   5.548  0.1003 -1.5464  0.7429
  461TIP3   OH222873   3.156   2.592   2.678  0.1603 -0.6868  0.1804
  461TIP3    H122874   3.210   2.564   2.604 -1.5703 -2.9456 -0.3652
  461TIP3    H222875   3.193   2.547   2.754  1.0332  0.4535  0.4576
  462TIP3   OH222876   1.220   3.061  13.655 -0.0102  0.1248 -0.0316
  462TIP3    H122877   1.156   2.990  13.651  0.3608 -0.2151 -0.1030
  462TIP3    H222878   1.241   3.079  13.563  0.9705 -0.6850  0.0025
  463TIP3   OH222879   0.008   4.611   1.878 -0.3147  0.6628 -0.1671
  463TIP3    H122880  -0.055   4.540   1.888  0.2257  0.0205 -1.2275
  463TIP3    H222881  -0.045   4.688   1.858 -0.9212  0.6379  1.2069
  464TIP3   OH222882   2.157   5.959  16.085 -0.1641 -0.5004 -0.3405
  464TIP3    H122883   2.073   5.931  16.048  0.3901 -1.4491 -0.9088
  464TIP3    H222884   2.181   6.036  16.033 -0.8905  0.0713  0.1350
  465TIP3   OH222885   2.643   4.383  13.838 -0.0700  0.1127  0.0306
  465TIP3    H122886   2.559   4.338  13.833  0.9983 -2.0775  0.3292
  465TIP3    H222887   2.678   4.357  13.924  0.4205  1.9452  0.4133
  466TIP3   OH222888   6.205   6.222  16.408  0.3788  0.1421 -0.2643
  466TIP3    H122889   6.176   6.178  16.488  1.2013  1.2220  0.6655
  466TIP3    H222890   6.292   6.185  16.391 -0.2805 -0.9529 -1.3628
  467TIP3   OH222891   6.417   3.726   5.327 -0.3729  0.5287  0.3497
  467TIP3    H122892   6.379   3.757   5.245 -1.8331  1.5574  1.3610
  467TIP3    H222893   6.355   3.659   5.358  1.3467 -1.5516 -0.4626
  468TIP3   OH222894   4.013   5.748   6.480  0.3449 -0.1263  0.0918
  468TIP3    H122895   4.068   5.680   6.519 -0.1556 -0.8606 -0.4577
  468TIP3    H222896   3.969   5.789   6.555 -0.6862 -1.5898  0.3354
  469TIP3   OH222897   4.507   0.959   4.903  0.6039  0.5021 -0.9685
  469TIP3    H122898   4.418   0.958   4.937  1.1271  1.6565  0.5572
  469TIP3    H222899   4.553   0.891   4.953  0.4234 -0.6690 -2.3290
  470TIP3   OH222900   1.465   1.257  14.174  0.4091 -0.7073  0.1993
  470TIP3    H122901   1.528   1.284  14.107  0.6834  0.7397  0.9922
  470TIP3    H222902   1.396   1.213  14.126 -0.8154  2.6799 -1.4918
  471TIP3   OH222903   0.160   3.724   0.629  0.6418  0.0535  0.0338
  471TIP3    H122904   0.143   3.673   0.550 -0.3797 -0.6448  0.6777
  471TIP3    H222905   0.244   3.690   0.661  0.0344 -1.1609  0.3851
  472TIP3   OH222906   0.734   0.532   4.449 -0.4515  0.4876 -0.2137
  472TIP3    H122907   0.758   0.622   4.425 -0.5569  1.1114  1.8129
  472TIP3    H222908   0.639   0.533   4.454 -0.5278 -0.0796 -1.3636
  473TIP3   OH222909   5.856   5.835  11.899 -0.0409  0.1064  0.7278
  473TIP3    H122910   5.881   5.926  11.883 -1.0584  0.5322  1.4367
  473TIP3    H222911   5.847   5.796  11.812  2.2158  0.1385  0.4277
  474TIP3   OH222912   1.853   2.257  14.790 -1.3097  0.1449 -0.1028
  474TIP3    H122913   1.856   2.240  14.884 -2.0164 -0.6489 -0.2075
  474TIP3    H222914   1.915   2.194  14.753 -1.1544  0.3442 -0.1784
  475TIP3   OH222915   0.699   5.769  11.988  0.3199 -0.8161  0.5103
  475TIP3    H122916   0.755   5.846  11.975  0.1105 -0.6328  0.6672
  475TIP3    H222917   0.617   5.792  11.944  0.8118 -1.6204 -0.8596
  476TIP3   OH222918   3.717   0.765  12.511 -0.0940 -0.1769  0.0157
  476TIP3    H122919   3.706   0.706  12.586  0.7759 -0.0441  0.2521
  476TIP3    H222920   3.807   0.795  12.517  0.1039 -0.4604 -1.3082
  477TIP3   OH222921   2.183   3.976  16.491 -0.3338  0.0956  0.4312
  477TIP3    H122922   2.088   3.976  16.473 -0.5513 -3.0266  0.9273
  477TIP3    H222923   2.213   3.892  16.456  2.3929  1.2287 -0.1552
  478TIP3   OH222924   2.620   4.225  13.118 -0.2508  0.2748  0.1725
  478TIP3    H122925   2.573   4.161  13.064 -0.1573 -1.5920  2.1923
  478TIP3    H222926   2.711   4.217  13.090 -0.0062 -1.5542  1.3168
  479TIP3   OH222927   0.730   1.990  16.594 -0.4716  0.0265  0.0900
  479TIP3    H122928   0.812   2.039  16.588 -0.7716  0.4946 -0.2202
  479TIP3    H222929   0.757   1.898  16.596 -0.0257  0.0883 -1.8127
  480TIP3   OH222930   5.004   4.616   4.017  0.2357 -0.4293 -0.1845
  480TIP3    H122931   4.912   4.644   4.017  0.3652  0.0092 -0.5590
  480TIP3    H222932   5.053   4.696   4.036  0.4649 -0.9521  1.5812
  481TIP3   OH222933   2.352   4.221  12.077  0.0595  0.2247  0.0257
  481TIP3    H122934   2.422   4.283  12.097 -1.4255  1.1689  2.8487
  481TIP3    H222935   2.276   4.276  12.057 -0.2375 -0.7670 -1.7460
  482TIP3   OH222936   6.732   6.448  15.700  0.1695  0.8896 -0.1835
  482TIP3    H122937   6.683   6.479  15.777 -1.2343 -1.5657  0.0244
  482TIP3    H222938   6.673   6.386  15.658  1.9570  0.1639 -1.7455
  483TIP3   OH222939   4.263   1.232   4.145  0.6414 -0.6094  0.3765
  483TIP3    H122940   4.314   1.161   4.185 -1.4504 -0.6881  3.2577
  483TIP3    H222941   4.302   1.244   4.059  2.4831 -3.7669  0.6055
  484TIP3   OH222942   0.691   2.611   6.089 -0.2022  0.0024 -0.3980
  484TIP3    H122943   0.598   2.616   6.069 -0.5039 -0.2561  0.8173
  484TIP3    H222944   0.694   2.579   6.180  0.9727  2.5038  0.5320
  485TIP3   OH222945   0.523   2.843   5.500  0.1423  0.2844 -0.2575
  485TIP3    H122946   0.493   2.927   5.466  0.9603  0.1154 -1.4217
  485TIP3    H222947   0.606   2.862   5.544  0.2034  0.1339 -0.3044
  486TIP3   OH222948   3.296   4.952  11.904  0.2911  0.1363  0.2565
  486TIP3    H122949   3.234   4.923  11.836 -1.8182  0.5285  1.8964
  486TIP3    H222950   3.254   4.926  11.986  1.5439  1.8890  1.5126
  487TIP3   OH222951   1.068   3.542  16.084 -0.5062  0.4320 -0.5163
  487TIP3    H122952   1.046   3.594  16.007 -0.1190  1.4694  0.0582
  487TIP3    H222953   1.033   3.591  16.158 -1.0189 -0.6366 -0.0271
  488TIP3   OH222954   1.158   5.662  16.318  0.0291  0.0491  0.0339
  488TIP3    H122955   1.216   5.611  16.261 -0.1479 -2.9486  2.2840
  488TIP3    H222956   1.093   5.599  16.348  0.0415  1.4531  3.4187
  489TIP3   OH222957   1.413   0.897  15.668 -0.0305 -0.1642  0.0110
  489TIP3    H122958   1.400   0.925  15.758  2.2784  0.3706  0.2254
  489TIP3    H222959   1.420   0.978  15.617 -0.2398 -0.4491 -0.4851
  490TIP3   OH222960   4.100   3.127  13.438 -0.2078  0.1288 -0.3262
  490TIP3    H122961   4.057   3.162  13.360 -0.9891 -1.0808 -0.4829
  490TIP3    H222962   4.192   3.118  13.413 -0.6208 -1.2615 -1.5433
  491TIP3   OH222963   2.560   0.086   4.470 -0.0802 -0.1344  0.4647
  491TIP3    H122964   2.653   0.071   4.451  0.3334 -1.4174  3.0319
  491TIP3    H222965   2.556   0.090   4.566 -2.1199  3.8520  0.4245
  492TIP3   OH222966   5.283   5.346  13.609  0.6613  0.1878  0.2436
  492TIP3    H122967   5.363   5.376  13.566 -1.2189  0.3152 -3.5561
  492TIP3    H222968   5.213   5.397  13.569 -1.5031 -0.7301  2.5691
  493TIP3   OH222969   1.152   2.995   6.394 -0.4315  0.2880 -0.3391
  493TIP3    H122970   1.143   2.901   6.379 -1.1309  0.1171  0.9785
  493TIP3    H222971   1.202   3.002   6.475 -1.3321  1.0085  0.1764
  494TIP3   OH222972   5.538   0.652  12.948  0.8878 -0.2421  0.0995
  494TIP3    H122973   5.490   0.735  12.941  1.4134  0.0387 -0.2335
  494TIP3    H222974   5.470   0.585  12.940  0.5345  0.1520 -0.2616
  495TIP3   OH222975   1.058   3.297   4.214  0.6074  0.2113  0.2006
  495TIP3    H122976   1.022   3.251   4.139  1.0372  1.2025 -0.6313
  495TIP3    H222977   1.094   3.228   4.270 -0.5635 -0.6051 -0.0325
  496TIP3   OH222978   6.260   1.301  11.211 -0.5967  0.5201 -0.3324
  496TIP3    H122979   6.342   1.332  11.173 -0.3297  0.8600  0.4874
  496TIP3    H222980   6.208   1.381  11.225 -1.0116  0.3231 -0.7158
  497TIP3   OH222981   2.944   5.702   3.616 -0.5876  0.0754 -0.1614
  497TIP3    H122982   3.010   5.647   3.658 -0.5971 -0.0622 -0.3233
  497TIP3    H222983   2.933   5.776   3.675  1.2793  1.2235 -1.1405
  498TIP3   OH222984   3.092   2.264   3.025 -0.4133 -0.1090  0.5527
  498TIP3    H122985   3.101   2.182   3.075 -0.0009 -0.4087 -0.0072
  498TIP3    H222986   3.088   2.332   3.092 -2.3764 -0.6947  1.1110
  499TIP3   OH222987   2.820   6.477   5.753 -0.1009 -0.0131  0.2564
  499TIP3    H122988   2.888   6.414   5.776 -1.5175 -1.5769  0.3134
  499TIP3    H222989   2.740   6.440   5.788 -0.7250  2.9109  2.2715
  500TIP3   OH222990   3.705   0.408  14.194  0.0567 -0.4901  0.4408
  500TIP3    H122991   3.638   0.400  14.126 -0.2334 -0.8567  0.7651
  500TIP3    H222992   3.708   0.321  14.234  2.0424 -1.0844 -0.8010
  501TIP3   OH222993   5.087   1.881  16.552 -0.7169 -0.0278  0.0971
  501TIP3    H122994   5.009   1.918  16.594 -1.2510 -1.2683  0.2376
  501TIP3    H222995   5.096   1.794  16.591  0.6843  0.0495 -0.0006
  502TIP3   OH222996   2.941   5.856  13.239 -0.1458  0.1108 -0.5846
  502TIP3    H122997   2.908   5.946  13.231  2.7373  1.2738 -0.4060
  502TIP3    H222998   2.866   5.806  13.272 -1.6263  2.5862  0.0494
  503TIP3   OH222999   0.762   1.921  14.001 -0.2870 -0.1346 -0.8104
  503TIP3    H123000   0.748   1.836  13.960 -1.5302  0.3451 -1.4238
  503TIP3    H223001   0.739   1.985  13.933  1.5251  0.7164 -0.6762
  504TIP3   OH223002   2.063   3.185  12.099  0.0649  0.0213 -0.0778
  504TIP3    H123003   2.041   3.123  12.029  0.3003 -0.3258  0.1513
  504TIP3    H223004   1.980   3.202  12.143  0.3776 -2.2503  1.5725
  505TIP3   OH223005   5.102   6.416  14.580 -1.2632 -0.8172 -0.4790
  505TIP3    H123006   5.165   6.484  14.559 -0.5901 -1.6568 -1.2758
  505TIP3    H223007   5.091   6.422  14.674 -1.1277  0.3055 -0.5187
  506TIP3   OH223008   3.134   3.254  12.378  0.3075 -0.0101  0.1998
  506TIP3    H123009   3.225   3.245  12.352  0.0854 -1.4903 -0.1617
  506TIP3    H223010   3.118   3.348  12.379  1.6846  0.2447 -0.2451
  507TIP3   OH223011   3.511   1.854   0.464  0.2436 -0.1531 -0.6043
  507TIP3    H123012   3.497   1.856   0.558 -1.0629  3.8910 -0.6645
  507TIP3    H223013   3.441   1.798   0.430 -1.3363  0.9324  0.7016
  508TIP3   OH223014   3.839   1.572   5.582  0.5562 -0.1082 -0.4237
  508TIP3    H123015   3.896   1.593   5.656  0.6275 -1.0705 -0.1964
  508TIP3    H223016   3.752   1.599   5.611  0.4339 -1.2804  0.3861
  509TIP3   OH223017   0.904   6.438   3.138  0.1979 -0.6343  0.8443
  509TIP3    H123018   0.846   6.365   3.161 -0.5976 -0.9267 -1.7667
  509TIP3    H223019   0.976   6.398   3.090 -0.1068  0.2036 -0.3843
  510TIP3   OH223020   1.666   4.089   0.321 -0.4197  0.0642  0.8948
  510TIP3    H123021   1.715   4.160   0.280 -0.6122  0.1078  0.7404
  510TIP3    H223022   1.723   4.060   0.393  1.5197 -2.3272 -1.4469
  511TIP3   OH223023   2.127   5.365   1.681 -0.0430 -0.0862 -0.3643
  511TIP3    H123024   2.150   5.276   1.705 -1.1480 -0.5420 -0.9276
  511TIP3    H223025   2.187   5.387   1.609  1.2521  0.2056  0.7613
  512TIP3   OH223026   1.177   6.310  11.435  0.3671 -0.8812  0.5802
  512TIP3    H123027   1.249   6.373  11.430 -0.3700 -0.0722 -0.2134
  512TIP3    H223028   1.147   6.302  11.344  0.5253 -2.4827  0.6520
  513TIP3   OH223029   2.940   3.843   1.467  0.2442  0.1104  0.0385
  513TIP3    H123030   2.996   3.868   1.541  1.0584 -0.4452 -0.3765
  513TIP3    H223031   3.001   3.820   1.397 -0.5162  0.4069 -0.7423
  514TIP3   OH223032   1.021   2.734  15.554  0.0018  0.2345  0.6748
  514TIP3    H123033   1.053   2.805  15.610  0.0925 -0.6526  1.7919
  514TIP3    H223034   1.093   2.716  15.494  0.5092  0.1619  1.2979
  515TIP3   OH223035   2.809   2.064   4.838  1.1109 -0.4675 -0.0209
  515TIP3    H123036   2.760   2.143   4.818  0.7146 -0.4543  0.9477
  515TIP3    H223037   2.900   2.086   4.819  0.8604 -0.2084 -0.9836
  516TIP3   OH223038   2.397   3.399  13.010  0.2458  0.8174  0.5018
  516TIP3    H123039   2.386   3.483  12.965 -1.0266  1.6670  2.2218
  516TIP3    H223040   2.335   3.340  12.968  0.7706  0.8851 -0.3769
  517TIP3   OH223041   4.249   3.020   1.409 -0.7553 -0.1350 -0.2027
  517TIP3    H123042   4.200   2.971   1.344 -1.0107  0.8928 -0.8123
  517TIP3    H223043   4.338   2.987   1.402 -0.8804 -0.3656 -0.7453
  518TIP3   OH223044   5.508   4.140  16.196  0.6652 -0.7758 -0.0293
  518TIP3    H123045   5.527   4.094  16.278 -1.6693  0.7039  1.5054
  518TIP3    H223046   5.496   4.231  16.223 -1.8935 -0.5158 -1.6653
  519TIP3   OH223047   1.893   1.453   3.510  0.8671 -0.3245 -0.3614
  519TIP3    H123048   1.865   1.382   3.567 -0.2222 -0.2520 -0.7840
  519TIP3    H223049   1.904   1.412   3.424  0.4187 -0.0373 -0.5638
  520TIP3   OH223050   3.199   5.405  12.602 -0.6338 -0.0026 -0.6535
  520TIP3    H123051   3.167   5.385  12.690 -1.7372  0.7940 -0.8632
  520TIP3    H223052   3.168   5.493  12.584  0.3878  0.2139 -1.4850
  521TIP3   OH223053   1.999   2.539   2.935 -0.2156  0.6031 -0.4991
  521TIP3    H123054   1.985   2.633   2.945 -0.2966  0.4884  0.6537
  521TIP3    H223055   2.093   2.527   2.942 -0.1735  0.6391 -1.0198
  522TIP3   OH223056   1.182   4.946  14.033 -0.3643 -0.2848  1.0788
  522TIP3    H123057   1.101   4.914  14.073 -0.0421 -0.8875  1.2606
  522TIP3    H223058   1.207   5.022  14.086 -0.4726 -0.4770  1.4069
  523TIP3   OH223059   4.158   4.135   4.655  0.1881  0.1224 -0.4705
  523TIP3    H123060   4.156   4.103   4.565 -2.6904 -0.1419 -0.3918
  523TIP3    H223061   4.172   4.057   4.708  2.6544  0.3714 -0.6350
  524TIP3   OH223062   3.332   5.589  16.292  0.0198  0.0394  0.2847
  524TIP3    H123063   3.376   5.634  16.364 -2.4307 -0.1270  1.9935
  524TIP3    H223064   3.240   5.614  16.300 -0.6596 -1.5553 -1.6171
  525TIP3   OH223065   1.749   2.410   1.315 -0.1017 -0.2917 -0.8767
  525TIP3    H123066   1.712   2.387   1.400 -1.3332 -1.0441 -1.5831
  525TIP3    H223067   1.680   2.459   1.271  0.9862  1.2160 -0.9967
  526TIP3   OH223068   3.245   1.808  15.872  0.5902 -0.1746  0.0541
  526TIP3    H123069   3.328   1.837  15.835  1.3847 -2.2984  0.0642
  526TIP3    H223070   3.256   1.820  15.967  0.1159  1.3383 -0.0482
  527TIP3   OH223071   1.072   5.280  16.255  0.5201  0.5248  0.1353
  527TIP3    H123072   1.136   5.339  16.215  0.7477  1.2890  1.5367
  527TIP3    H223073   1.026   5.335  16.319  0.0595 -0.5816  0.7901
  528TIP3   OH223074   3.433   4.903   3.705  0.3648 -0.6059 -0.3665
  528TIP3    H123075   3.489   4.856   3.767 -1.5753 -0.1012  1.9269
  528TIP3    H223076   3.485   4.978   3.676  1.8434 -1.6679 -0.5275
  529TIP3   OH223077   5.371   2.416  12.443 -0.7121  0.2086  0.3435
  529TIP3    H123078   5.321   2.455  12.515 -0.8885  0.5862  0.0255
  529TIP3    H223079   5.384   2.489  12.381  1.6983  0.5529  1.1740
  530TIP3   OH223080   1.399   3.174  16.506 -0.4652  0.2991 -0.8058
  530TIP3    H123081   1.376   3.225  16.584  2.3308 -0.1075  0.4064
  530TIP3    H223082   1.380   3.083  16.529  0.8849  0.1148 -0.3199
  531TIP3   OH223083   3.214   0.199   6.047  0.0496 -0.4650 -0.5476
  531TIP3    H123084   3.251   0.270   5.994 -1.1616  0.2923 -0.4245
  531TIP3    H223085   3.185   0.135   5.982 -0.8815  0.1876 -0.8045
  532TIP3   OH223086   5.347   2.553  14.450  0.5571 -0.1335  0.3157
  532TIP3    H123087   5.407   2.558  14.375 -0.2191 -0.0825 -0.3101
  532TIP3    H223088   5.383   2.482  14.504  2.6985  1.6219  1.3291
  533TIP3   OH223089   4.032   1.404   4.129  0.3260 -0.1390 -0.1813
  533TIP3    H123090   4.116   1.361   4.147  0.0447 -0.8077 -0.4098
  533TIP3    H223091   4.007   1.371   4.042  0.5422  1.2110 -0.7824
  534TIP3   OH223092   3.433   3.132  11.774 -0.5724  0.6988  0.0825
  534TIP3    H123093   3.369   3.062  11.758 -0.2900  0.4928 -0.1484
  534TIP3    H223094   3.518   3.088  11.773 -0.3921  1.0456 -0.0764
  535TIP3   OH223095   0.483   6.284   3.597 -0.0053 -0.2427 -0.2648
  535TIP3    H123096   0.467   6.190   3.609 -2.7203  0.0665 -0.9882
  535TIP3    H223097   0.559   6.288   3.539  0.6257 -1.9456  0.3704
  536TIP3   OH223098   1.832   2.149  12.349  0.9632  0.4688  0.0253
  536TIP3    H123099   1.873   2.064  12.331 -0.8681 -0.7756  1.3847
  536TIP3    H223100   1.840   2.197  12.267  2.2832 -0.9183 -0.7039
  537TIP3   OH223101   6.078   2.310   3.749 -0.4824  0.0164  0.1160
  537TIP3    H123102   6.077   2.341   3.659 -1.3095  0.2856  0.2141
  537TIP3    H223103   6.105   2.386   3.801  2.3434 -0.7250 -0.0922
  538TIP3   OH223104   1.414   2.303  17.302  0.2420  0.0498  0.3395
  538TIP3    H123105   1.501   2.292  17.342  0.6322 -0.2205 -0.5513
  538TIP3    H223106   1.356   2.251  17.358  0.6420  0.2618  0.9670
  539TIP3   OH223107   3.398   3.688   3.772  0.2792  0.2197 -0.5485
  539TIP3    H123108   3.448   3.613   3.802 -0.5628 -1.3677 -2.8669
  539TIP3    H223109   3.462   3.745   3.730  0.8572  0.6563  0.8727
  540TIP3   OH223110   1.814   1.683   0.560 -0.1321  0.1791  0.6922
  540TIP3    H123111   1.798   1.673   0.653 -0.9634 -0.2910  0.5154
  540TIP3    H223112   1.891   1.740   0.554 -0.1412  0.3052  1.6525
  541TIP3   OH223113   6.501   3.417  14.959 -0.1431 -0.9082  0.0585
  541TIP3    H123114   6.511   3.455  15.047 -0.5517 -1.8289  0.5170
  541TIP3    H223115   6.416   3.374  14.961  0.3908 -2.0363 -0.3468
  542TIP3   OH223116   3.362   1.679   6.318  0.5943 -0.1323  0.2652
  542TIP3    H123117   3.289   1.664   6.379 -0.3323 -0.0990 -0.8058
  542TIP3    H223118   3.433   1.710   6.374  0.2609 -1.5372  1.5280
  543TIP3   OH223119   5.926   2.273   4.324 -0.5420 -0.1911  0.1590
  543TIP3    H123120   5.944   2.178   4.321 -0.0884 -0.1071  0.1100
  543TIP3    H223121   5.927   2.294   4.417 -1.3344 -0.3567  0.2140
  544TIP3   OH223122   5.704   2.328   0.569  0.1643 -0.1636  0.1277
  544TIP3    H123123   5.778   2.275   0.537 -0.6077 -0.7896 -0.7045
  544TIP3    H223124   5.693   2.396   0.503 -0.6842 -0.7404 -0.3492
  545TIP3   OH223125   2.311   2.802   6.067 -0.4655  0.4724  0.4669
  545TIP3    H123126   2.341   2.759   6.147 -0.1353 -0.6515 -0.2452
  545TIP3    H223127   2.237   2.749   6.038 -1.5000  1.6886  0.7674
  546TIP3   OH223128   5.704   4.177  12.941  0.1542  0.6340  0.1533
  546TIP3    H123129   5.706   4.272  12.941  0.6271  0.6315 -0.6758
  546TIP3    H223130   5.664   4.154  13.025 -0.0932  1.5592  0.2993
  547TIP3   OH223131   5.523   0.847  17.353 -0.2378  0.1632 -0.3555
  547TIP3    H123132   5.573   0.887  17.424 -0.0387  0.1893 -0.5128
  547TIP3    H223133   5.495   0.762  17.388 -1.5607  0.8601  0.3787
  548TIP3   OH223134   4.541   5.756  15.384 -0.4200 -0.0528 -0.7392
  548TIP3    H123135   4.453   5.794  15.385 -0.8615 -1.0706  0.4810
  548TIP3    H223136   4.599   5.830  15.366 -1.4931  0.6617 -1.3653
  549TIP3   OH223137   1.408   0.793   0.990 -0.1410  0.2244  0.1643
  549TIP3    H123138   1.322   0.798   1.031 -0.2580  0.0039 -0.0536
  549TIP3    H223139   1.441   0.883   0.991 -0.7227  0.4527 -0.5067
  550TIP3   OH223140   1.287   3.222   3.292 -0.0610 -0.5005  0.0091
  550TIP3    H123141   1.349   3.200   3.361  0.9385  0.3120 -0.5876
  550TIP3    H223142   1.214   3.160   3.303  0.6006 -1.1122  1.0690
  551TIP3   OH223143   4.735   2.620   2.318  0.4012  0.3534 -0.6356
  551TIP3    H123144   4.752   2.539   2.271  0.6528 -0.5482  0.9467
  551TIP3    H223145   4.812   2.674   2.301  1.7281 -0.9908  0.8350
  552TIP3   OH223146   2.601   2.205  13.341  0.9821 -0.0670 -0.1009
  552TIP3    H123147   2.507   2.218  13.348  0.6249 -2.0105 -0.8471
  552TIP3    H223148   2.637   2.294  13.331 -0.6444  0.7790  1.1924
  553TIP3   OH223149   4.879   2.022   3.035  0.1591 -0.6004 -0.0137
  553TIP3    H123150   4.957   1.995   2.988 -0.2380  1.1756 -1.8504
  553TIP3    H223151   4.806   1.989   2.983 -0.3227 -0.4882  0.5699
  554TIP3   OH223152   6.559   6.099   4.993 -0.5011  0.0960  0.1642
  554TIP3    H123153   6.483   6.075   5.046  0.6829 -1.4675  1.2495
  554TIP3    H223154   6.622   6.133   5.056 -0.2170  1.2209 -0.7029
  555TIP3   OH223155   0.551   4.183   0.777 -0.3825  0.2357 -0.1993
  555TIP3    H123156   0.525   4.275   0.784  0.5149  0.5821 -1.0749
  555TIP3    H223157   0.611   4.169   0.850 -1.4786 -0.0191  0.6727
  556TIP3   OH223158   6.595   1.494   2.923  0.1443  0.7941 -0.2998
  556TIP3    H123159   6.580   1.552   2.848  1.7166  0.3947 -0.9504
  556TIP3    H223160   6.576   1.407   2.890  3.4696  0.2532 -1.1668
  557TIP3   OH223161   0.868   3.227  15.474  0.0383 -0.6524 -0.0505
  557TIP3    H123162   0.868   3.162  15.404  1.7669 -1.4474  0.6292
  557TIP3    H223163   0.955   3.265  15.471  0.5059 -1.3829  2.2375
  558TIP3   OH223164   4.689   1.951   2.861 -0.1710 -0.1088  0.7282
  558TIP3    H123165   4.598   1.921   2.854 -0.4709  0.5600  1.5404
  558TIP3    H223166   4.691   2.032   2.811  1.1504 -2.3469 -3.3087
  559TIP3   OH223167   2.972   5.952  17.177  0.3629  0.5601  0.1332
  559TIP3    H123168   3.064   5.970  17.193  0.9806 -0.8964 -1.4756
  559TIP3    H223169   2.971   5.899  17.097 -1.8143 -0.0598  0.4996
  560TIP3   OH223170   3.624   5.166   7.065 -0.2187 -0.4912  0.3334
  560TIP3    H123171   3.578   5.215   6.997  0.9139  0.3117  0.1090
  560TIP3    H223172   3.706   5.214   7.077  0.5577 -1.8616  0.7155
  561TIP3   OH223173   2.653   5.708  16.959  0.0423 -0.3672  0.3846
  561TIP3    H123174   2.707   5.667  17.026  0.0077  0.5056  0.9624
  561TIP3    H223175   2.716   5.745  16.897  0.0830 -0.6476  0.2559
  562TIP3   OH223176   3.913   5.017   6.189  0.7279 -0.4362 -0.0734
  562TIP3    H123177   3.958   5.005   6.105  0.5311 -0.7191 -0.1411
  562TIP3    H223178   3.874   4.931   6.207 -0.1536 -0.0773 -0.2375
  563TIP3   OH223179   6.202   5.591  15.084 -0.2715  0.0563 -0.1022
  563TIP3    H123180   6.202   5.504  15.043 -0.2997  0.9417 -2.0752
  563TIP3    H223181   6.224   5.651  15.013 -1.7058  1.8242  0.8631
  564TIP3   OH223182   6.698   2.600  14.487 -0.2507  0.2941  0.2851
  564TIP3    H123183   6.632   2.629  14.549  0.9878  0.3514  1.6275
  564TIP3    H223184   6.720   2.678  14.436 -1.2443  0.2569 -0.2188
  565TIP3   OH223185   3.891   2.429  15.458 -0.1709 -0.2019 -0.4993
  565TIP3    H123186   3.865   2.449  15.548  0.2102  1.7850 -0.7737
  565TIP3    H223187   3.978   2.468  15.449  0.7344 -2.2253 -1.1346
  566TIP3   OH223188   1.757   4.841   1.031  0.5460  0.5336  0.3436
  566TIP3    H123189   1.781   4.748   1.022 -3.1290 -0.5496  0.1709
  566TIP3    H223190   1.773   4.878   0.944  3.6100  0.5937  0.8344
  567TIP3   OH223191   3.184   4.891  13.282 -0.2607  0.4901  0.8382
  567TIP3    H123192   3.219   4.863  13.367 -0.1801  1.1088  1.0114
  567TIP3    H223193   3.249   4.860  13.219  0.4280  1.3022  1.1245
  568TIP3   OH223194   0.840   5.993   5.035 -0.2411  0.1068  0.1877
  568TIP3    H123195   0.887   5.947   4.965 -0.5765  0.5701 -0.3502
  568TIP3    H223196   0.908   6.015   5.099  0.0327 -0.5229  0.1277
  569TIP3   OH223197   4.012   4.680   0.518  0.0162  1.0555 -0.3978
  569TIP3    H123198   4.103   4.697   0.543  0.1839  0.0017 -0.2107
  569TIP3    H223199   4.020   4.628   0.437 -0.3940  0.4535 -0.0609
  570TIP3   OH223200   3.312   1.674   0.372  0.3246 -0.3077  0.5585
  570TIP3    H123201   3.265   1.632   0.300 -1.7359  2.9057 -0.2182
  570TIP3    H223202   3.262   1.650   0.450 -0.3548  0.0084  0.2345
  571TIP3   OH223203   3.289   5.191   3.246  0.3652 -0.2486  0.4804
  571TIP3    H123204   3.258   5.276   3.217 -1.5396 -1.3589 -0.9574
  571TIP3    H223205   3.281   5.135   3.169 -0.5968 -2.2789  1.9729
  572TIP3   OH223206   2.291   6.512   5.938 -0.1737 -0.1219 -0.2334
  572TIP3    H123207   2.229   6.580   5.912  1.2714  0.5931 -2.0108
  572TIP3    H223208   2.377   6.546   5.914  0.7467 -1.9600  0.2153
  573TIP3   OH223209   2.552   5.681   2.685  0.1169 -0.0283  0.7324
  573TIP3    H123210   2.531   5.734   2.762 -0.2125  0.2704  0.4360
  573TIP3    H223211   2.544   5.741   2.611  0.3714 -0.3301  0.4539
  574TIP3   OH223212   0.749   4.053  16.182 -0.2956  0.1005  0.3897
  574TIP3    H123213   0.829   4.051  16.235 -0.0780  0.4057  0.0767
  574TIP3    H223214   0.756   3.978  16.124  0.5849  1.0689 -0.8126
  575TIP3   OH223215   6.060   1.566   1.147 -0.6219  0.1319  0.1064
  575TIP3    H123216   6.077   1.475   1.170 -0.5484  0.2235  0.4139
  575TIP3    H223217   6.081   1.571   1.053 -0.6787 -0.1778  0.0745
  576TIP3   OH223218   1.640   2.615  14.830  0.2543  0.2516 -0.5374
  576TIP3    H123219   1.576   2.630  14.761  0.1592 -0.0782 -0.5270
  576TIP3    H223220   1.682   2.699  14.843  2.2345 -0.2408 -2.9458
  577TIP3   OH223221   3.838   4.135   3.922  0.0108 -0.0784 -0.1600
  577TIP3    H123222   3.853   4.146   4.016  1.5564 -1.6379 -0.1801
  577TIP3    H223223   3.923   4.150   3.882 -1.2052  4.0067 -1.7881
  578TIP3   OH223224   3.300   2.354  12.465 -0.5948  0.3846 -0.1125
  578TIP3    H123225   3.347   2.418  12.411  0.2357 -0.3454 -0.2902
  578TIP3    H223226   3.368   2.291  12.491 -1.6829 -1.3560 -1.3313
  579TIP3   OH223227   3.750   4.436   4.325  0.5654 -0.2727 -0.6774
  579TIP3    H123228   3.676   4.395   4.369  1.0523  0.5384  0.9697
  579TIP3    H223229   3.800   4.363   4.288  0.4897 -1.0481  0.6877
  580TIP3   OH223230   4.861   5.497  11.601 -0.7011 -0.5895  0.5855
  580TIP3    H123231   4.912   5.556  11.657  0.7654 -0.8205 -0.4444
  580TIP3    H223232   4.823   5.554  11.534  0.0724 -0.6911  0.0478
  581TIP3   OH223233   0.147   0.529  14.782 -0.1894  0.2525 -0.4405
  581TIP3    H123234   0.231   0.548  14.822 -0.0931  0.2769 -0.6544
  581TIP3    H223235   0.141   0.433  14.783  0.2933  0.2027 -1.3481
  582TIP3   OH223236   2.286   3.234   4.653  0.0727 -0.4019  0.0600
  582TIP3    H123237   2.243   3.182   4.585 -1.3345  0.3628  0.3292
  582TIP3    H223238   2.214   3.280   4.697  1.0324 -0.2534  1.5366
  583TIP3   OH223239   5.863   1.150  15.644 -0.0870 -0.1875 -0.0051
  583TIP3    H123240   5.870   1.121  15.735  1.7257 -1.6593 -0.5406
  583TIP3    H223241   5.822   1.076  15.598 -0.6210  0.3831 -0.4738
  584TIP3   OH223242   6.254   5.013  16.579  0.0926 -0.5817  0.3196
  584TIP3    H123243   6.158   5.010  16.570  0.1179 -0.7207  0.0920
  584TIP3    H223244   6.281   5.086  16.524  0.1073 -0.4590  0.4857
  585TIP3   OH223245   3.045   0.749  16.039 -0.2172 -0.7748  0.7587
  585TIP3    H123246   2.951   0.737  16.054  0.1087 -0.1726  3.9979
  585TIP3    H223247   3.049   0.820  15.975 -1.9895 -0.3353  1.0590
  586TIP3   OH223248   3.821   1.091   2.775 -0.8467 -0.3844 -0.2782
  586TIP3    H123249   3.798   1.138   2.695 -0.3004  0.0733 -0.1752
  586TIP3    H223250   3.779   1.005   2.766 -1.0397 -0.2261 -0.9149
  587TIP3   OH223251   0.273   0.153  15.194  0.3578 -0.0513  0.6294
  587TIP3    H123252   0.251   0.081  15.135  0.7411 -0.1277  0.5765
  587TIP3    H223253   0.281   0.112  15.280  2.0350 -0.3508  0.3687
  588TIP3   OH223254   4.347   3.734   5.394 -0.5927 -0.3534 -0.0888
  588TIP3    H123255   4.428   3.683   5.385 -1.2703 -1.4715  0.0551
  588TIP3    H223256   4.377   3.821   5.421  0.5463 -0.8408  0.2728
  589TIP3   OH223257   4.219   3.866  14.676  0.0337 -0.4101 -0.5379
  589TIP3    H123258   4.255   3.831  14.594 -0.1904 -1.5469 -0.1787
  589TIP3    H223259   4.248   3.957  14.678  0.0107 -0.3530 -1.8935
  590TIP3   OH223260   5.860   2.083   0.864  0.0997 -0.1056 -0.3664
  590TIP3    H123261   5.788   2.053   0.809  1.5889 -2.3672 -1.2158
  590TIP3    H223262   5.829   2.068   0.953 -0.8447 -0.1229 -0.6838
  591TIP3   OH223263   2.068   3.722  10.829 -0.3304 -0.5704  0.2734
  591TIP3    H123264   2.135   3.678  10.777  0.4120  2.2943 -1.4408
  591TIP3    H223265   1.988   3.714  10.777 -0.0443  0.5465 -0.3838
  592TIP3   OH223266   0.873   1.993  17.068 -0.7042 -0.2395  0.3070
  592TIP3    H123267   0.876   1.903  17.100  0.7747  0.4171  2.1908
  592TIP3    H223268   0.951   2.002  17.013 -2.2190 -0.7882 -2.1061
  593TIP3   OH223269   2.440   3.313  12.316  0.2474  0.4805  0.3690
  593TIP3    H123270   2.409   3.233  12.273  0.5507 -0.9374  2.6573
  593TIP3    H223271   2.395   3.384  12.269 -1.9608 -1.1468 -0.1463
  594TIP3   OH223272   4.886   0.487  12.112 -0.3115  0.1757 -0.2374
  594TIP3    H123273   4.973   0.486  12.074  1.2896 -0.6376  3.0433
  594TIP3    H223274   4.834   0.541  12.053  2.5520  1.2052 -2.0178
  595TIP3   OH223275   4.348   2.763   4.837  0.2773 -0.5230 -0.5613
  595TIP3    H123276   4.432   2.718   4.833 -0.9702 -3.0309 -0.5386
  595TIP3    H223277   4.283   2.695   4.819 -1.8713  0.8772  1.2992
  596TIP3   OH223278   1.262   2.950   3.819 -0.0782 -0.0233 -0.4566
  596TIP3    H123279   1.223   3.003   3.889  0.1756  0.3482 -0.5957
  596TIP3    H223280   1.356   2.964   3.828 -0.0617  0.2587 -1.0595
  597TIP3   OH223281   4.393   4.288  10.419 -0.0581  0.3025 -0.0519
  597TIP3    H123282   4.387   4.243  10.503 -0.5286 -0.0546 -0.2712
  597TIP3    H223283   4.405   4.380  10.441  1.6899 -0.0071  0.4144
  598TIP3   OH223284   4.159   1.656  14.759 -0.3053 -0.0617  0.2222
  598TIP3    H123285   4.199   1.743  14.761  1.8295 -0.9850  2.1046
  598TIP3    H223286   4.075   1.667  14.803  0.0305  1.0050  0.6275
  599TIP3   OH223287   0.190   1.240   1.440  0.2212  0.0364  0.1402
  599TIP3    H123288   0.251   1.193   1.383 -0.8395 -1.7493  0.4190
  599TIP3    H223289   0.190   1.330   1.406 -0.2277 -0.9017 -2.5794
  600TIP3   OH223290   4.309   0.175   3.447  0.0024  0.5862 -0.1695
  600TIP3    H123291   4.313   0.115   3.373 -0.1432 -0.3118  0.5328
  600TIP3    H223292   4.255   0.247   3.417  1.9894  1.4992 -1.8102
  601TIP3   OH223293   4.332   2.154   5.054 -0.0155 -0.2469  0.4237
  601TIP3    H123294   4.391   2.221   5.019 -0.7191  0.5935  0.7905
  601TIP3    H223295   4.262   2.148   4.989 -1.4056  1.4261  1.6705
  602TIP3   OH223296   1.081   4.590  14.264  0.2238 -0.4279 -0.1705
  602TIP3    H123297   0.986   4.596  14.249 -0.0541 -1.0176  1.2027
  602TIP3    H223298   1.103   4.674  14.305  0.1425 -0.6033  0.2366
  603TIP3   OH223299   1.549   5.455   1.586 -0.2981 -0.2313 -0.7138
  603TIP3    H123300   1.540   5.429   1.678  0.4263  0.2439 -0.5061
  603TIP3    H223301   1.640   5.435   1.564  0.7926  3.3307 -0.1323
  604TIP3   OH223302   0.381   5.734  12.904 -0.4516 -0.2160  0.2517
  604TIP3    H123303   0.363   5.662  12.965 -0.6466  1.4945  2.3674
  604TIP3    H223304   0.470   5.762  12.927 -0.7045  0.7590  0.0687
  605TIP3   OH223305   3.074   5.479   3.445  0.2884 -0.4703  0.5891
  605TIP3    H123306   2.994   5.445   3.405  1.2123 -2.1633  0.0841
  605TIP3    H223307   3.112   5.404   3.490  1.8260  0.1912  0.4421
  606TIP3   OH223308   4.098   6.212   3.838 -0.5046 -0.0744 -0.2405
  606TIP3    H123309   4.130   6.301   3.826 -0.2556 -0.2207 -0.6647
  606TIP3    H223310   4.073   6.208   3.930 -3.1005  1.2729 -0.7992
  607TIP3   OH223311   1.620   5.676  15.588  0.2339 -1.1923  0.5353
  607TIP3    H123312   1.568   5.649  15.664 -1.6555 -0.5744 -0.4656
  607TIP3    H223313   1.602   5.770  15.579 -1.0681 -1.5834 -1.6998
  608TIP3   OH223314   1.626   3.817  11.276  0.0885 -0.3021  0.2972
  608TIP3    H123315   1.635   3.784  11.365 -1.4452 -0.6908  0.3391
  608TIP3    H223316   1.553   3.767  11.239  0.1296  0.4591 -0.8922
  609TIP3   OH223317   5.217   5.990   2.182 -0.0330 -0.2308 -0.4721
  609TIP3    H123318   5.294   6.007   2.236 -2.0056 -0.0382  2.5982
  609TIP3    H223319   5.219   5.895   2.166  0.5895 -0.3039  0.0142
  610TIP3   OH223320   6.699   4.816  12.792  0.0388 -0.1292  0.5785
  610TIP3    H123321   6.757   4.809  12.716  1.4254 -1.6231  1.6946
  610TIP3    H223322   6.751   4.782  12.865 -1.7487 -0.1165  1.9343
  611TIP3   OH223323   4.367   4.108   4.260 -0.4838  0.0640 -0.3171
  611TIP3    H123324   4.334   4.021   4.238  0.1131 -0.1174 -0.4899
  611TIP3    H223325   4.452   4.114   4.216  1.4246 -0.8439  2.8998
  612TIP3   OH223326   0.904   0.718   4.739  0.4372  0.4315 -0.4413
  612TIP3    H123327   0.983   0.713   4.685  1.0934  2.3737  0.2608
  612TIP3    H223328   0.934   0.698   4.828 -0.6665 -2.9296 -0.6730
  613TIP3   OH223329   6.658   2.456  12.399 -0.0417  0.1152 -0.4205
  613TIP3    H123330   6.600   2.395  12.444  2.5185 -0.7196  2.0242
  613TIP3    H223331   6.602   2.530  12.375 -2.4127 -1.3750  0.2225
  614TIP3   OH223332   1.101   2.333   2.673 -0.2274  0.4251  0.0814
  614TIP3    H123333   1.033   2.363   2.733 -0.2165 -1.1210  0.9290
  614TIP3    H223334   1.053   2.309   2.593 -0.3853  1.4073 -0.1298
  615TIP3   OH223335   6.542   3.793   0.691 -0.0278  0.2728 -0.1002
  615TIP3    H123336   6.469   3.827   0.743  0.0311  1.6280 -0.8487
  615TIP3    H223337   6.590   3.736   0.751 -1.4954 -0.3867  0.5125
  616TIP3   OH223338   1.606   0.333   5.604 -0.3375  0.1513  0.2036
  616TIP3    H123339   1.526   0.285   5.583 -1.2823  1.5244  0.4609
  616TIP3    H223340   1.575   0.423   5.621  1.3488  0.8823 -0.4261
  617TIP3   OH223341   4.544   0.001   5.065 -0.2031 -0.5809  0.1208
  617TIP3    H123342   4.609   0.060   5.027 -0.2310  0.9911  2.3377
  617TIP3    H223343   4.516  -0.055   4.992  0.9333  1.1435 -1.7167
  618TIP3   OH223344   1.566   5.776   1.627 -0.3537  0.3041  0.1107
  618TIP3    H123345   1.586   5.781   1.533 -1.3205  2.2462 -0.0500
  618TIP3    H223346   1.533   5.687   1.640  0.0924 -0.0955 -1.3304
  619TIP3   OH223347   5.194   1.738   4.347  0.0294  0.1231 -0.1214
  619TIP3    H123348   5.152   1.652   4.337  1.3994 -0.6242  0.4104
  619TIP3    H223349   5.155   1.774   4.426 -1.0980  0.3373 -0.7489
  620TIP3   OH223350   2.294   1.519  12.144 -0.2845 -0.1629  0.0332
  620TIP3    H123351   2.364   1.455  12.157 -1.3661 -1.4237 -0.1009
  620TIP3    H223352   2.226   1.493  12.206 -1.3375 -0.0150 -1.0227
  621TIP3   OH223353   6.126   5.840  11.670 -0.3604 -0.1456 -0.1229
  621TIP3    H123354   6.031   5.834  11.660 -0.2998 -5.3505 -0.6011
  621TIP3    H223355   6.161   5.821  11.582  1.1294  0.8731  0.2073
  622TIP3   OH223356   3.510   1.748  14.236 -0.0551  0.1847  0.1055
  622TIP3    H123357   3.496   1.678  14.300  0.8929  0.9544  1.2032
  622TIP3    H223358   3.602   1.771  14.246  0.1122  0.3446 -1.5501
  623TIP3   OH223359   1.893   2.456   4.317  0.6550  0.0637  0.6200
  623TIP3    H123360   1.897   2.551   4.328 -3.7340  0.6360 -0.7157
  623TIP3    H223361   1.890   2.443   4.222  1.3281 -1.4718  0.7749
  624TIP3   OH223362   0.770   6.013   3.990  0.2138 -0.4388  0.0219
  624TIP3    H123363   0.749   5.921   3.971 -1.0831  0.1728 -1.7367
  624TIP3    H223364   0.810   6.011   4.077 -0.7776 -2.5333  0.4827
  625TIP3   OH223365   0.628   3.940  13.811  0.3562 -0.6980 -0.4425
  625TIP3    H123366   0.711   3.973  13.846 -0.3205  0.2922  0.2559
  625TIP3    H223367   0.620   3.980  13.725  0.7487 -1.0605 -0.6545
  626TIP3   OH223368   3.217   5.834  12.448  0.1192  0.3233  0.0842
  626TIP3    H123369   3.169   5.899  12.499 -0.1328  0.8658 -0.8171
  626TIP3    H223370   3.299   5.878  12.424  0.0315  0.2491 -0.3653
  627TIP3   OH223371   4.736   4.277   1.316 -0.1444 -0.2499  0.8140
  627TIP3    H123372   4.690   4.217   1.375 -0.5512  1.5181  2.3950
  627TIP3    H223373   4.820   4.234   1.298  0.8185 -0.0578  4.2511
  628TIP3   OH223374   1.308   1.432  13.373  0.0950  0.1727 -0.8299
  628TIP3    H123375   1.303   1.444  13.278 -0.4234  0.0419 -0.8177
  628TIP3    H223376   1.360   1.353  13.384  2.1619  1.4323 -0.9482
  629TIP3   OH223377   6.065   4.622  12.437 -0.1856 -0.0617  0.4658
  629TIP3    H123378   6.146   4.591  12.477 -0.1511 -0.3134  0.2055
  629TIP3    H223379   6.089   4.645  12.347 -0.8221 -2.1865 -0.3122
  630TIP3   OH223380   5.251   1.905   4.973 -0.4697  0.0629  0.9178
  630TIP3    H123381   5.297   1.868   5.048  1.4720  0.0813 -0.1913
  630TIP3    H223382   5.226   1.829   4.921 -1.0245  0.0897  1.1446
  631TIP3   OH223383   4.829   5.905  15.411 -0.3884  0.5250  0.5421
  631TIP3    H123384   4.872   5.854  15.480 -1.0413 -0.5415  0.1720
  631TIP3    H223385   4.848   5.857  15.330 -0.1431  1.4357  0.0377
  632TIP3   OH223386   3.161   2.237  13.047 -0.1522  0.5688 -0.3887
  632TIP3    H123387   3.170   2.328  13.019 -2.7310  0.8886 -0.3828
  632TIP3    H223388   3.170   2.240  13.142  1.0438  0.5813 -0.4805
  633TIP3   OH223389   1.024   4.855   1.280  0.0948 -0.2090 -0.3145
  633TIP3    H123390   1.022   4.773   1.230 -1.3299  0.9059 -2.2177
  633TIP3    H223391   1.103   4.900   1.248  0.4738 -0.4966  0.1962
  634TIP3   OH223392   0.869   3.299  15.943  0.1707 -0.2823  0.4006
  634TIP3    H123393   0.899   3.362  15.878  0.3288 -0.1145  0.6360
  634TIP3    H223394   0.807   3.349  15.998 -0.3450 -0.5545  0.0745
  635TIP3   OH223395   3.106   4.230  13.436 -0.5757  0.2446  0.3101
  635TIP3    H123396   3.072   4.320  13.433 -0.5301  0.2358 -0.8231
  635TIP3    H223397   3.032   4.175  13.414 -0.8078 -0.0723  1.8144
  636TIP3   OH223398   2.934   3.005   4.772  0.2441  0.4914 -0.4450
  636TIP3    H123399   2.850   3.040   4.742  0.3714  0.1353 -1.2350
  636TIP3    H223400   2.995   3.077   4.760  0.1071  0.6639 -0.1219
  637TIP3   OH223401   3.477   0.627  14.447 -0.0866 -0.3362 -0.3099
  637TIP3    H123402   3.429   0.677  14.513  1.8257 -0.2416  1.0798
  637TIP3    H223403   3.409   0.574  14.404 -1.6366  0.8480  0.5493
  638TIP3   OH223404   6.709   2.359   2.323  0.2487 -0.1840 -0.1666
  638TIP3    H123405   6.780   2.363   2.387  0.2096  0.5601 -0.1611
  638TIP3    H223406   6.630   2.354   2.377  0.3263 -2.4183 -0.1616
  639TIP3   OH223407   1.374   0.868   1.334 -0.4241 -0.7141  0.3955
  639TIP3    H123408   1.349   0.780   1.306 -1.7075 -0.5189  0.8444
  639TIP3    H223409   1.290   0.912   1.351  0.1401  0.9926 -1.0104
  640TIP3   OH223410   5.183   4.403   4.786  0.0314 -0.2466 -0.5378
  640TIP3    H123411   5.096   4.417   4.823 -0.9727 -0.7216 -2.5505
  640TIP3    H223412   5.242   4.406   4.861 -1.7037  0.1321  0.8839
  641TIP3   OH223413   1.463   3.479   1.663  0.7564 -0.4462 -0.4732
  641TIP3    H123414   1.436   3.438   1.581 -0.2775  0.2038 -0.4818
  641TIP3    H223415   1.387   3.471   1.720  0.8824  0.5482 -0.1360
  642TIP3   OH223416   0.414   3.390   0.880 -0.3749 -0.3070 -0.1494
  642TIP3    H123417   0.420   3.448   0.956  1.9682 -0.2503 -0.3104
  642TIP3    H223418   0.425   3.302   0.916  0.5850 -0.2905 -0.3772
  643TIP3   OH223419   2.144   1.913   3.410 -0.0473  0.3017 -0.4293
  643TIP3    H123420   2.237   1.892   3.413 -0.3246 -0.9116  0.2389
  643TIP3    H223421   2.122   1.939   3.500 -0.3481  0.6327 -0.5940
  644TIP3   OH223422   6.615   2.911   4.950 -0.2067 -0.4238  0.0708
  644TIP3    H123423   6.520   2.924   4.955 -0.1929 -0.6125  1.2686
  644TIP3    H223424   6.651   2.968   5.018  0.4550 -1.0189  0.2420
  645TIP3   OH223425   2.078   3.191   2.305 -0.0018  0.4990 -0.6399
  645TIP3    H123426   2.160   3.237   2.320 -0.5543  1.6092 -0.9196
  645TIP3    H223427   2.023   3.254   2.258 -0.3045 -0.9435 -2.3031
  646TIP3   OH223428   1.153   5.219   2.854 -0.4648 -0.6404 -0.6040
  646TIP3    H123429   1.088   5.258   2.794  0.2936 -0.3354 -1.2566
  646TIP3    H223430   1.225   5.194   2.796 -0.5224 -2.1253 -0.0488
  647TIP3   OH223431   6.658   1.049  11.658 -0.1843 -0.3105 -0.1388
  647TIP3    H123432   6.652   1.016  11.748 -0.7832 -0.5693 -0.2733
  647TIP3    H223433   6.738   1.103  11.658 -1.0282  1.0173  0.9891
  648TIP3   OH223434   5.182   2.738  15.247 -0.3206 -0.3386  0.0174
  648TIP3    H123435   5.160   2.829  15.267 -1.5054 -0.9048  1.4906
  648TIP3    H223436   5.244   2.743  15.174  0.8754  1.7023  1.1040
  649TIP3   OH223437   3.906   1.420   5.834  0.1518 -0.0632  0.1012
  649TIP3    H123438   3.868   1.507   5.843  0.6726  0.4255 -1.9096
  649TIP3    H223439   3.832   1.360   5.845 -0.0433  0.5358  2.4999
  650TIP3   OH223440   5.557   1.370  16.330 -0.3182 -0.0928 -0.2032
  650TIP3    H123441   5.595   1.291  16.370  0.4769 -0.1303 -0.9965
  650TIP3    H223442   5.504   1.336  16.258  0.0148  0.0956 -0.5380
  651TIP3   OH223443   5.433   1.968   5.224 -0.4335  0.2417  0.0476
  651TIP3    H123444   5.378   1.978   5.302 -0.0031  0.3152  0.3425
  651TIP3    H223445   5.475   2.053   5.213  0.1336 -0.0141  0.2111
  652TIP3   OH223446   5.034   0.901  13.370  0.1058 -0.2682 -0.4759
  652TIP3    H123447   5.043   0.859  13.456 -1.0708  0.8225  0.2106
  652TIP3    H223448   5.101   0.970  13.371 -0.0300 -0.1383 -0.3651
  653TIP3   OH223449   1.133   3.048  14.380 -0.1170  0.0673  0.4435
  653TIP3    H123450   1.103   2.993  14.307 -0.0619 -1.6518  1.6656
  653TIP3    H223451   1.080   3.127  14.373  0.8040  0.5781 -2.2477
  654TIP3   OH223452   3.223   3.360   3.684 -0.0573  0.0280  0.3103
  654TIP3    H123453   3.158   3.292   3.666  0.6455 -1.0525  1.6486
  654TIP3    H223454   3.178   3.442   3.666 -1.6641 -0.6982  0.8132
  655TIP3   OH223455   5.546   5.413  16.736  0.1753  0.0061 -0.2461
  655TIP3    H123456   5.525   5.370  16.654  0.4233 -0.8279  0.1196
  655TIP3    H223457   5.618   5.362  16.773 -0.0300  0.2764  0.5582
  656TIP3   OH223458   1.462   3.550  10.613 -0.2935 -0.1650  0.0371
  656TIP3    H123459   1.450   3.608  10.688 -0.5302 -2.1969  1.6494
  656TIP3    H223460   1.400   3.479  10.627  1.5752 -2.0393 -0.5883
  657TIP3   OH223461   6.733   0.140  14.167 -0.2242 -0.3197 -0.2649
  657TIP3    H123462   6.647   0.104  14.185  0.2749 -2.2615 -1.4851
  657TIP3    H223463   6.757   0.104  14.082  2.3521 -0.9468  0.6390
  658TIP3   OH223464   1.346   1.028  13.865  0.2059 -0.0339  0.2488
  658TIP3    H123465   1.329   0.952  13.809 -1.1576 -0.7565  1.5642
  658TIP3    H223466   1.441   1.040  13.860  0.2992 -1.0112 -1.0028
  659TIP3   OH223467   0.805   1.702  14.835  0.4252 -0.2348  0.2496
  659TIP3    H123468   0.900   1.690  14.832  0.2443 -1.6431 -0.7708
  659TIP3    H223469   0.770   1.613  14.842 -0.8668  0.0431 -1.7240
  660TIP3   OH223470   2.755   2.073  13.824  0.2692  0.2734 -0.4477
  660TIP3    H123471   2.713   2.085  13.739 -0.8523  1.7231  0.2515
  660TIP3    H223472   2.720   1.990  13.857  1.5936 -0.8914 -1.8338
  661TIP3   OH223473   3.900   2.104  16.899 -0.4626  0.2130 -0.1088
  661TIP3    H123474   3.805   2.100  16.888 -0.8258  1.4537  2.0469
  661TIP3    H223475   3.918   2.053  16.978  0.7417 -0.2434 -0.6381
  662TIP3   OH223476   4.947   0.979   0.149  0.0741  0.4235  0.3811
  662TIP3    H123477   4.896   1.060   0.152 -1.1260 -0.3117  0.4153
  662TIP3    H223478   4.970   0.969   0.056 -1.7453 -0.3603 -0.0201
  663TIP3   OH223479   0.404   3.622   6.045 -0.1006  0.0454  0.6881
  663TIP3    H123480   0.402   3.528   6.063 -0.2233  0.1277  1.1137
  663TIP3    H223481   0.406   3.628   5.949  1.6818 -0.4256  0.6604
  664TIP3   OH223482   4.000   4.416  12.543  0.6237  0.3777 -0.1303
  664TIP3    H123483   4.054   4.387  12.470  0.2906  0.5843 -0.4600
  664TIP3    H223484   4.041   4.377  12.620  0.9308  0.0976 -0.4340
  665TIP3   OH223485   0.889   1.236  15.830 -0.2374 -0.5507 -0.3011
  665TIP3    H123486   0.839   1.318  15.834  0.7553  0.1027 -0.9444
  665TIP3    H223487   0.828   1.173  15.791 -1.0953 -0.2000  0.4241
  666TIP3   OH223488   2.434   1.352   1.180 -0.0085  0.3050 -0.0904
  666TIP3    H123489   2.459   1.415   1.113 -0.9482 -0.2998 -1.0228
  666TIP3    H223490   2.512   1.297   1.192  0.6025  1.2197  0.2811
  667TIP3   OH223491   6.359   4.141  15.525 -0.1206  0.4118  0.3290
  667TIP3    H123492   6.350   4.137  15.620 -0.4833  0.8763  0.3182
  667TIP3    H223493   6.347   4.233  15.504 -1.5963  0.1005 -0.3201
  668TIP3   OH223494   6.470   6.522   4.791 -0.4567  0.1501  0.3742
  668TIP3    H123495   6.548   6.469   4.807  0.1382  0.8935 -0.0485
  668TIP3    H223496   6.413   6.465   4.740 -0.8044 -0.9050  1.8590
  669TIP3   OH223497   5.325   3.180  15.719  0.1077  0.5433 -0.4211
  669TIP3    H123498   5.420   3.183  15.726  0.0474 -0.0007  1.0026
  669TIP3    H223499   5.304   3.234  15.643  1.4434  1.9240  0.1581
  670TIP3   OH223500   5.392   2.233  14.518 -0.6201  0.0156 -0.1752
  670TIP3    H123501   5.428   2.229  14.430 -1.2809  1.5593 -0.5305
  670TIP3    H223502   5.322   2.168  14.519 -1.1886  0.6080 -1.0643
  671TIP3   OH223503   1.872   1.497   3.947  0.5887 -0.4862  0.4718
  671TIP3    H123504   1.929   1.527   3.876 -0.6305  1.6769  0.3534
  671TIP3    H223505   1.909   1.536   4.026 -0.5173  0.7069  0.4293
  672TIP3   OH223506   5.053   2.523  16.430 -0.2591 -0.0689  0.6642
  672TIP3    H123507   5.031   2.543  16.339 -0.0475  1.6722  0.9566
  672TIP3    H223508   5.070   2.429  16.430 -0.6550 -0.1800 -1.0096
  673TIP3   OH223509   3.584   3.533   6.260  0.2513  0.6283  0.2817
  673TIP3    H123510   3.676   3.546   6.283 -0.3650  3.6871  1.4135
  673TIP3    H223511   3.586   3.508   6.168  2.1934  1.4777  0.0496
  674TIP3   OH223512   6.378   5.252   3.781 -0.0037 -0.2011  0.4803
  674TIP3    H123513   6.442   5.192   3.742 -1.0488 -0.3401 -1.1539
  674TIP3    H223514   6.397   5.337   3.741 -0.8306 -0.2525 -0.0585
  675TIP3   OH223515   4.994   5.444  15.490 -0.5496 -0.0251  0.0535
  675TIP3    H123516   4.962   5.448  15.580  0.3888  0.7508  0.3661
  675TIP3    H223517   4.915   5.443  15.436 -1.1411 -1.4037  0.8957
  676TIP3   OH223518   5.416   4.375   4.898 -0.3869  0.4114  0.2205
  676TIP3    H123519   5.498   4.326   4.906 -0.3028  0.5412  0.1430
  676TIP3    H223520   5.427   4.428   4.819  0.2909  2.0125  1.3252
  677TIP3   OH223521   4.589   5.079   5.196  0.0367 -0.2870 -0.3227
  677TIP3    H123522   4.673   5.041   5.222 -0.8537 -1.4145  1.0894
  677TIP3    H223523   4.565   5.032   5.116 -0.1985 -1.4839  0.4161
  678TIP3   OH223524   4.824   5.334   6.593 -0.0218  0.1587  0.1416
  678TIP3    H123525   4.916   5.342   6.618  0.0294 -0.4712  0.1716
  678TIP3    H223526   4.776   5.338   6.675  0.0812 -0.9266  0.2709
  679TIP3   OH223527   3.163   5.662   0.977  0.4840 -0.3884 -0.4450
  679TIP3    H123528   3.252   5.692   0.992  0.7940 -1.3674 -0.2493
  679TIP3    H223529   3.172   5.570   0.953 -0.5548 -0.8627  0.8224
  680TIP3   OH223530   5.874   6.712  11.911 -0.1349 -0.5968 -0.0713
  680TIP3    H123531   5.904   6.775  11.846  0.1464 -0.8703 -0.2123
  680TIP3    H223532   5.905   6.746  11.995 -1.8584  0.5958  0.1360
  681TIP3   OH223533   6.435   5.510   4.457  0.7938  0.0311  0.0299
  681TIP3    H123534   6.523   5.503   4.492  0.4889 -0.0971  0.7912
  681TIP3    H223535   6.378   5.494   4.532  0.1266 -0.6528 -0.5980
  682TIP3   OH223536   2.039   6.215   0.034 -0.0163  0.2371  0.4271
  682TIP3    H123537   2.123   6.259   0.015  0.8322 -1.6820 -0.4688
  682TIP3    H223538   2.057   6.163   0.112  0.1644 -1.4538 -0.6914
  683TIP3   OH223539   2.523   5.926  16.396 -0.5027 -0.3655 -0.0995
  683TIP3    H123540   2.450   5.904  16.338  0.8137 -2.1369 -1.1793
  683TIP3    H223541   2.558   6.008  16.361 -0.7011 -0.5985 -0.8538
  684TIP3   OH223542   4.072   5.003   4.063  0.7526  0.1588 -0.1487
  684TIP3    H123543   3.982   5.032   4.048  1.0538  0.4799 -1.5898
  684TIP3    H223544   4.110   5.071   4.119  0.6158  1.0434 -1.0932
  685TIP3   OH223545   1.371   5.748   2.303  0.2592  0.1794  0.0166
  685TIP3    H123546   1.411   5.807   2.239  1.5037  0.4877  1.0245
  685TIP3    H223547   1.425   5.759   2.382 -1.1918 -0.2283  1.1028
  686TIP3   OH223548   3.216   3.809   1.501 -0.4998  0.1440 -0.4410
  686TIP3    H123549   3.247   3.768   1.581 -0.9334  0.1807 -0.2524
  686TIP3    H223550   3.246   3.752   1.431 -0.6836 -0.2410 -0.2086
  687TIP3   OH223551   0.951   2.988  15.382  0.0641  0.1006  0.5878
  687TIP3    H123552   1.008   2.946  15.318  0.9031 -3.8899  3.5719
  687TIP3    H223553   1.007   3.001  15.459 -1.8651  0.6991  1.9725
  688TIP3   OH223554   4.838   5.415  15.745  0.3577  0.0639 -0.4593
  688TIP3    H123555   4.855   5.352  15.815  1.1886 -0.2410 -0.9130
  688TIP3    H223556   4.780   5.481  15.785  0.1718 -0.5266  0.2681
  689TIP3   OH223557   4.170   0.243  15.531  0.5285  0.1826 -0.4691
  689TIP3    H123558   4.252   0.202  15.505  0.4496 -0.5593  0.3992
  689TIP3    H223559   4.152   0.307  15.462  1.3903 -0.2462 -1.1087
  690TIP3   OH223560   5.018   4.167   0.889 -0.0119 -0.3764 -0.1361
  690TIP3    H123561   5.097   4.113   0.891  0.6639  0.6038  0.9518
  690TIP3    H223562   5.050   4.256   0.900 -1.1798  0.1765 -1.0006
  691TIP3   OH223563   1.869   2.820  12.541 -0.7139  0.5658 -0.6812
  691TIP3    H123564   1.909   2.840  12.456 -3.1065  0.1575 -2.0167
  691TIP3    H223565   1.885   2.897  12.594 -0.2402  1.3732 -1.9492
  692TIP3   OH223566   3.569   5.336  11.643 -0.4541 -0.3248 -0.1558
  692TIP3    H123567   3.584   5.318  11.550 -0.5914 -0.8516 -0.0741
  692TIP3    H223568   3.474   5.329  11.653 -0.5633  0.8603 -0.2134
  693TIP3   OH223569   1.958   3.248   3.325  0.6443 -0.4584 -0.2468
  693TIP3    H123570   1.977   3.262   3.418  0.9236  0.9847 -0.4964
  693TIP3    H223571   1.863   3.262   3.319  0.7369  0.2176 -0.2845
  694TIP3   OH223572   2.810   4.845  15.762  0.2663 -0.3987  0.3182
  694TIP3    H123573   2.778   4.756  15.766 -1.4658  0.0588 -1.7922
  694TIP3    H223574   2.830   4.860  15.670  0.6782  1.3527  0.6450
  695TIP3   OH223575   4.194   3.349  10.866 -0.3271 -0.0716  0.3547
  695TIP3    H123576   4.112   3.380  10.829  0.2903  1.1937 -0.0012
  695TIP3    H223577   4.259   3.413  10.838  1.3282 -2.4292 -1.7078
  696TIP3   OH223578   5.589   1.465  12.943 -0.0569 -0.0067 -0.1609
  696TIP3    H123579   5.495   1.474  12.929 -0.2273  2.3222  1.7765
  696TIP3    H223580   5.596   1.422  13.028  0.7057 -1.2902 -0.8392
  697TIP3   OH223581   0.368   2.981   2.312 -0.5694  0.7495  0.1801
  697TIP3    H123582   0.314   3.043   2.362 -0.4235  0.0156  1.2971
  697TIP3    H223583   0.330   2.896   2.331  0.1201  0.3557 -0.1580
  698TIP3   OH223584   2.004   4.056   3.786 -0.4325 -0.2719  0.2987
  698TIP3    H123585   1.984   3.990   3.852 -1.9499 -0.5204 -0.3561
  698TIP3    H223586   2.055   4.009   3.719  1.4730  0.0787  1.4261
  699TIP3   OH223587   0.739   2.659  17.162 -0.0369  0.3567  0.6062
  699TIP3    H123588   0.673   2.659  17.231 -1.2911  0.1553 -0.5467
  699TIP3    H223589   0.811   2.710  17.199 -0.9773  0.9105  1.7797
  700TIP3   OH223590   6.673   2.441  14.998 -0.2364 -0.1939  0.0290
  700TIP3    H123591   6.716   2.462  15.080  0.9026 -0.0165 -0.5919
  700TIP3    H223592   6.579   2.454  15.015  0.1334  2.1867  0.6287
  701TIP3   OH223593   0.406   2.438  14.405 -0.4964  0.0450  0.1043
  701TIP3    H123594   0.457   2.463  14.482 -0.6189  0.7721 -0.0463
  701TIP3    H223595   0.412   2.342  14.403  1.7471  0.1237 -0.4872
  702TIP3   OH223596   4.590   3.908  11.341  0.1974  0.0476 -0.2058
  702TIP3    H123597   4.518   3.848  11.361  0.5286 -0.1571  0.4000
  702TIP3    H223598   4.640   3.862  11.274  0.4104 -0.3267  0.2059
  703TIP3   OH223599   1.838   2.274  12.591 -0.0197 -0.3935 -0.5941
  703TIP3    H123600   1.775   2.337  12.557  0.0514 -0.3121 -0.5792
  703TIP3    H223601   1.852   2.211  12.520  0.4478  0.0166 -0.8759
  704TIP3   OH223602   6.615   5.859  16.708 -0.3822 -0.2496  0.4544
  704TIP3    H123603   6.609   5.764  16.699 -1.8129 -0.4026  2.4533
  704TIP3    H223604   6.709   5.877  16.705 -0.0371 -1.8276  0.7962
  705TIP3   OH223605   4.242   1.482  16.341 -0.5014 -0.6943 -0.0417
  705TIP3    H123606   4.296   1.452  16.414  3.1251 -0.2757 -2.2824
  705TIP3    H223607   4.208   1.402  16.301 -0.2185 -1.0913  0.5124
  706TIP3   OH223608   0.347   2.953  12.063 -0.2540 -0.2160  0.0114
  706TIP3    H123609   0.371   2.965  11.971 -0.7297  0.4839 -0.0307
  706TIP3    H223610   0.319   2.861  12.069  1.4076 -0.7688 -0.1479
  707TIP3   OH223611   6.344   3.057   0.846  0.4121  0.2327 -0.1978
  707TIP3    H123612   6.337   3.065   0.751  1.4070 -2.5231 -0.5808
  707TIP3    H223613   6.253   3.054   0.876  0.0821  1.5232 -0.9707
  708TIP3   OH223614   0.742   0.389  12.240  0.0872 -0.6364 -0.9782
  708TIP3    H123615   0.828   0.347  12.234  1.1721  1.3290 -0.0934
  708TIP3    H223616   0.717   0.380  12.332  0.1358  0.2424 -0.8716
  709TIP3   OH223617   2.743   0.100  14.711  0.1700  0.3956 -0.3862
  709TIP3    H123618   2.816   0.085  14.772 -1.0062 -2.4467  0.5080
  709TIP3    H223619   2.782   0.094  14.624  1.3656  1.3454  0.0618
  710TIP3   OH223620   2.278   5.111   3.164  0.2571 -0.4432  0.2730
  710TIP3    H123621   2.229   5.054   3.223 -0.4417 -0.7460 -0.5640
  710TIP3    H223622   2.301   5.187   3.217 -0.1761 -0.7933  0.9799
  711TIP3   OH223623   0.183   2.768   2.367 -0.0972 -0.0620  0.2128
  711TIP3    H123624   0.153   2.699   2.308  1.1417 -0.1499 -0.3502
  711TIP3    H223625   0.118   2.769   2.438 -1.0668 -0.6283 -0.6346
  712TIP3   OH223626   0.047   5.708  14.477 -0.3268  0.1950 -0.1131
  712TIP3    H123627   0.030   5.800  14.498  0.0043  0.2112  0.0876
  712TIP3    H223628   0.092   5.674  14.554 -0.2267 -0.0707 -0.2903
  713TIP3   OH223629   2.942   4.599   6.441  0.0942  0.4374 -0.2151
  713TIP3    H123630   3.002   4.645   6.500  0.0596 -0.3567  0.4514
  713TIP3    H223631   2.869   4.660   6.429 -1.3525 -0.4781  2.9610
  714TIP3   OH223632   0.650   5.399   5.252 -0.5815  0.3083 -0.0220
  714TIP3    H123633   0.577   5.347   5.286 -0.1132 -0.8417 -0.7091
  714TIP3    H223634   0.715   5.399   5.323 -0.4537 -0.3329 -0.1322
  715TIP3   OH223635   6.460   2.124  13.872 -0.5314 -0.6083  0.2838
  715TIP3    H123636   6.493   2.192  13.814 -2.7163 -0.0360 -0.3539
  715TIP3    H223637   6.506   2.140  13.955  0.3806  0.4518 -0.3943
  716TIP3   OH223638   6.713   3.497  12.025  0.2120 -0.2833  0.4520
  716TIP3    H123639   6.722   3.545  11.943 -2.1646  0.0870  0.3394
  716TIP3    H223640   6.802   3.491  12.060  1.4825 -1.4365 -2.6668
  717TIP3   OH223641   5.526   3.741   4.896  0.0614  0.0824  0.5725
  717TIP3    H123642   5.604   3.771   4.942  1.2438 -0.1416 -1.1810
  717TIP3    H223643   5.557   3.718   4.809 -1.6585 -1.7283  0.3642
  718TIP3   OH223644   0.540   2.059   0.852 -0.4237  0.5761 -0.3561
  718TIP3    H123645   0.477   2.111   0.903  0.5180  1.5588 -0.1412
  718TIP3    H223646   0.487   1.998   0.802 -1.4451  0.2632  1.0595
  719TIP3   OH223647   1.065   5.175   1.134 -0.7327  0.0928  0.4043
  719TIP3    H123648   1.033   5.232   1.065 -2.2996  1.2502  1.9721
  719TIP3    H223649   0.991   5.166   1.194  1.0376  0.6257  2.8507
  720TIP3   OH223650   0.043   0.402   1.623  0.3257  0.2649 -0.6004
  720TIP3    H123651   0.010   0.382   1.535  0.2777 -0.7396 -0.3707
  720TIP3    H223652   0.035   0.319   1.671  1.8975  0.3552 -0.1313
  721TIP3   OH223653   4.627   3.225   6.756 -0.3039 -0.0564  0.0229
  721TIP3    H123654   4.591   3.207   6.843 -1.4302 -0.1877 -0.4489
  721TIP3    H223655   4.698   3.161   6.746  0.6111  0.7237  1.2884
  722TIP3   OH223656   1.385   4.970   2.004  1.2928 -0.2166  0.0123
  722TIP3    H123657   1.363   4.878   2.014  0.8173  0.0180  1.3153
  722TIP3    H223658   1.304   5.011   1.975  0.8055  0.1507  1.7819
  723TIP3   OH223659   1.042   6.309   1.026 -0.1854  0.0474  0.4240
  723TIP3    H123660   1.135   6.309   1.007 -0.0300 -0.3661  1.1408
  723TIP3    H223661   1.031   6.244   1.096 -0.6977  1.5301  1.7877
  724TIP3   OH223662   4.653   3.854   6.148  0.1603  0.2768  0.0359
  724TIP3    H123663   4.635   3.890   6.235  2.0261  0.0343  0.5736
  724TIP3    H223664   4.699   3.925   6.103 -1.2885  0.6053 -0.9849
  725TIP3   OH223665   1.984   2.376   4.614 -0.5409  0.6114 -0.2667
  725TIP3    H123666   1.937   2.326   4.547  0.4289 -1.2695  0.3808
  725TIP3    H223667   2.010   2.457   4.570 -1.0577 -0.0052 -1.7628
  726TIP3   OH223668   1.409   0.756  13.726  0.4621  0.1203 -0.1593
  726TIP3    H123669   1.470   0.754  13.800  0.4470 -1.6162 -0.1538
  726TIP3    H223670   1.361   0.674  13.731 -0.2941  0.4388 -1.4866
  727TIP3   OH223671   6.323   5.784   5.021  0.1255  0.6479  0.6158
  727TIP3    H123672   6.349   5.818   5.106  1.6799  3.4231 -0.8116
  727TIP3    H223673   6.238   5.824   5.003 -0.9287 -1.1185  1.4041
  728TIP3   OH223674   0.416   0.870   4.861  0.4698 -0.0370 -0.3424
  728TIP3    H123675   0.414   0.867   4.765  0.8635 -0.4227 -0.3397
  728TIP3    H223676   0.496   0.823   4.885 -0.0276 -0.6241  0.2015
  729TIP3   OH223677   1.304   2.895  13.344  0.3019 -0.5728 -0.0404
  729TIP3    H123678   1.280   2.819  13.396  0.8988  0.1209  1.3089
  729TIP3    H223679   1.343   2.859  13.264 -0.4167 -1.6692  0.0926
  730TIP3   OH223680   3.346   1.190   2.144 -0.6868 -0.3223 -0.2350
  730TIP3    H123681   3.330   1.266   2.200  0.8457  0.8054 -1.2679
  730TIP3    H223682   3.266   1.182   2.091 -0.9110  0.4753 -0.0315
  731TIP3   OH223683   0.013   1.522   3.924  0.1446  0.1449  0.3597
  731TIP3    H123684  -0.066   1.509   3.976 -1.0502  0.1355 -1.3710
  731TIP3    H223685   0.027   1.617   3.923  0.2327  0.1365  0.7641
  732TIP3   OH223686   1.560   2.873   3.346  0.6547 -0.1106  0.0719
  732TIP3    H123687   1.571   2.959   3.306  3.8465  0.1570  1.3022
  732TIP3    H223688   1.497   2.888   3.416  3.0989  1.9908  2.0169
  733TIP3   OH223689   2.098   2.087   6.253 -0.5556 -0.7512  0.3989
  733TIP3    H123690   2.101   2.176   6.219 -0.4972 -1.0781 -0.4717
  733TIP3    H223691   2.008   2.077   6.285 -0.2589 -0.0220  1.5456
  734TIP3   OH223692   0.648   4.210  11.279 -0.0412  0.2507 -0.5481
  734TIP3    H123693   0.595   4.273  11.230  0.5702 -0.5307 -2.3255
  734TIP3    H223694   0.738   4.240  11.266  0.0677  0.8450  1.3698
  735TIP3   OH223695   1.431   2.277   1.365  0.1339 -0.3360 -0.2926
  735TIP3    H123696   1.480   2.350   1.328  0.0963  0.1179  0.5236
  735TIP3    H223697   1.354   2.269   1.309  0.6768 -0.4608 -1.0319
  736TIP3   OH223698   5.244   6.149  16.563  0.2590  0.0860 -0.0006
  736TIP3    H123699   5.212   6.239  16.562  1.2215  0.4457 -0.9033
  736TIP3    H223700   5.285   6.139  16.649 -1.2370 -0.0308  0.7346
  737TIP3   OH223701   3.047   1.797   5.373 -0.2523 -0.2125 -0.4417
  737TIP3    H123702   3.077   1.885   5.392 -0.0895 -0.4190  0.2867
  737TIP3    H223703   3.125   1.743   5.378 -0.1654 -0.2533 -1.9328
  738TIP3   OH223704   3.963   5.102  12.099  0.8154  0.6424  0.3226
  738TIP3    H123705   3.978   5.093  12.193  2.7491 -0.6527 -0.0560
  738TIP3    H223706   4.050   5.090  12.060 -0.2563 -0.9678 -1.7499
  739TIP3   OH223707   4.191   0.703  15.097 -0.2768  0.0632  0.0045
  739TIP3    H123708   4.159   0.792  15.114 -0.6606 -0.2400  0.8998
  739TIP3    H223709   4.284   0.715  15.075 -0.5832  0.7873 -0.9731
  740TIP3   OH223710   3.424   1.114  17.451 -0.4569  0.3026  0.3882
  740TIP3    H123711   3.518   1.127  17.466 -0.5175  0.9099  0.2622
  740TIP3    H223712   3.381   1.177  17.509 -0.7258  1.5513 -1.1019
  741TIP3   OH223713   5.350   1.221  12.224  0.7587 -0.0812  0.0888
  741TIP3    H123714   5.376   1.255  12.138 -0.3160  0.8160  0.1068
  741TIP3    H223715   5.335   1.128  12.208 -0.0525  0.1858 -0.8645
  742TIP3   OH223716   6.379   1.396   5.925  0.0946 -0.1473 -0.2031
  742TIP3    H123717   6.288   1.367   5.929  0.4648 -1.8160 -2.1769
  742TIP3    H223718   6.378   1.482   5.966 -2.4118 -0.0078 -0.3745
  743TIP3   OH223719   5.919   5.232  11.068  0.0035 -0.4412  0.3159
  743TIP3    H123720   5.845   5.285  11.095  0.4045  0.4850 -0.3575
  743TIP3    H223721   5.906   5.148  11.113 -0.7727  0.1250  1.1844
  744TIP3   OH223722   3.574   3.587   2.897  0.5410  0.0451 -1.3166
  744TIP3    H123723   3.661   3.588   2.936 -0.3231  1.0230  0.7494
  744TIP3    H223724   3.568   3.670   2.849  0.0789  0.9636  0.2572
  745TIP3   OH223725   5.490   0.302  14.231 -0.4448 -0.6253  0.3405
  745TIP3    H123726   5.528   0.261  14.153 -0.0097 -1.3985  0.9515
  745TIP3    H223727   5.460   0.229  14.285  0.5057 -0.1647  1.5334
  746TIP3   OH223728   3.851   4.581   1.745 -1.0105 -0.4518 -0.0793
  746TIP3    H123729   3.834   4.673   1.727 -0.9723 -0.4168  0.0556
  746TIP3    H223730   3.774   4.550   1.792 -1.1606 -0.5725 -0.4026
  747TIP3   OH223731   1.617   4.879   0.481 -0.0072 -0.0635  0.4912
  747TIP3    H123732   1.525   4.905   0.476 -0.3145 -1.2115 -2.8894
  747TIP3    H223733   1.616   4.795   0.526 -0.8946 -0.7569 -0.7353
  748TIP3   OH223734   2.847   0.886   4.928  0.1931  0.7687 -1.1098
  748TIP3    H123735   2.782   0.849   4.867  0.9689  0.2649 -1.6502
  748TIP3    H223736   2.816   0.859   5.015 -0.5618  0.9192 -1.3254
  749TIP3   OH223737   2.094   0.063   4.556 -0.0040  1.0577 -0.0585
  749TIP3    H123738   2.168   0.013   4.521 -0.9687 -0.2006 -0.3337
  749TIP3    H223739   2.110   0.153   4.525  0.3974  0.4359 -1.7548
  750TIP3   OH223740   1.593   4.012   1.721  0.2941 -0.2940 -0.0264
  750TIP3    H123741   1.688   4.010   1.723  0.3107 -1.2253 -0.9919
  750TIP3    H223742   1.571   4.056   1.638 -0.1921  4.9503  2.4340
  751TIP3   OH223743   2.799   0.171  13.031  0.0697 -0.4584  0.2832
  751TIP3    H123744   2.892   0.196  13.036  0.2682 -0.9551 -0.6871
  751TIP3    H223745   2.752   0.253  13.039  0.4067 -0.4265  4.1441
  752TIP3   OH223746   4.902   4.735  13.879  0.0171  0.1760 -1.0841
  752TIP3    H123747   4.813   4.699  13.876  0.3774 -0.7338 -1.4189
  752TIP3    H223748   4.953   4.666  13.922  0.3787  1.1141  0.0241
  753TIP3   OH223749   4.980   1.743   5.905 -0.0037  0.5028  0.2797
  753TIP3    H123750   4.918   1.816   5.900  0.4052  0.8153 -0.5064
  753TIP3    H223751   5.051   1.768   5.845 -1.5376 -2.1031 -2.9211
  754TIP3   OH223752   6.060   4.533   0.575 -0.1929  0.2836  0.3449
  754TIP3    H123753   6.043   4.544   0.668 -0.1412  0.7150  0.3035
  754TIP3    H223754   5.974   4.509   0.538 -0.4191  1.0594  0.3557
  755TIP3   OH223755   2.765   0.807  16.035 -0.0402 -0.2368  0.0126
  755TIP3    H123756   2.688   0.819  16.090  0.0074 -0.8804  0.2241
  755TIP3    H223757   2.741   0.847  15.951 -0.2032  0.5193  0.4161
  756TIP3   OH223758   1.770   3.889  12.622 -0.4738 -0.2344 -0.4484
  756TIP3    H123759   1.761   3.888  12.527  0.1689  0.9989 -0.5375
  756TIP3    H223760   1.706   3.954  12.651  2.6868  3.2218 -0.5030
  757TIP3   OH223761   2.743   3.718   3.319 -0.0035 -0.6216  0.0553
  757TIP3    H123762   2.673   3.671   3.274 -0.4225 -0.8027  0.8930
  757TIP3    H223763   2.790   3.651   3.369 -2.1145  0.0777  3.2711
  758TIP3   OH223764   5.249   3.282   3.938  0.4727  0.2781 -0.2709
  758TIP3    H123765   5.175   3.221   3.942 -0.4955  1.2577 -1.7930
  758TIP3    H223766   5.326   3.229   3.959 -0.5634 -0.9511  0.5709
  759TIP3   OH223767   3.476   4.486  12.542 -0.0879  0.1106 -0.5924
  759TIP3    H123768   3.550   4.506  12.599 -0.5786 -0.8040  0.3920
  759TIP3    H223769   3.484   4.550  12.470  0.1950  1.6942  0.7750
  760TIP3   OH223770   4.429   3.752  13.038  0.0639  0.6487 -0.0571
  760TIP3    H123771   4.362   3.758  13.105 -1.8346  0.9909 -1.8741
  760TIP3    H223772   4.468   3.839  13.035 -0.9453  1.1041 -0.4468
  761TIP3   OH223773   0.930   0.593  15.081  0.3327  0.5686  0.1842
  761TIP3    H123774   0.963   0.678  15.107  0.8022  0.8592 -1.2749
  761TIP3    H223775   0.988   0.565  15.010  0.6301 -1.2956  1.0938
  762TIP3   OH223776   2.605   1.340   2.116 -0.2174 -0.6648 -0.2037
  762TIP3    H123777   2.684   1.287   2.111  0.0459 -0.1907 -1.5558
  762TIP3    H223778   2.536   1.284   2.079 -0.3677 -0.8085  0.2880
  763TIP3   OH223779   3.969   5.440  13.681  0.1270  0.1329  0.1456
  763TIP3    H123780   3.884   5.405  13.654  0.1072  0.0674  0.2867
  763TIP3    H223781   3.969   5.428  13.776  1.2647 -2.0727 -0.0735
  764TIP3   OH223782   1.705   4.183  11.571 -0.1061 -0.0605 -0.2954
  764TIP3    H123783   1.786   4.149  11.611  1.0318  0.3161 -2.1638
  764TIP3    H223784   1.649   4.106  11.562 -0.0153 -0.3159  1.0941
  765TIP3   OH223785   6.751   2.100  13.190 -0.0914 -0.1485  0.1295
  765TIP3    H123786   6.751   2.091  13.285  1.3339 -1.1907  0.0659
  765TIP3    H223787   6.732   2.192  13.175  0.1193  0.1372  1.4422
  766TIP3   OH223788   2.298   4.084  15.544 -0.0861  0.1586 -0.0899
  766TIP3    H123789   2.350   4.042  15.612  0.2355  1.0599  0.2457
  766TIP3    H223790   2.207   4.069  15.570  0.0334  0.5107  0.5580
  767TIP3   OH223791   2.991   4.578   0.566  0.2120  0.3844 -0.5518
  767TIP3    H123792   2.990   4.485   0.589 -1.7645  0.2833 -0.8659
  767TIP3    H223793   2.958   4.623   0.643  0.9130  0.8118 -0.4923
  768TIP3   OH223794   2.668   1.240   4.978  0.1649  0.5341  0.1159
  768TIP3    H123795   2.588   1.196   5.005  0.3706  0.2106  0.2028
  768TIP3    H223796   2.674   1.315   5.038 -0.1597  0.6560 -0.0013
  769TIP3   OH223797   1.730   0.606  12.592  0.2544  0.1194 -0.1586
  769TIP3    H123798   1.757   0.693  12.563  1.3450 -0.5514 -1.2531
  769TIP3    H223799   1.755   0.548  12.520  2.6440 -1.5819  1.8904
  770TIP3   OH223800   2.209   3.031  17.295 -0.3362  0.1758 -0.5420
  770TIP3    H123801   2.259   2.951  17.277  0.9011  0.8340 -0.2019
  770TIP3    H223802   2.203   3.075  17.210 -3.6071 -1.5962 -1.4033
  771TIP3   OH223803   5.224   2.517  12.102  0.4263 -0.2363  0.9808
  771TIP3    H123804   5.240   2.564  12.020  1.7177 -0.5678  1.0146
  771TIP3    H223805   5.156   2.567  12.146 -0.5714 -0.2771 -0.4632
  772TIP3   OH223806   1.263   4.657  16.882  0.0293 -0.2359  0.0784
  772TIP3    H123807   1.309   4.666  16.799  0.5860 -0.5594  0.3510
  772TIP3    H223808   1.328   4.678  16.949 -0.2371 -0.5971  0.4631
  773TIP3   OH223809   1.545   1.714   3.415  0.0606 -0.2610 -0.1587
  773TIP3    H123810   1.544   1.736   3.508 -1.4992  0.5280 -0.3229
  773TIP3    H223811   1.481   1.643   3.406  0.6220 -0.7309 -0.5583
  774TIP3   OH223812   1.798   2.847  14.725  0.4291  0.0583  0.1906
  774TIP3    H123813   1.848   2.916  14.681 -0.7059  0.4752 -0.4798
  774TIP3    H223814   1.815   2.769  14.673 -0.5787  0.4621 -0.7852
  775TIP3   OH223815   5.571   1.541   4.789 -0.1960 -0.2621 -0.3487
  775TIP3    H123816   5.645   1.590   4.824 -1.0140  0.7662  0.0109
  775TIP3    H223817   5.586   1.541   4.694 -0.2169  0.7807 -0.3644
  776TIP3   OH223818   6.364   1.018   1.918 -0.2459 -0.4114 -0.0668
  776TIP3    H123819   6.313   1.089   1.954 -0.5642 -1.2375  1.1804
  776TIP3    H223820   6.439   1.010   1.977  0.1531 -0.6543 -0.5980
  777TIP3   OH223821   5.472   0.371   2.991 -0.2877 -0.3851  0.5089
  777TIP3    H123822   5.394   0.407   2.948 -0.0032 -0.6269 -0.2196
  777TIP3    H223823   5.503   0.303   2.931  2.6987  2.1937 -1.1604
  778TIP3   OH223824   6.413   2.989   4.081  0.2935  0.0339 -0.0651
  778TIP3    H123825   6.357   3.032   4.016  0.5573  2.1828  1.0284
  778TIP3    H223826   6.381   3.022   4.165  1.9614 -0.1868  0.6913
  779TIP3   OH223827   3.883   2.712  12.193  0.3929  0.1747 -0.1242
  779TIP3    H123828   3.934   2.631  12.193  0.1974  0.0274  1.0201
  779TIP3    H223829   3.896   2.748  12.281 -1.5576  0.0519  0.2801
  780TIP3   OH223830   5.643   0.127  13.342 -0.5091  0.5713 -0.2300
  780TIP3    H123831   5.667   0.145  13.251  1.9265 -0.9409  0.0280
  780TIP3    H223832   5.725   0.138  13.391 -1.0186 -1.7535  1.2727
  781TIP3   OH223833   0.310   2.010  13.128  0.2026  0.1553  0.5030
  781TIP3    H123834   0.385   1.975  13.080 -0.5764 -0.2349 -0.4631
  781TIP3    H223835   0.240   1.947  13.112 -0.3001  0.4260  1.5321
  782TIP3   OH223836   5.693   4.049  16.489  0.8104  0.2482  0.0968
  782TIP3    H123837   5.677   4.065  16.582  0.0719 -0.5275  0.1183
  782TIP3    H223838   5.756   3.977  16.487 -0.3134 -0.7739  0.0226
  783TIP3   OH223839   3.418   3.853  15.513 -0.2572 -0.7493 -0.6477
  783TIP3    H123840   3.390   3.884  15.427  1.2195  0.8726 -0.6107
  783TIP3    H223841   3.385   3.920  15.574 -0.2156 -1.2222 -0.1017
  784TIP3   OH223842   3.773   1.019  13.407 -0.0318 -0.6654 -0.3633
  784TIP3    H123843   3.830   0.967  13.351  0.3364 -0.0803 -0.5340
  784TIP3    H223844   3.832   1.072  13.459 -0.2473 -2.5662  2.0005
  785TIP3   OH223845   3.497   6.363   3.092  0.4223 -0.3848 -0.3134
  785TIP3    H123846   3.485   6.457   3.108 -0.4581 -0.7876  1.7514
  785TIP3    H223847   3.448   6.346   3.012 -0.0972  0.7862 -0.2643
  786TIP3   OH223848   6.733   0.382   6.216  0.3910  0.4123  0.0246
  786TIP3    H123849   6.713   0.454   6.275 -1.7672  1.7760 -2.1749
  786TIP3    H223850   6.705   0.413   6.130  0.8691 -2.4770 -1.2967
  787TIP3   OH223851   2.170   4.088  14.907  0.1950  0.5874 -0.0714
  787TIP3    H123852   2.137   4.147  14.975 -0.7307  0.3747 -0.3232
  787TIP3    H223853   2.261   4.071  14.933 -0.1038  0.6029  1.0601
  788TIP3   OH223854   2.610   4.422  14.996  0.5699  0.4191 -0.0222
  788TIP3    H123855   2.647   4.399  14.911  1.1948  1.1115  0.0506
  788TIP3    H223856   2.671   4.383  15.059  0.3208  0.2376  0.1054
  789TIP3   OH223857   1.048   1.279  14.795  1.0262  0.6285 -0.2960
  789TIP3    H123858   1.116   1.249  14.735  0.6016  0.2953 -0.6149
  789TIP3    H223859   0.984   1.323  14.738 -1.0518 -2.5110 -0.6076
  790TIP3   OH223860   1.365   5.009   5.224  0.3410  0.6335  0.0003
  790TIP3    H123861   1.337   5.099   5.245 -2.1812 -0.2569  0.9356
  790TIP3    H223862   1.292   4.955   5.253  2.0723 -1.8120  0.0823
  791TIP3   OH223863   0.481   5.727  12.601  0.1537  0.2684 -0.5328
  791TIP3    H123864   0.438   5.746  12.685 -0.0344 -0.3718 -0.4772
  791TIP3    H223865   0.454   5.799  12.544 -1.4025 -0.3424 -0.6368
  792TIP3   OH223866   2.559   2.344  17.069 -0.3856 -0.2951  0.1053
  792TIP3    H123867   2.513   2.273  17.114  0.2680  0.4704  2.0992
  792TIP3    H223868   2.552   2.419  17.129  1.8504  0.3471 -0.3599
  793TIP3   OH223869   1.829   6.028   5.587 -0.4751 -0.3502 -0.4038
  793TIP3    H123870   1.863   5.990   5.668 -0.7532 -0.9015 -0.5392
  793TIP3    H223871   1.748   6.072   5.613 -1.3141 -1.7188 -0.5997
  794TIP3   OH223872   6.250   1.598  12.531  0.3323 -0.2717  0.8298
  794TIP3    H123873   6.330   1.611  12.479  1.3761 -2.3405  1.7871
  794TIP3    H223874   6.179   1.598  12.467  0.8395  2.9186  0.0687
  795TIP3   OH223875   1.808   3.947  14.423 -0.0289  0.2057  0.1484
  795TIP3    H123876   1.783   3.951  14.515 -0.9715 -0.3651 -0.0585
  795TIP3    H223877   1.789   4.035  14.389 -1.1179 -0.0027  0.1736
  796TIP3   OH223878   3.804   5.356  14.186 -0.1129 -0.2200  0.1956
  796TIP3    H123879   3.857   5.277  14.197 -0.4898 -0.5215 -0.1113
  796TIP3    H223880   3.719   5.324  14.157 -0.5166  0.2464  0.8321
  797TIP3   OH223881   0.242   1.412   3.593  0.2065 -0.0185  0.3047
  797TIP3    H123882   0.156   1.377   3.571 -0.5380  1.2120  1.1107
  797TIP3    H223883   0.265   1.470   3.520 -0.3053  0.7319  0.7240
  798TIP3   OH223884   0.316   6.500  14.393 -0.8150  0.2922  0.4564
  798TIP3    H123885   0.362   6.548  14.462 -0.8204  2.3906 -0.8987
  798TIP3    H223886   0.226   6.494  14.424 -0.9980  1.9211  0.3570
  799TIP3   OH223887   4.659   0.692   4.476  0.1936 -0.2317 -0.3787
  799TIP3    H123888   4.728   0.758   4.472 -0.9186  0.9317 -1.5597
  799TIP3    H223889   4.581   0.738   4.445 -1.3661 -1.2074  1.8630
  800TIP3   OH223890   2.793   2.597  11.547 -0.5342  0.7255 -0.3234
  800TIP3    H123891   2.833   2.671  11.593 -1.5715  0.2994  1.3755
  800TIP3    H223892   2.702   2.624  11.533 -0.8702 -0.1195  0.1323
  801TIP3   OH223893   3.106   3.225  16.968 -0.6135  0.5097  0.7160
  801TIP3    H123894   3.180   3.275  16.933 -1.7041  1.7171  0.0188
  801TIP3    H223895   3.126   3.216  17.061 -0.1653  1.9283  0.7973
  802TIP3   OH223896   5.864   1.192   4.854 -0.0301 -0.0805 -0.0625
  802TIP3    H123897   5.868   1.179   4.759  1.1545 -2.9659  0.2800
  802TIP3    H223898   5.911   1.274   4.869 -0.6900  0.6917 -1.9894
  803TIP3   OH223899   6.438   2.396  11.508 -0.2035  0.0503 -0.6953
  803TIP3    H123900   6.472   2.375  11.421  0.6817  1.5550 -0.7595
  803TIP3    H223901   6.511   2.439  11.552  0.0781 -2.5462  1.6137
  804TIP3   OH223902   3.660   5.508  11.978 -0.7998 -0.5336  0.0953
  804TIP3    H123903   3.640   5.586  11.926  0.8846  0.9257  1.4949
  804TIP3    H223904   3.598   5.511  12.051 -0.5734 -0.3428  0.2833
  805TIP3   OH223905   6.224   2.285  13.769 -0.3245 -0.0612 -0.4080
  805TIP3    H123906   6.271   2.204  13.748  1.7778  0.8509  0.4552
  805TIP3    H223907   6.222   2.333  13.686  1.7924  0.5747 -0.1431
  806TIP3   OH223908   5.754   5.569  11.968  0.1205  0.2686  0.4079
  806TIP3    H123909   5.797   5.549  12.051 -1.9813  1.1395  1.7962
  806TIP3    H223910   5.797   5.648  11.936  1.2420 -0.3216  0.4268
  807TIP3   OH223911   2.750   2.142   3.978  0.2260  0.0189  0.0688
  807TIP3    H123912   2.744   2.237   3.984 -2.4090 -0.1219  1.1800
  807TIP3    H223913   2.759   2.112   4.069  1.1188 -0.7918 -0.2737
  808TIP3   OH223914   2.061   5.072  14.477 -0.2413 -0.2475 -0.0860
  808TIP3    H123915   2.124   5.116  14.534 -0.5130 -0.2116  0.1899
  808TIP3    H223916   2.104   4.990  14.452  0.3539  0.2714 -0.7771
  809TIP3   OH223917   3.344   5.260   3.713 -0.1776  0.0196  0.4077
  809TIP3    H123918   3.427   5.226   3.747  0.4186 -0.9650 -1.8313
  809TIP3    H223919   3.368   5.304   3.632 -1.4090  2.9880  1.5099
  810TIP3   OH223920   4.449   3.642  17.314 -0.3834  0.3074  0.2065
  810TIP3    H123921   4.446   3.731  17.278 -1.3007  0.6078  1.0034
  810TIP3    H223922   4.464   3.654  17.408 -0.6871 -0.3762  0.3459
  811TIP3   OH223923   3.298   6.172  11.986 -0.9394 -0.2004 -0.4015
  811TIP3    H123924   3.368   6.109  12.004  0.9705  1.9475  0.3210
  811TIP3    H223925   3.243   6.171  12.065 -1.6421 -1.7540 -0.8850
  812TIP3   OH223926   0.667   4.314  14.287  0.0068  0.0455 -0.0207
  812TIP3    H123927   0.667   4.407  14.310  0.2699  0.3944 -1.3449
  812TIP3    H223928   0.755   4.298  14.253 -0.2159 -0.5472 -0.3365
  813TIP3   OH223929   0.686   4.476  13.213  0.7620  0.2893  0.5265
  813TIP3    H123930   0.695   4.381  13.220  0.3638  0.2536  0.5794
  813TIP3    H223931   0.619   4.499  13.276  0.1273  0.4797 -0.1959
  814TIP3   OH223932   1.155   5.236  10.540 -0.5521 -0.3438 -0.5546
  814TIP3    H123933   1.158   5.332  10.547 -0.9619 -0.1337 -2.6767
  814TIP3    H223934   1.064   5.214  10.559 -0.3454 -0.3780  0.4351
  815TIP3   OH223935   2.212   5.596   5.278 -0.0455  0.7573 -0.4991
  815TIP3    H123936   2.251   5.679   5.249  1.5986  0.1081 -0.2925
  815TIP3    H223937   2.225   5.596   5.373  1.3326 -0.3500 -0.6526
  816TIP3   OH223938   3.231   2.309  15.426  0.1464 -0.3279 -0.3521
  816TIP3    H123939   3.194   2.235  15.475  1.6562  0.3585  2.0058
  816TIP3    H223940   3.156   2.352  15.386 -0.9621 -2.0583 -0.2316
  817TIP3   OH223941   0.249   5.260   4.833 -0.2525  0.4704  0.7032
  817TIP3    H123942   0.295   5.288   4.912 -0.8578 -0.8009  1.5345
  817TIP3    H223943   0.299   5.298   4.762 -0.6866  3.1749  1.7114
  818TIP3   OH223944   5.286   5.483  14.068  0.5065 -0.6269  0.6994
  818TIP3    H123945   5.209   5.515  14.021  1.5655  0.3208 -0.4429
  818TIP3    H223946   5.278   5.522  14.156 -0.9160 -1.5233  0.9964
  819TIP3   OH223947   5.212   2.754   5.581 -0.4084 -0.0810 -1.0462
  819TIP3    H123948   5.188   2.812   5.653 -0.3832 -1.5954  0.2357
  819TIP3    H223949   5.154   2.678   5.591  2.1875 -2.1417 -0.1380
  820TIP3   OH223950   5.717   5.143  13.867 -0.3231  0.0531  0.0101
  820TIP3    H123951   5.644   5.099  13.822  0.2773 -0.5276 -0.4264
  820TIP3    H223952   5.696   5.135  13.960 -0.3299 -1.0060 -0.0663
  821TIP3   OH223953   1.643   1.229   6.442  0.1597  0.9473 -0.3168
  821TIP3    H123954   1.571   1.167   6.456  0.8628  0.3667  0.8675
  821TIP3    H223955   1.611   1.287   6.373 -1.0781  0.1399 -0.4632
  822TIP3   OH223956   3.561   3.901   4.711  0.1900  0.3524 -0.2109
  822TIP3    H123957   3.539   3.813   4.742  0.0307  0.2648 -0.5582
  822TIP3    H223958   3.492   3.957   4.746  0.0160  0.2561 -0.3956
  823TIP3   OH223959   6.606   6.446   2.649  0.0871 -0.8310 -0.2535
  823TIP3    H123960   6.616   6.486   2.736  0.1066  0.6658 -0.9052
  823TIP3    H223961   6.513   6.426   2.642 -0.0608 -0.2103 -0.1708
  824TIP3   OH223962   0.603   2.283  12.855 -0.0386 -0.4675 -0.1122
  824TIP3    H123963   0.649   2.216  12.803  0.9021  1.2273 -1.5810
  824TIP3    H223964   0.510   2.265  12.839  0.2025  0.2385 -2.8813
  825TIP3   OH223965   3.250   5.345   1.018  0.0531 -0.0167  0.4596
  825TIP3    H123966   3.335   5.382   0.996  0.7498 -1.0503  1.2976
  825TIP3    H223967   3.235   5.370   1.108 -0.0025 -0.7575  0.6675
  826TIP3   OH223968   2.389   4.766   4.341  0.2782 -0.0611  0.1150
  826TIP3    H123969   2.350   4.846   4.306  1.2237  0.2435 -0.2668
  826TIP3    H223970   2.408   4.712   4.264 -2.4133 -1.6702  0.4671
  827TIP3   OH223971   1.256   4.441  16.494  0.7307  0.0653 -0.4417
  827TIP3    H123972   1.184   4.407  16.441  0.2731  0.8993 -0.3679
  827TIP3    H223973   1.237   4.534  16.504  1.7454  0.2677 -0.2934
  828TIP3   OH223974   3.395   0.986  16.723  0.0489 -0.3920 -0.1448
  828TIP3    H123975   3.427   0.906  16.681 -2.3545 -0.7847 -1.4173
  828TIP3    H223976   3.387   1.050  16.652 -0.6640  0.0915  0.3478
  829TIP3   OH223977   6.344   0.914  13.117  0.0433 -0.2994 -0.1625
  829TIP3    H123978   6.386   0.961  13.045  0.5505  0.2809  0.4954
  829TIP3    H223979   6.354   0.822  13.095 -0.2479 -0.1228 -1.0784
  830TIP3   OH223980   0.510   5.672  14.872 -0.5696  0.3619 -0.0136
  830TIP3    H123981   0.474   5.592  14.833  0.3896 -0.7871  1.3428
  830TIP3    H223982   0.542   5.644  14.957  0.3674  2.0841  0.2341
  831TIP3   OH223983   4.930   5.161  14.947  0.0033 -0.5006 -0.4031
  831TIP3    H123984   4.925   5.253  14.920 -1.3452 -0.6081 -0.5997
  831TIP3    H223985   5.022   5.147  14.967  0.0715  1.1991  0.6917
  832TIP3   OH223986   1.334   6.327  10.981  0.2448 -0.1878 -0.0239
  832TIP3    H123987   1.376   6.254  10.935  0.8182  0.6569 -0.8734
  832TIP3    H223988   1.392   6.346  11.054 -1.1133 -2.1181  1.6799
  833TIP3   OH223989   0.217   1.437  16.584 -0.4250  0.0499 -0.5497
  833TIP3    H123990   0.132   1.408  16.619 -0.8758  0.2718 -1.4199
  833TIP3    H223991   0.198   1.520  16.541 -0.2487 -0.9317 -2.6690
  834TIP3   OH223992   5.603   2.831  17.378 -0.1913  0.3182  0.4898
  834TIP3    H123993   5.626   2.749  17.422  2.5167  0.2158 -0.9462
  834TIP3    H223994   5.598   2.808  17.286 -0.1126  1.6327  0.1361
  835TIP3   OH223995   3.224   1.735  12.463 -0.3461  0.0854 -0.5086
  835TIP3    H123996   3.309   1.713  12.424 -0.3935 -2.2717  0.5887
  835TIP3    H223997   3.166   1.748  12.388  0.9729  1.9879 -1.2909
  836TIP3   OH223998   1.294   3.590  14.142  0.0760  0.0487 -0.0017
  836TIP3    H123999   1.373   3.641  14.126  0.3084 -0.8489 -1.9678
  836TIP3    H224000   1.232   3.654  14.177  0.8369  1.3679 -0.9562
  837TIP3   OH224001   5.518   4.876   1.292  0.3482  0.3751 -0.2625
  837TIP3    H124002   5.470   4.957   1.312 -0.3909  0.1315 -0.9823
  837TIP3    H224003   5.450   4.814   1.265  1.0172 -0.1558 -0.7600
  838TIP3   OH224004   3.634   2.759   0.583 -0.1787 -0.1535 -0.1304
  838TIP3    H124005   3.686   2.827   0.539 -1.5824  0.6845 -0.5394
  838TIP3    H224006   3.582   2.806   0.648 -0.0272 -1.0627  0.6847
  839TIP3   OH224007   1.725   0.657   1.745  0.3999  0.7074  0.1963
  839TIP3    H124008   1.649   0.690   1.697  1.2730  0.4179 -1.4910
  839TIP3    H224009   1.757   0.584   1.691  1.5697  0.4974  1.1368
  840TIP3   OH224010   1.983   0.368  11.608 -0.3661 -0.1197  0.8083
  840TIP3    H124011   1.939   0.322  11.679  0.0749 -0.7652  0.6679
  840TIP3    H224012   1.970   0.313  11.531 -1.6206  1.0186  0.1749
  841TIP3   OH224013   0.342   3.348  11.900 -0.2311  0.3779  0.7729
  841TIP3    H124014   0.300   3.384  11.821 -0.0380 -0.3848  0.3123
  841TIP3    H224015   0.400   3.280  11.867  1.7657  1.7339  1.3593
  842TIP3   OH224016   5.830   0.319   4.797 -0.0873 -0.2390 -0.0997
  842TIP3    H124017   5.834   0.409   4.765 -2.2507  0.1524  0.5612
  842TIP3    H224018   5.773   0.274   4.735 -0.2920 -0.7366  0.4358
  843TIP3   OH224019   6.492   6.389  10.938 -0.5455 -0.8179 -0.2868
  843TIP3    H124020   6.473   6.481  10.957 -0.9112 -1.1352  1.0141
  843TIP3    H224021   6.407   6.352  10.914 -0.2045 -0.5801 -1.9678
  844TIP3   OH224022   3.009   5.023   6.375  0.2113  0.0385 -0.0865
  844TIP3    H124023   3.025   5.085   6.445 -0.8287  3.0640 -2.3251
  844TIP3    H224024   2.920   4.992   6.390 -0.2873  1.2623 -0.4594
  845TIP3   OH224025   0.430   5.922   1.876 -0.0140  0.3402 -0.0376
  845TIP3    H124026   0.409   5.903   1.967  0.5965 -1.7962 -0.3011
  845TIP3    H224027   0.473   5.843   1.844  0.9529  1.5271 -1.8255
  846TIP3   OH224028   0.594   4.951   1.727 -0.2743 -0.0915 -0.1496
  846TIP3    H124029   0.628   4.993   1.806  0.6785 -0.4326 -0.3666
  846TIP3    H224030   0.502   4.933   1.747 -0.0175 -0.2892  0.9353
  847TIP3   OH224031   2.244   2.303   2.833 -0.3837  0.1159  0.0737
  847TIP3    H124032   2.164   2.353   2.847  0.0535  1.5158 -1.8965
  847TIP3    H224033   2.227   2.251   2.754  0.0703 -0.8983  0.6207
  848TIP3   OH224034   0.440   1.714   3.061  0.2554 -0.1107 -0.7475
  848TIP3    H124035   0.387   1.657   3.007  1.8116 -0.0272 -2.4674
  848TIP3    H224036   0.530   1.688   3.043  0.9691  2.0686 -0.6812
  849TIP3   OH224037   0.338   3.735  15.003 -0.6212 -0.0810  0.4141
  849TIP3    H124038   0.264   3.711  14.947  0.4893  0.3551 -1.3179
  849TIP3    H224039   0.411   3.685  14.968  0.4612  1.4297  0.4257
  850TIP3   OH224040   0.193   3.171  14.661  0.4828 -0.1728  0.2214
  850TIP3    H124041   0.254   3.135  14.726  0.7864  0.7088  0.4452
  850TIP3    H224042   0.184   3.103  14.595  0.2017 -1.0760  1.1694
  851TIP3   OH224043   2.830   5.106   0.166 -0.6896  0.5217 -0.6343
  851TIP3    H124044   2.806   5.139   0.252  1.1625 -0.1224  0.1843
  851TIP3    H224045   2.838   5.011   0.179 -0.1380  0.4512 -1.4473
  852TIP3   OH224046   1.723   5.740  16.407  0.3426  0.2151 -0.1561
  852TIP3    H124047   1.734   5.829  16.440  2.0254  0.4020 -1.1323
  852TIP3    H224048   1.659   5.700  16.467 -0.4445  2.0493  0.2929
  853TIP3   OH224049   5.581   5.143  13.203 -0.1271 -0.6508 -0.6522
  853TIP3    H124050   5.666   5.132  13.246  0.8682  1.9860 -1.7332
  853TIP3    H224051   5.601   5.135  13.109 -0.9807  0.3826 -0.9380
  854TIP3   OH224052   6.518   5.785  11.137 -0.0524 -0.0305 -1.0850
  854TIP3    H124053   6.436   5.757  11.095  1.0691 -1.6093 -2.3421
  854TIP3    H224054   6.511   5.755  11.227 -1.5248  1.3522 -0.6781
  855TIP3   OH224055   4.245   4.728  14.082 -0.1325  0.0060 -0.0661
  855TIP3    H124056   4.254   4.764  13.993  0.5340 -1.8698 -0.8094
  855TIP3    H224057   4.152   4.704  14.088 -0.0971 -0.2443 -0.4298
  856TIP3   OH224058   0.946   2.435   2.158  0.1170  0.0808 -0.3002
  856TIP3    H124059   0.942   2.348   2.119  0.8294  0.1083 -0.4585
  856TIP3    H224060   1.039   2.447   2.179  0.2980  1.4410 -1.7334
  857TIP3   OH224061   2.904   6.203   6.530  0.0920 -0.3271 -0.4572
  857TIP3    H124062   2.965   6.130   6.539  0.0965 -0.1074  2.2780
  857TIP3    H224063   2.952   6.278   6.565 -0.7888  0.4405 -0.8606
  858TIP3   OH224064   4.974   3.928  12.654  0.3789 -0.0842 -0.1315
  858TIP3    H124065   5.020   3.932  12.737  0.0606  1.0235  0.0027
  858TIP3    H224066   5.002   4.006  12.606 -0.2918 -0.1174 -0.6048
  859TIP3   OH224067   6.586   0.192  17.060 -0.7807  0.4118 -0.2030
  859TIP3    H124068   6.592   0.113  17.007 -0.1832  1.1102 -1.1986
  859TIP3    H224069   6.492   0.203  17.077 -1.2699  1.3046 -2.9074
  860TIP3   OH224070   3.930   1.108   3.700  0.1176  0.0527 -0.1249
  860TIP3    H124071   3.899   1.018   3.706 -0.5303  0.3370  1.1411
  860TIP3    H224072   3.974   1.113   3.615 -0.8423 -1.1449 -0.7182
  861TIP3   OH224073   0.273   0.864   2.788  0.6388 -0.9824  0.0761
  861TIP3    H124074   0.190   0.904   2.764  0.9329 -0.2832  0.1800
  861TIP3    H224075   0.319   0.852   2.704  0.9429 -0.1852  0.1170
  862TIP3   OH224076   0.278   1.921   5.448 -0.6012 -0.4992 -1.0592
  862TIP3    H124077   0.244   1.838   5.482 -2.1876  0.1059 -1.0433
  862TIP3    H224078   0.208   1.954   5.392 -0.8698  1.7344  0.4325
  863TIP3   OH224079   2.152   2.854   4.170 -0.0279  0.3477  0.2358
  863TIP3    H124080   2.117   2.914   4.236 -1.1284 -0.0403  0.0245
  863TIP3    H224081   2.099   2.775   4.178 -0.5529  0.4770 -1.4363
  864TIP3   OH224082   5.280   0.403   6.257  0.0851 -0.2424 -0.2210
  864TIP3    H124083   5.320   0.316   6.262 -0.6538 -0.5522  0.6394
  864TIP3    H224084   5.186   0.386   6.248 -0.4471  0.3792  2.9673
  865TIP3   OH224085   0.817   0.084  14.436  0.0757 -0.2313 -0.3257
  865TIP3    H124086   0.801  -0.008  14.458 -0.4791  0.0474  0.4431
  865TIP3    H224087   0.903   0.103  14.475  1.3163 -1.0557 -2.4612
  866TIP3   OH224088   2.372   1.974  11.455  1.3494  1.1355 -0.1560
  866TIP3    H124089   2.452   2.026  11.463  2.6249 -0.5393 -1.2828
  866TIP3    H224090   2.400   1.893  11.412 -0.3758 -0.8113  2.0953
  867TIP3   OH224091   0.089   3.403   0.826 -0.2472  0.4511  0.1226
  867TIP3    H124092   0.152   3.365   0.764 -1.5698 -1.6239 -0.0361
  867TIP3    H224093   0.098   3.349   0.904 -0.8560  1.0378  0.6076
  868TIP3   OH224094   5.648   5.124  12.939  0.5856 -0.3162  0.1014
  868TIP3    H124095   5.647   5.206  12.889 -1.5570 -0.5501 -0.3506
  868TIP3    H224096   5.681   5.059  12.877 -1.2049 -0.4323 -0.8029
  869TIP3   OH224097   4.509   3.055   5.554  0.1349  0.0723  0.0545
  869TIP3    H124098   4.493   3.022   5.643 -0.6150 -0.4331 -0.2599
  869TIP3    H224099   4.544   2.980   5.506  0.0592  0.2075 -0.2141
  870TIP3   OH224100   4.571   3.820   1.206  0.4536  0.7891 -0.1870
  870TIP3    H124101   4.487   3.784   1.178  0.3442  1.7977 -1.2743
  870TIP3    H224102   4.633   3.786   1.142  0.8649  0.1512  0.5392
  871TIP3   OH224103   4.280   4.941  15.347 -0.4952 -0.2022 -0.1574
  871TIP3    H124104   4.267   4.856  15.388  0.7530 -0.3358  0.0241
  871TIP3    H224105   4.249   5.005  15.411  0.3937 -0.4541  0.5506
  872TIP3   OH224106   4.331   0.152  17.420 -0.5676 -0.2149  0.7388
  872TIP3    H124107   4.275   0.213  17.371 -1.3102 -1.2561  0.2543
  872TIP3    H224108   4.394   0.209  17.464  0.3466  0.7826 -1.6496
  873TIP3   OH224109   3.941   4.575   2.899  0.5151 -0.5162  0.0735
  873TIP3    H124110   3.864   4.582   2.957  0.0980 -0.0227 -0.5192
  873TIP3    H224111   4.013   4.551   2.957 -0.1964 -1.5602  0.5572
  874TIP3   OH224112   2.819   4.921  13.328 -0.3602  0.3244  0.6038
  874TIP3    H124113   2.891   4.859  13.312 -1.7709 -1.5025  1.0194
  874TIP3    H224114   2.772   4.925  13.245 -1.6437 -1.0776  1.2093
  875TIP3   OH224115   3.081   2.933  14.567 -0.2817 -0.6401 -0.6170
  875TIP3    H124116   3.021   2.962  14.499 -2.4299 -0.6778  1.1388
  875TIP3    H224117   3.042   2.851  14.599  1.4113 -1.3346 -0.2435
  876TIP3   OH224118   3.905   4.314   3.270 -0.3283  0.4387 -0.1350
  876TIP3    H124119   3.990   4.355   3.287  1.1161 -2.7406  1.1116
  876TIP3    H224120   3.896   4.314   3.175  1.9098 -0.5482 -0.4178
  877TIP3   OH224121   5.349   4.260  13.847  0.2970 -0.3579  0.4190
  877TIP3    H124122   5.387   4.176  13.820 -0.0135 -0.1969 -0.5593
  877TIP3    H224123   5.292   4.284  13.774 -1.0515 -0.2016  1.4870
  878TIP3   OH224124   4.379   2.529   5.468 -0.0974 -0.0980 -0.3888
  878TIP3    H124125   4.346   2.596   5.408 -1.7277 -0.0045  0.5302
  878TIP3    H224126   4.335   2.548   5.551  0.4550 -1.4910  0.2568
  879TIP3   OH224127   2.309   5.590   6.451 -0.0236 -0.3523 -0.6060
  879TIP3    H124128   2.360   5.511   6.433 -0.2043 -0.4081 -0.8775
  879TIP3    H224129   2.242   5.562   6.514  0.8207 -0.0793  0.4480
  880TIP3   OH224130   5.794   4.588   4.815  1.0266 -0.7101  0.0131
  880TIP3    H124131   5.889   4.580   4.826  1.3552 -1.7102 -2.5978
  880TIP3    H224132   5.763   4.498   4.812  0.0179 -0.3926  0.5653
  881TIP3   OH224133   2.612   4.096  13.604 -0.9274 -0.3674  0.2367
  881TIP3    H124134   2.585   4.166  13.544  0.5012 -0.4332 -0.5215
  881TIP3    H224135   2.692   4.130  13.645 -1.5971 -0.5481  1.7351
  882TIP3   OH224136   5.066   1.823  10.959  0.8998 -0.2212 -0.2250
  882TIP3    H124137   5.032   1.854  10.875  2.1724 -1.2268 -1.1442
  882TIP3    H224138   5.028   1.883  11.024 -1.9155 -0.7624 -1.2331
  883TIP3   OH224139   2.676   3.050   2.645 -0.4121 -0.0005 -0.1441
  883TIP3    H124140   2.756   3.027   2.692 -0.6069 -0.7747 -0.1676
  883TIP3    H224141   2.606   3.026   2.705 -0.6582 -0.8746 -0.7651
  884TIP3   OH224142   6.178   2.267   3.485  0.5939 -0.1371  0.6712
  884TIP3    H124143   6.151   2.196   3.543 -0.6599 -0.9312 -0.8273
  884TIP3    H224144   6.259   2.235   3.445  1.1716  0.1926  1.5280
  885TIP3   OH224145   0.696   4.080   1.335 -0.0147  0.0477 -0.6322
  885TIP3    H124146   0.690   4.173   1.357 -0.0407  0.3424 -1.8143
  885TIP3    H224147   0.695   4.036   1.419 -3.4555  0.8912 -0.0639
  886TIP3   OH224148   5.335   2.844  12.110 -0.0818 -0.2845 -0.2437
  886TIP3    H124149   5.293   2.928  12.131 -2.7518 -1.6837  0.5180
  886TIP3    H224150   5.304   2.823  12.022  0.8001 -0.3680 -0.5438
  887TIP3   OH224151   5.928   1.424   6.434 -0.0431  0.5715  0.0675
  887TIP3    H124152   5.851   1.366   6.433 -0.5477  1.2232  0.2119
  887TIP3    H224153   5.989   1.381   6.494  0.8252 -1.3232 -2.0089
  888TIP3   OH224154   3.345   2.160  12.080  0.0748  0.2022  0.5949
  888TIP3    H124155   3.321   2.218  12.008  0.4451 -2.1189 -1.5732
  888TIP3    H224156   3.441   2.155  12.076  0.0296 -0.8788  0.4100
  889TIP3   OH224157   0.184   3.944  10.697  0.3735  0.2316 -0.4876
  889TIP3    H124158   0.251   4.004  10.729 -0.7358  1.7641 -0.8785
  889TIP3    H224159   0.117   4.001  10.659 -2.1570 -0.9970  1.6792
  890TIP3   OH224160   5.546   5.901   0.108  0.2720  0.3816 -0.1723
  890TIP3    H124161   5.623   5.856   0.141 -0.4959 -0.8628 -0.0295
  890TIP3    H224162   5.500   5.836   0.055  0.7709  1.8926 -2.6777
  891TIP3   OH224163   6.289   4.317   1.763  0.2213 -0.2506  0.0262
  891TIP3    H124164   6.209   4.298   1.713 -0.8115  1.3970  0.9661
  891TIP3    H224165   6.300   4.412   1.755 -0.2315  0.1578  3.1883
  892TIP3   OH224166   1.194   2.599  13.456  0.4003  0.3710  0.6033
  892TIP3    H124167   1.128   2.624  13.521  0.0380 -0.5073  0.5827
  892TIP3    H224168   1.200   2.504  13.463  1.1818  0.3739  0.1306
  893TIP3   OH224169   1.129   1.202  13.761 -0.2414 -0.4054  0.2261
  893TIP3    H124170   1.152   1.293  13.740 -3.0955 -0.1036 -2.3843
  893TIP3    H224171   1.208   1.166  13.800  1.3307  2.9169  0.4986
  894TIP3   OH224172   0.893   5.537   2.683 -0.2337  0.4125  0.3991
  894TIP3    H124173   0.918   5.533   2.590  1.6203 -0.3245  0.8856
  894TIP3    H224174   0.888   5.630   2.703  0.5231  0.5908 -0.1788
  895TIP3   OH224175   4.712   1.502  16.346  0.0006 -0.0108 -0.3038
  895TIP3    H124176   4.710   1.543  16.433  0.9103 -2.1337  0.8132
  895TIP3    H224177   4.648   1.551  16.295 -1.7656  0.3282  2.0444
  896TIP3   OH224178   1.125   6.345  15.266 -0.0798  0.7174 -0.2136
  896TIP3    H124179   1.081   6.383  15.342  1.9018 -0.6928  1.7814
  896TIP3    H224180   1.216   6.376  15.274  0.5275 -0.7508 -1.0886
  897TIP3   OH224181   5.664   2.118  16.734 -0.4017  0.3047  0.2301
  897TIP3    H124182   5.709   2.200  16.749  1.7711 -0.6376 -0.7197
  897TIP3    H224183   5.694   2.060  16.803 -1.5580  0.1413  0.6249
  898TIP3   OH224184   1.108   1.097   6.014 -0.2454  0.0499 -0.1695
  898TIP3    H124185   1.068   1.175   5.974 -0.3939 -0.1022 -0.3158
  898TIP3    H224186   1.044   1.067   6.077 -1.0489 -1.1012 -1.4882
  899TIP3   OH224187   1.021   4.955   0.562  0.3706 -0.3146  0.1240
  899TIP3    H124188   0.992   4.986   0.648 -0.0556 -0.5444  0.0637
  899TIP3    H224189   1.040   5.035   0.513 -0.2233 -0.1630  0.1409
  900TIP3   OH224190   1.157   2.319  13.086  0.7829  0.2378  0.3084
  900TIP3    H124191   1.149   2.319  12.991  0.7980  2.6437  0.2656
  900TIP3    H224192   1.227   2.256  13.103  0.9232 -0.0868 -1.2736
  901TIP3   OH224193   2.685   6.597   3.119  0.4187 -0.6200  0.1472
  901TIP3    H124194   2.726   6.629   3.199  0.4062 -1.7146  0.6180
  901TIP3    H224195   2.660   6.676   3.071 -0.1718  0.0633  1.5228
  902TIP3   OH224196   4.882   2.277   1.943  0.2386  0.5397  0.9022
  902TIP3    H124197   4.941   2.202   1.935 -0.2326  0.3313 -1.3722
  902TIP3    H224198   4.798   2.244   1.911 -0.2106  1.7657  0.7787
  903TIP3   OH224199   3.531   4.759   6.450  0.2497 -0.1642 -0.0643
  903TIP3    H124200   3.546   4.709   6.530 -3.1152 -0.6129  0.4179
  903TIP3    H224201   3.469   4.707   6.400 -1.3885  2.2689 -0.7662
  904TIP3   OH224202   5.644   3.435   0.251 -0.6454 -0.1097  0.5648
  904TIP3    H124203   5.561   3.397   0.222 -0.6654  1.3150 -1.4970
  904TIP3    H224204   5.685   3.466   0.170 -0.0155  2.9075  1.9047
  905TIP3   OH224205   3.468   0.218   5.233  0.5977  0.0852  0.0385
  905TIP3    H124206   3.473   0.310   5.207 -1.8432  0.6308  1.2250
  905TIP3    H224207   3.430   0.220   5.321 -2.9256 -2.1151 -1.2233
  906TIP3   OH224208   3.515   1.465  16.108  0.5085  0.3401  0.0385
  906TIP3    H124209   3.580   1.531  16.135  1.2036 -0.2420 -0.1774
  906TIP3    H224210   3.478   1.500  16.027  0.6794  0.5965  0.0684
  907TIP3   OH224211   2.036   0.662   4.653 -0.1016 -0.2516 -0.2650
  907TIP3    H124212   2.131   0.664   4.638 -0.0813  0.7739 -0.0591
  907TIP3    H224213   2.028   0.631   4.744  0.1103  1.0099  0.2015
  908TIP3   OH224214   1.181   1.762   2.115  0.3461 -0.3020  0.2530
  908TIP3    H124215   1.259   1.754   2.059  0.4342 -0.1073  0.3482
  908TIP3    H224216   1.191   1.693   2.180  0.5101 -0.1887  0.3498
  909TIP3   OH224217   4.151   3.785  15.945 -1.0796 -0.1386 -0.2005
  909TIP3    H124218   4.162   3.878  15.966 -1.5833 -0.1916  0.3468
  909TIP3    H224219   4.203   3.740  16.011 -0.8049 -0.2439 -0.4913
  910TIP3   OH224220   5.033   0.059  11.590  0.3636 -0.0963  0.3633
  910TIP3    H124221   5.115   0.012  11.605  0.2029 -0.0250  1.6123
  910TIP3    H224222   4.989   0.009  11.522  1.6134  0.1044 -0.6442
  911TIP3   OH224223   6.243   1.245   6.211 -0.1501  0.1856 -0.3494
  911TIP3    H124224   6.178   1.179   6.234 -0.2417  0.2372 -0.4593
  911TIP3    H224225   6.192   1.324   6.194 -0.0104  0.3927  0.1675
  912TIP3   OH224226   3.861   2.201  16.420  0.0672 -0.2268  0.1795
  912TIP3    H124227   3.863   2.272  16.356  0.0416  1.2420  1.7387
  912TIP3    H224228   3.950   2.164  16.417 -0.2700 -1.0209 -1.5263
  913TIP3   OH224229   2.699   4.431  17.385 -0.3354 -0.1849  0.5407
  913TIP3    H124230   2.720   4.338  17.386  0.1684 -0.0744  1.5014
  913TIP3    H224231   2.688   4.452  17.292 -1.0863 -1.3291  0.3525
  914TIP3   OH224232   0.149   6.056   2.393  0.1205 -0.1515  0.0742
  914TIP3    H124233   0.173   5.994   2.325 -1.3575  0.2789 -0.8912
  914TIP3    H224234   0.180   6.140   2.361  3.4058 -0.4460  2.0267
  915TIP3   OH224235   6.219   4.933  11.746  0.0819  0.2412 -0.2117
  915TIP3    H124236   6.304   4.904  11.713 -0.3886 -0.4220 -0.8783
  915TIP3    H224237   6.239   4.981  11.826  1.0602 -0.1210 -0.2295
  916TIP3   OH224238   5.287   3.705  15.136  0.1282 -0.1972  0.0122
  916TIP3    H124239   5.352   3.685  15.203  0.6368 -1.3942 -0.7869
  916TIP3    H224240   5.237   3.623  15.126 -1.3138  0.6066  0.3925
  917TIP3   OH224241   1.423   0.572   0.828  1.0840 -0.0045  0.5325
  917TIP3    H124242   1.412   0.648   0.885 -0.6493 -1.1851  1.8714
  917TIP3    H224243   1.455   0.503   0.886  0.4870 -0.8947 -0.1720
  918TIP3   OH224244   5.200   5.469   4.079 -0.4125 -0.4880  0.3503
  918TIP3    H124245   5.226   5.488   3.989  1.5644 -2.8666  0.2966
  918TIP3    H224246   5.263   5.515   4.134  0.6031 -1.8666  0.3790
  919TIP3   OH224247   0.719   0.891  14.838 -0.6899  0.1863 -0.1433
  919TIP3    H124248   0.691   0.970  14.792  0.0972  0.1321 -0.7333
  919TIP3    H224249   0.652   0.826  14.817 -0.7685  0.3943 -0.5453
  920TIP3   OH224250   4.240   3.726   3.299  0.0198  0.2849 -0.8002
  920TIP3    H124251   4.156   3.746   3.340  0.3246  1.3083 -0.6448
  920TIP3    H224252   4.303   3.731   3.371  0.5227  1.8050 -1.3195
  921TIP3   OH224253   5.889   3.557   5.696  0.4909 -0.2425  0.6836
  921TIP3    H124254   5.944   3.583   5.622  1.0799  0.4499  1.3391
  921TIP3    H224255   5.825   3.497   5.659  1.5757 -0.9220 -0.1498
  922TIP3   OH224256   1.270   3.463  17.015 -0.0263  0.5935  0.3820
  922TIP3    H124257   1.340   3.527  16.999  1.4931 -1.5523 -2.5829
  922TIP3    H224258   1.191   3.505  16.980  0.8683  1.0589 -1.2018
  923TIP3   OH224259   2.835   2.678  13.416 -0.3177 -0.3142  0.1183
  923TIP3    H124260   2.888   2.666  13.495 -0.0398 -2.3879 -0.3051
  923TIP3    H224261   2.899   2.700  13.347 -0.5647  1.5371  0.4346
  924TIP3   OH224262   3.819   2.516  14.674 -0.3006 -0.2177  0.4742
  924TIP3    H124263   3.901   2.530  14.721  1.0467 -1.2877 -1.4184
  924TIP3    H224264   3.810   2.421  14.668 -1.5513 -0.1184  0.4103
  925TIP3   OH224265   0.476   5.165  16.467 -0.2947 -0.8811  0.2454
  925TIP3    H124266   0.401   5.220  16.487 -0.0797 -0.6131  0.3180
  925TIP3    H224267   0.513   5.142  16.552 -0.9704 -1.9645  0.2627
  926TIP3   OH224268   0.379   2.901  12.909  0.3809 -0.0511  0.1284
  926TIP3    H124269   0.305   2.868  12.859  0.2544  1.3885 -0.6935
  926TIP3    H224270   0.379   2.849  12.989 -2.4911  0.9604  0.8922
  927TIP3   OH224271   4.259   4.140   6.646  0.1574 -0.3696  0.2671
  927TIP3    H124272   4.257   4.223   6.598  0.3763 -0.4295  0.1543
  927TIP3    H224273   4.200   4.083   6.597 -0.1907 -0.2047  0.4868
  928TIP3   OH224274   3.922   4.607   4.443 -0.1529 -0.0507 -0.5950
  928TIP3    H124275   3.998   4.579   4.393 -1.0465  0.1393 -2.1534
  928TIP3    H224276   3.854   4.544   4.420 -0.9218  0.7370 -0.5620
  929TIP3   OH224277   6.479   3.587   5.868  0.1604 -0.8166 -0.1541
  929TIP3    H124278   6.493   3.533   5.790  0.6322  0.2101 -0.8075
  929TIP3    H224279   6.492   3.527   5.941 -2.1915 -2.2811 -0.8325
  930TIP3   OH224280   4.557   0.157  13.780  0.0242  0.4369  0.1575
  930TIP3    H124281   4.554   0.065  13.803 -2.0889  0.6104  0.7664
  930TIP3    H224282   4.490   0.198  13.835  0.3108  2.1847 -0.7212
  931TIP3   OH224283   5.939   1.529  14.359  0.5864  0.1554  0.5026
  931TIP3    H124284   5.933   1.617  14.322 -1.2810  0.7433  2.0558
  931TIP3    H224285   5.943   1.472  14.282 -3.6647  1.2662 -0.8312
  932TIP3   OH224286   0.749   5.458  17.279  0.0789  0.4310 -0.0028
  932TIP3    H124287   0.782   5.544  17.252 -1.1679  0.3935 -1.8069
  932TIP3    H224288   0.813   5.396  17.244 -0.0048  0.5332 -0.3415
  933TIP3   OH224289   4.307   1.433  15.821  0.0547  0.0950  0.0991
  933TIP3    H124290   4.284   1.502  15.759 -1.1291 -0.2742  0.1116
  933TIP3    H224291   4.266   1.459  15.903  1.2850  0.3757  0.6440
  934TIP3   OH224292   3.302   5.086  15.396 -0.4118  0.0305  0.4512
  934TIP3    H124293   3.326   5.152  15.462  0.0015  0.6269 -0.2788
  934TIP3    H224294   3.243   5.132  15.337  0.0043 -0.2091 -0.1541
  935TIP3   OH224295   5.272   0.760   5.343  0.5246 -0.4351  0.2933
  935TIP3    H124296   5.326   0.812   5.403  1.7642  0.4027 -1.4626
  935TIP3    H224297   5.218   0.706   5.401 -0.2790  2.1993  2.2209
  936TIP3   OH224298   2.054   1.752   3.123  0.1486 -0.2632  0.1703
  936TIP3    H124299   1.988   1.737   3.190 -1.6938  1.1989 -1.2228
  936TIP3    H224300   2.137   1.727   3.165 -1.1742 -1.5593  2.1743
  937TIP3   OH224301   0.294   1.133  13.771 -0.0353  0.0038  0.4697
  937TIP3    H124302   0.261   1.104  13.856  2.2940 -0.6801  1.2073
  937TIP3    H224303   0.366   1.072  13.751 -0.1661  0.4911 -1.7371
  938TIP3   OH224304   5.362   4.619  14.287 -0.4651 -0.0975 -0.0864
  938TIP3    H124305   5.384   4.565  14.211 -0.9766  0.8406 -0.9238
  938TIP3    H224306   5.399   4.705  14.267 -1.1702  0.3361  0.4285
  939TIP3   OH224307   6.545   5.278   6.781 -0.3435 -0.7003  0.3568
  939TIP3    H124308   6.517   5.366   6.754 -0.1783 -1.2118 -1.6941
  939TIP3    H224309   6.496   5.261   6.862 -1.4696  0.7281  0.0244
  940TIP3   OH224310   0.448   0.282   4.652  0.0304 -0.6417 -0.2446
  940TIP3    H124311   0.538   0.315   4.663  0.1299 -0.8671 -0.3608
  940TIP3    H224312   0.398   0.358   4.623  0.6330 -0.9705 -2.2962
  941TIP3   OH224313   0.284   5.311   6.018  0.0992  0.0049  0.0649
  941TIP3    H124314   0.203   5.265   5.994 -0.2032  0.3467  0.4166
  941TIP3    H224315   0.341   5.300   5.942 -0.7753  0.9077 -0.7530
  942TIP3   OH224316   3.141   4.027   3.843 -0.6397  0.3289  0.3709
  942TIP3    H124317   3.215   4.066   3.889 -0.5565  0.1882  0.3569
  942TIP3    H224318   3.083   4.101   3.825 -0.6345  0.3973  0.6293
  943TIP3   OH224319   1.237   1.572   4.968 -0.0016  0.6562 -0.6796
  943TIP3    H124320   1.294   1.539   4.898  0.3205 -0.7287  0.1862
  943TIP3    H224321   1.181   1.637   4.925  1.9718  1.8237 -1.6340
  944TIP3   OH224322   0.736   3.817   2.935  0.1800  0.2530  0.2213
  944TIP3    H124323   0.717   3.748   2.872 -0.7338 -0.1283  0.8856
  944TIP3    H224324   0.819   3.853   2.907  0.6331 -1.0605 -0.2026
  945TIP3   OH224325   3.379   1.252   2.456  0.2146  0.1476  0.5246
  945TIP3    H124326   3.458   1.205   2.429  0.2237 -0.4716  1.5443
  945TIP3    H224327   3.404   1.344   2.459  1.5498 -0.2129  2.8405
  946TIP3   OH224328   6.035   5.752  12.948 -0.0076  0.2032 -0.1360
  946TIP3    H124329   5.980   5.823  12.915  0.4501  0.7336  0.2150
  946TIP3    H224330   6.020   5.752  13.042 -1.1998 -1.2141 -0.2898
  947TIP3   OH224331   5.156   5.661   3.455  0.1314 -0.1424  0.6029
  947TIP3    H124332   5.097   5.650   3.529 -2.7374  1.0079 -1.3248
  947TIP3    H224333   5.145   5.753   3.429  0.6244 -0.6166 -1.5127
  948TIP3   OH224334   5.670   6.585   3.560 -0.4086 -0.1325  0.6769
  948TIP3    H124335   5.753   6.598   3.604  0.3752  0.6064 -0.9262
  948TIP3    H224336   5.652   6.491   3.568  0.4528 -0.2564  1.2503
  949TIP3   OH224337   2.378   1.429  13.005 -0.0672 -0.5110  0.2617
  949TIP3    H124338   2.361   1.520  12.981  0.9901  0.3080  2.3494
  949TIP3    H224339   2.311   1.379  12.960 -2.1446  1.5443  0.8738
  950TIP3   OH224340   0.792   3.698  15.044 -0.3040 -0.3858 -0.0610
  950TIP3    H124341   0.699   3.697  15.065 -0.0446 -3.4585  1.3641
  950TIP3    H224342   0.835   3.655  15.118  2.1781  0.1404 -1.0747
  951TIP3   OH224343   5.237   2.312  13.068  0.8039 -0.0619  0.2403
  951TIP3    H124344   5.317   2.330  13.118  1.1225 -0.3967 -0.1427
  951TIP3    H224345   5.267   2.266  12.991  0.5338  2.0038 -1.1897
  952TIP3   OH224346   0.964   5.145  12.699  0.6848 -0.3222 -0.2837
  952TIP3    H124347   1.014   5.157  12.780 -0.4962 -2.3634  0.8305
  952TIP3    H224348   0.995   5.061  12.664  0.1248 -0.1741 -1.1573
  953TIP3   OH224349   5.882   2.439   0.024 -0.5619  0.2005  0.2707
  953TIP3    H124350   5.883   2.404   0.113  3.1706  0.8960  0.6323
  953TIP3    H224351   5.901   2.363  -0.032 -1.2934  0.0703  0.1871
  954TIP3   OH224352   2.316   6.234  13.405 -0.3169  0.2886 -0.1881
  954TIP3    H124353   2.342   6.299  13.340  0.7046 -0.0287 -0.1206
  954TIP3    H224354   2.334   6.275  13.489 -0.3496  0.1826 -0.1286
  955TIP3   OH224355   6.713   1.789  10.663 -0.1494 -0.4073  0.0980
  955TIP3    H124356   6.692   1.881  10.652 -0.7909 -0.7065 -1.3741
  955TIP3    H224357   6.639   1.742  10.624  0.2718 -1.5417  0.6052
  956TIP3   OH224358   2.385   0.194  15.893 -0.2668 -0.0242 -0.6495
  956TIP3    H124359   2.317   0.194  15.960 -0.2803  1.8990 -0.6092
  956TIP3    H224360   2.428   0.109  15.902 -0.2352  0.1844  1.8414
  957TIP3   OH224361   3.946   0.686  12.154 -0.2449 -0.4496 -0.2518
  957TIP3    H124362   3.885   0.629  12.108  0.0263 -0.5252 -0.5177
  957TIP3    H224363   4.031   0.669  12.113  0.1485 -1.0898  0.7761
  958TIP3   OH224364   4.735   2.152   1.137 -0.3281 -0.0783  0.4268
  958TIP3    H124365   4.692   2.204   1.204  0.1228 -0.7271  1.2416
  958TIP3    H224366   4.709   2.192   1.054 -0.0784  1.3630  1.0236
  959TIP3   OH224367   4.943   3.772  10.793 -0.4988 -0.3544  0.1361
  959TIP3    H124368   4.940   3.855  10.841  1.6550 -0.5289  0.6702
  959TIP3    H224369   4.871   3.720  10.829 -0.0603  0.2064  1.8854
  960TIP3   OH224370   5.853   0.493   1.873  0.0761 -0.1440  0.5355
  960TIP3    H124371   5.932   0.539   1.846  0.6907  0.7849  3.4915
  960TIP3    H224372   5.880   0.401   1.878 -0.0477 -0.3444 -1.6614
  961TIP3   OH224373   0.053   0.561  17.321 -0.2243 -0.3084 -0.2362
  961TIP3    H124374  -0.013   0.609  17.370 -1.0201 -0.6595 -0.9446
  961TIP3    H224375   0.100   0.510  17.388 -1.5870 -1.1344  0.1203
  962TIP3   OH224376   0.429   3.075  16.187 -0.2391  0.4304  0.5286
  962TIP3    H124377   0.426   3.163  16.226 -0.4542 -0.3779  2.4401
  962TIP3    H224378   0.443   3.091  16.094  1.7169  2.4390  1.0755
  963TIP3   OH224379   0.265   6.462  16.189 -0.1906 -0.3530  0.2078
  963TIP3    H124380   0.356   6.453  16.219  0.0703 -1.7333 -0.8688
  963TIP3    H224381   0.245   6.555  16.200  1.8929  0.3010 -0.9826
  964TIP3   OH224382   4.883   3.985   6.504  0.7597  0.0939 -0.8111
  964TIP3    H124383   4.955   4.047   6.514  0.8030  0.2568 -1.9634
  964TIP3    H224384   4.921   3.900   6.525  0.7623  0.4072  0.5337
  965TIP3   OH224385   3.713   6.685   1.097 -0.4272 -0.3231  0.2291
  965TIP3    H124386   3.639   6.734   1.135 -1.5048 -1.4718 -0.3048
  965TIP3    H224387   3.700   6.595   1.128  1.0974 -0.4415  0.5950
  966TIP3   OH224388   0.766   3.858  14.512  0.7854 -0.1292  0.0999
  966TIP3    H124389   0.783   3.951  14.527 -0.7224  0.0752  0.7644
  966TIP3    H224390   0.776   3.847  14.418 -0.3586  1.0356 -0.1925
  967TIP3   OH224391   2.097   2.407   0.920  0.6081 -0.0827  0.7141
  967TIP3    H124392   2.016   2.458   0.915  0.1123 -0.9643 -1.3092
  967TIP3    H224393   2.135   2.431   1.005  0.8594  4.2611 -0.3694
  968TIP3   OH224394   1.248   0.712  12.322 -0.0814 -0.1037  0.8018
  968TIP3    H124395   1.329   0.725  12.273 -1.0542  0.5786 -0.7087
  968TIP3    H224396   1.225   0.799  12.354 -1.5097  0.2354 -0.9770
  969TIP3   OH224397   1.119   0.871   0.757  0.1101 -0.1410 -0.2925
  969TIP3    H124398   1.176   0.944   0.733  1.0417 -1.3363 -1.9379
  969TIP3    H224399   1.153   0.840   0.840  1.0677 -0.0172 -0.6224
  970TIP3   OH224400   5.597   3.271  15.706 -0.0247 -0.2876  0.2231
  970TIP3    H124401   5.614   3.365  15.718  1.5316 -0.6540  1.2472
  970TIP3    H224402   5.650   3.247  15.631 -3.0805  0.2568 -2.3235
  971TIP3   OH224403   6.580   5.745  15.308 -0.1004  0.0294 -0.4064
  971TIP3    H124404   6.591   5.732  15.402 -2.9226  0.3869  0.0571
  971TIP3    H224405   6.551   5.659  15.275 -0.6200  0.3054 -0.6723
  972TIP3   OH224406   0.110   3.726  14.287 -0.5660 -0.1412  0.4628
  972TIP3    H124407   0.115   3.664  14.215 -2.8271  0.8700 -0.6497
  972TIP3    H224408   0.201   3.734  14.317  0.0814 -2.3991 -0.6543
  973TIP3   OH224409   0.981   6.197   0.070  0.1421  0.1528 -0.2947
  973TIP3    H124410   1.064   6.172   0.031 -0.7424 -2.4459 -0.6643
  973TIP3    H224411   0.992   6.178   0.163  0.5149  1.4968 -0.0409
  974TIP3   OH224412   4.487   5.547  12.073  0.2977 -0.3409  0.7967
  974TIP3    H124413   4.448   5.465  12.105 -0.1034 -1.0112 -1.2886
  974TIP3    H224414   4.566   5.519  12.027 -1.1476  0.0705 -2.1660
  975TIP3   OH224415   1.103   2.673   5.451 -0.0188 -0.4952  0.2856
  975TIP3    H124416   1.070   2.730   5.520  1.1906  1.6259 -0.7756
  975TIP3    H224417   1.114   2.588   5.493 -1.6025  0.0795  2.0332
  976TIP3   OH224418   4.360   5.898   2.437 -0.5196  0.0330 -0.6472
  976TIP3    H124419   4.455   5.893   2.426 -0.3013  0.9763  0.5531
  976TIP3    H224420   4.338   5.987   2.411 -0.7395  0.5104  1.0030
  977TIP3   OH224421   2.972   5.587  15.024 -0.5334 -0.3070 -0.0761
  977TIP3    H124422   2.928   5.672  15.019  1.4936  0.8072 -0.0075
  977TIP3    H224423   2.947   5.552  15.110  0.4050  1.3107  0.9073
  978TIP3   OH224424   3.002   6.454   3.456 -0.4908  0.7746 -0.1890
  978TIP3    H124425   3.035   6.495   3.375  0.9045 -2.0053 -1.1380
  978TIP3    H224426   3.038   6.508   3.526 -0.2979  2.2422 -1.3588
  979TIP3   OH224427   0.265   0.259  15.658 -0.4113  0.1904 -0.4584
  979TIP3    H124428   0.213   0.289  15.733 -1.7148 -0.5193 -1.0405
  979TIP3    H224429   0.305   0.338  15.623  2.1102  0.3126  2.2904
  980TIP3   OH224430   0.389   6.265  14.976 -0.0337 -0.5211  0.2124
  980TIP3    H124431   0.431   6.333  15.029 -1.1983  1.9941 -1.8841
  980TIP3    H224432   0.297   6.291  14.972 -0.1196 -0.9319 -2.4205
  981TIP3   OH224433   6.637   2.668  12.609  0.1872  0.2089 -0.6297
  981TIP3    H124434   6.563   2.654  12.550 -1.0392  2.3202  0.2903
  981TIP3    H224435   6.637   2.592  12.666 -0.6629 -0.2835 -1.2630
  982TIP3   OH224436   2.106   1.525  13.127 -0.1559  0.0906  0.4387
  982TIP3    H124437   2.161   1.490  13.198 -0.6588 -0.6280  0.4915
  982TIP3    H224438   2.162   1.587  13.082  0.8830 -0.9812  0.1862
  983TIP3   OH224439   4.322   5.287  12.954  0.3833  0.2368 -0.5859
  983TIP3    H124440   4.261   5.303  12.883 -1.4446 -0.9968  0.6027
  983TIP3    H224441   4.321   5.367  13.006  0.6339  0.6192 -1.1653
  984TIP3   OH224442   6.635   3.066  14.909  0.4509 -0.1261 -0.2443
  984TIP3    H124443   6.605   3.133  14.971 -0.4771 -0.7317 -0.0358
  984TIP3    H224444   6.694   3.011  14.961 -1.3067 -1.3988  0.4959
  985TIP3   OH224445   5.429   4.378   2.132 -0.4081 -0.4407 -0.0652
  985TIP3    H124446   5.457   4.288   2.114  0.2907 -0.6766  1.9119
  985TIP3    H224447   5.372   4.401   2.058 -1.0946 -2.7160 -0.3343
  986TIP3   OH224448   4.705   4.041  14.964  0.1193 -0.0600  0.4209
  986TIP3    H124449   4.738   3.952  14.970 -0.5534 -0.2724  1.3016
  986TIP3    H224450   4.769   4.088  14.911  0.8421 -0.8980  0.5412
  987TIP3   OH224451   1.090   6.652  13.137  0.0584  0.3915 -0.2615
  987TIP3    H124452   1.026   6.673  13.205 -1.3764 -0.2551 -1.3557
  987TIP3    H224453   1.154   6.595  13.181 -1.3018 -0.6952  0.3725
  988TIP3   OH224454   6.297   3.079   2.363  0.1009  0.8660  0.5069
  988TIP3    H124455   6.239   3.115   2.295 -1.3716 -0.0666  1.2228
  988TIP3    H224456   6.302   3.148   2.429 -0.9290  0.6389  0.8441
  989TIP3   OH224457   5.677   4.191   6.344 -0.2164 -0.6573 -0.5496
  989TIP3    H124458   5.684   4.214   6.436 -0.0746 -1.3705 -0.3768
  989TIP3    H224459   5.648   4.100   6.344  1.7837 -1.3389 -1.1916
  990TIP3   OH224460   4.048   2.636   4.233 -0.1374  0.6804  0.2558
  990TIP3    H124461   4.023   2.705   4.171 -0.2458 -1.6067 -2.4265
  990TIP3    H224462   3.979   2.570   4.225  0.9075 -0.6007  1.3600
  991TIP3   OH224463   6.193   3.291  15.730 -0.6743  0.5620 -0.4163
  991TIP3    H124464   6.116   3.348  15.734  0.5507  2.3057 -0.4834
  991TIP3    H224465   6.174   3.230  15.659 -2.6057 -0.0432  0.5520
  992TIP3   OH224466   1.981   5.790  12.146 -0.1318  0.1027  0.1588
  992TIP3    H124467   1.982   5.883  12.168 -1.2485  0.1587  0.0437
  992TIP3    H224468   1.964   5.787  12.052 -0.5919 -0.2231  0.2507
  993TIP3   OH224469   6.629   5.998  13.498  0.7853 -0.5105 -1.1531
  993TIP3    H124470   6.585   5.982  13.414  0.1742 -1.7698 -0.6288
  993TIP3    H224471   6.695   5.928  13.504 -0.4366 -1.6031  0.2287
  994TIP3   OH224472   5.585   2.037  10.837  0.0182 -0.9175 -0.2298
  994TIP3    H124473   5.640   1.997  10.771  1.1423 -0.7233  0.5583
  994TIP3    H224474   5.565   2.124  10.802  1.4371 -0.4301  0.0962
  995TIP3   OH224475   3.759   2.593  16.439 -0.1915 -0.3240 -0.0715
  995TIP3    H124476   3.740   2.662  16.375  0.6163 -1.4680 -1.6079
  995TIP3    H224477   3.853   2.579  16.431 -0.3452 -1.6004  0.2160
  996TIP3   OH224478   3.459   1.493  14.403  0.1810 -0.2126  0.0588
  996TIP3    H124479   3.484   1.480  14.494  2.7466  2.5468 -0.0831
  996TIP3    H224480   3.501   1.421  14.356  0.3353 -0.6647  0.8831
  997TIP3   OH224481   2.050   6.451  17.328 -0.0001 -0.1099 -0.4593
  997TIP3    H124482   2.072   6.452  17.421  1.6888  1.1619 -0.8248
  997TIP3    H224483   2.020   6.540  17.310 -0.7802 -0.4801 -1.0385
  998TIP3   OH224484   0.063   4.552  11.106  0.1861  0.6010  0.3447
  998TIP3    H124485  -0.012   4.516  11.154 -1.5078  3.5968  0.2031
  998TIP3    H224486   0.025   4.586  11.025  1.8667  1.4528 -0.1303
  999TIP3   OH224487   0.079   0.703   5.614 -0.7338  0.0414  0.2292
  999TIP3    H124488   0.097   0.797   5.615  0.7244 -0.1823 -1.0981
  999TIP3    H224489   0.003   0.693   5.557  0.4263  0.2745 -1.4368
 1000TIP3   OH224490   1.489   0.639   6.639  0.3399 -0.0601  0.0120
 1000TIP3    H124491   1.482   0.715   6.580 -1.7436  1.3706  1.9053
 1000TIP3    H224492   1.402   0.599   6.636 -0.0675  0.4558  2.4931
 1001TIP3   OH224493   0.503   2.798  16.756  0.1992 -0.2679  0.5990
 1001TIP3    H124494   0.559   2.724  16.780  0.3559 -0.2111  0.4067
 1001TIP3    H224495   0.426   2.788  16.811  0.6239 -0.0461  1.2444
 1002TIP3   OH224496   3.177   5.622   3.742 -0.3649 -0.3151 -0.1883
 1002TIP3    H124497   3.169   5.701   3.795  1.7609 -0.8368  1.0300
 1002TIP3    H224498   3.265   5.628   3.703 -1.0471 -1.0029 -1.9296
 1003TIP3   OH224499   5.656   3.401  15.059  0.8796  0.2861  0.7629
 1003TIP3    H124500   5.738   3.449  15.072  0.6770  0.6365  0.7654
 1003TIP3    H224501   5.615   3.444  14.985  0.2454  0.7342  1.3671
 1004TIP3   OH224502   5.671   0.756  12.688 -0.3052  0.2254 -0.7884
 1004TIP3    H124503   5.696   0.739  12.778 -0.2627 -2.1420 -1.1849
 1004TIP3    H224504   5.587   0.710  12.677 -0.9784  1.5670 -1.6170
 1005TIP3   OH224505   6.233   5.457   1.304  0.1830 -0.2140 -0.2922
 1005TIP3    H124506   6.308   5.448   1.363  0.6558  1.6311 -0.5755
 1005TIP3    H224507   6.193   5.540   1.328  0.1756  0.4247 -2.3146
 1006TIP3   OH224508   1.821   2.244   6.558 -1.1054  0.1904 -0.6586
 1006TIP3    H124509   1.898   2.299   6.543 -0.6708 -0.4532 -0.8113
 1006TIP3    H224510   1.789   2.271   6.645  1.2645 -1.8046  0.9563
 1007TIP3   OH224511   2.181   1.649  17.358  0.2460 -0.1911  0.2666
 1007TIP3    H124512   2.213   1.723  17.306  2.0944 -2.3061 -1.8170
 1007TIP3    H224513   2.171   1.685  17.447  1.5713  2.4066 -0.5296
 1008TIP3   OH224514   0.301   1.785  14.652  0.2755  0.2660  0.5529
 1008TIP3    H124515   0.221   1.837  14.646  0.3214  0.2822 -0.0129
 1008TIP3    H224516   0.324   1.766  14.561  0.5461 -0.3010  0.7302
 1009TIP3   OH224517   3.905   6.342   1.362 -0.2093 -0.3417  0.3553
 1009TIP3    H124518   3.855   6.267   1.394  0.1022 -0.2848  0.9889
 1009TIP3    H224519   3.869   6.359   1.274 -1.0716 -0.4976  0.6691
 1010TIP3   OH224520   0.930   1.205   0.854 -0.3039  0.3049  0.0340
 1010TIP3    H124521   0.909   1.163   0.937  0.6025  1.0397  0.6533
 1010TIP3    H224522   0.855   1.261   0.835 -1.1137 -0.8828 -0.3380
 1011TIP3   OH224523   6.722   2.935  15.332 -0.5621  0.1291 -0.0330
 1011TIP3    H124524   6.816   2.930  15.349 -1.0612 -0.5733  3.2014
 1011TIP3    H224525   6.682   2.944  15.418 -3.5824 -1.1006 -1.1444
 1012TIP3   OH224526   0.164   5.250  14.134  0.0053  0.4239 -0.6861
 1012TIP3    H124527   0.227   5.186  14.167  1.7358  1.2842 -2.1154
 1012TIP3    H224528   0.192   5.333  14.171 -1.0057  0.6792 -0.4537
 1013TIP3   OH224529   1.469   2.688   4.453  0.0864 -0.4187  0.2071
 1013TIP3    H124530   1.418   2.728   4.523 -0.3376 -0.9597  0.2163
 1013TIP3    H224531   1.406   2.631   4.407  0.4474 -0.3529 -0.3788
 1014TIP3   OH224532   1.361   2.817  15.709  0.3999 -0.2193 -0.4002
 1014TIP3    H124533   1.380   2.836  15.617  1.1757  1.3096  0.0505
 1014TIP3    H224534   1.276   2.857  15.725  0.9725  0.9045 -0.0662
 1015TIP3   OH224535   4.728   6.730  14.926  0.2913  0.0666 -0.4025
 1015TIP3    H124536   4.662   6.708  14.992  0.2085  0.2998 -0.4063
 1015TIP3    H224537   4.809   6.736  14.976  0.0101  1.5838 -0.0765
 1016TIP3   OH224538   1.853   2.905  17.235 -0.0835  0.3593 -0.2988
 1016TIP3    H124539   1.826   2.813  17.227 -0.0992  0.2303  0.9213
 1016TIP3    H224540   1.774   2.951  17.262  0.2820  0.4410  0.6688
 1017TIP3   OH224541   1.417   1.891  15.624 -0.5672 -0.7900  0.4451
 1017TIP3    H124542   1.345   1.831  15.641 -0.9660 -0.7163 -0.8557
 1017TIP3    H224543   1.407   1.961  15.689 -0.5188 -1.7468  1.5010
 1018TIP3   OH224544   2.506   4.904  14.255 -0.4713  0.1755 -0.8491
 1018TIP3    H124545   2.553   4.873  14.333  1.8880  1.1781 -1.7602
 1018TIP3    H224546   2.444   4.834  14.235  0.1181 -0.9103  0.8824
 1019TIP3   OH224547   6.767   4.600   3.197 -0.1021 -0.2241  0.2199
 1019TIP3    H124548   6.838   4.552   3.238 -1.1132  0.1127  2.5452
 1019TIP3    H224549   6.697   4.536   3.186  0.1238 -0.2924 -1.0044
 1020TIP3   OH224550   4.458   0.589   0.600 -0.1529 -0.0175  0.5024
 1020TIP3    H124551   4.551   0.581   0.578  0.0793 -0.2752  1.5261
 1020TIP3    H224552   4.448   0.535   0.678 -1.3908 -0.8454 -0.1984
 1021TIP3   OH224553   3.950   6.547  16.011  0.5621 -0.0861 -0.1362
 1021TIP3    H124554   3.972   6.628  15.965 -0.5934  0.7759  0.7757
 1021TIP3    H224555   4.018   6.539  16.078 -1.8373  2.8124  2.9821
 1022TIP3   OH224556   1.349   0.355  17.163  0.7327  0.3461 -0.0878
 1022TIP3    H124557   1.349   0.264  17.133 -4.6327  0.2471 -0.6840
 1022TIP3    H224558   1.336   0.349  17.258  1.8670  0.5649  0.0951
 1023TIP3   OH224559   0.407   0.299   3.604  0.4181 -1.1678 -0.1331
 1023TIP3    H124560   0.313   0.295   3.619  0.5466 -0.6326  0.8908
 1023TIP3    H224561   0.424   0.389   3.577  0.7771 -0.9526  0.7797
 1024TIP3   OH224562   6.663   2.259   4.051 -0.3516 -0.1878  0.2392
 1024TIP3    H124563   6.644   2.333   4.109 -0.8198 -0.3583  0.3045
 1024TIP3    H224564   6.660   2.295   3.963  0.3775  0.0770  0.3166
 1025TIP3   OH224565   1.254   6.506   4.538 -0.2683 -0.1013  0.3892
 1025TIP3    H124566   1.182   6.523   4.598  1.3405 -0.6351  2.5923
 1025TIP3    H224567   1.221   6.438   4.479 -2.0706  0.8078  0.2760
 1026TIP3   OH224568   3.175   3.533  17.155  0.4378 -0.8269  0.5945
 1026TIP3    H124569   3.128   3.599  17.104  0.6577  0.1976  1.6427
 1026TIP3    H224570   3.266   3.543  17.129  0.4469 -0.8272  0.6267
 1027TIP3   OH224571   3.780   1.914   3.644 -0.3759 -0.1348 -0.5339
 1027TIP3    H124572   3.805   1.951   3.560 -0.6813 -0.5382 -0.8092
 1027TIP3    H224573   3.812   1.824   3.642 -1.9006 -0.7041 -0.9496
 1028TIP3   OH224574   2.987   4.870  14.370 -0.5605  0.6423  0.4988
 1028TIP3    H124575   2.959   4.909  14.453 -0.4719 -0.2880  0.9737
 1028TIP3    H224576   3.052   4.805  14.394 -0.5255  0.3647 -0.3018
 1029TIP3   OH224577   3.963   4.159   2.754  0.2614 -0.7572 -0.3337
 1029TIP3    H124578   4.016   4.109   2.816 -0.0387  0.9368  1.3667
 1029TIP3    H224579   4.019   4.231   2.727 -0.9984  0.9189  1.2999
 1030TIP3   OH224580   4.765   4.025   2.577 -0.0415  0.1232  0.2314
 1030TIP3    H124581   4.711   4.078   2.635 -2.2648  1.1642 -2.5477
 1030TIP3    H224582   4.703   3.971   2.528  1.3957  0.7739 -2.5549
 1031TIP3   OH224583   6.401   5.929   0.955  0.5499 -0.5931 -0.1538
 1031TIP3    H124584   6.496   5.929   0.938  0.2972 -1.9699 -1.9352
 1031TIP3    H224585   6.364   5.889   0.877 -1.6159  0.8115  0.0841
 1032TIP3   OH224586   3.308   4.297  15.477  0.6757  0.0687 -0.5575
 1032TIP3    H124587   3.230   4.242  15.462  0.4479  0.9865 -3.3303
 1032TIP3    H224588   3.305   4.317  15.570  0.3200 -3.8776  0.4970
 1033TIP3   OH224589   2.540   0.345   0.829  0.1071 -0.2098 -0.4516
 1033TIP3    H124590   2.563   0.277   0.766  1.8916 -0.6380  0.6176
 1033TIP3    H224591   2.488   0.300   0.896  1.3346 -0.5551  0.2846
 1034TIP3   OH224592   1.052   6.179   1.973 -0.5149 -0.4273 -0.3286
 1034TIP3    H124593   1.033   6.089   1.997 -2.3197  0.2674  1.0360
 1034TIP3    H224594   1.112   6.210   2.041 -0.7140 -0.2884 -0.2161
 1035TIP3   OH224595   3.762   4.783   0.524  0.3716  0.0648 -0.1026
 1035TIP3    H124596   3.739   4.691   0.510  0.4772  0.0274 -0.0334
 1035TIP3    H224597   3.855   4.781   0.545  0.2585  0.1399  0.4132
 1036TIP3   OH224598   6.701   6.226   1.668 -0.4455  0.0230  0.6946
 1036TIP3    H124599   6.679   6.140   1.633 -0.7287  0.5809 -0.5668
 1036TIP3    H224600   6.796   6.225   1.676 -0.1124  0.5242 -2.0665
 1037TIP3   OH224601   2.008   1.840  13.627  0.4790  0.1401 -0.0535
 1037TIP3    H124602   2.075   1.864  13.691 -0.7047  3.2647  0.1838
 1037TIP3    H224603   2.049   1.773  13.573  2.2841 -1.0535  2.6003
 1038TIP3   OH224604   6.014   1.876   0.547  0.6798 -0.3546  0.4139
 1038TIP3    H124605   6.011   1.966   0.516 -1.6030  0.4872  2.7111
 1038TIP3    H224606   5.953   1.829   0.491 -0.0864  0.1574  0.7917
 1039TIP3   OH224607   3.591   1.511  14.648 -0.0413 -0.1251  0.2398
 1039TIP3    H124608   3.672   1.492  14.601  0.3904  0.5052  0.7051
 1039TIP3    H224609   3.606   1.478  14.737 -0.3741 -0.1924  0.2723
 1040TIP3   OH224610   3.131   1.364  16.168 -0.1696  0.5608  0.1140
 1040TIP3    H124611   3.206   1.309  16.144 -0.7562  0.1392 -0.7863
 1040TIP3    H224612   3.055   1.317  16.134 -1.3039 -0.8768  3.9992
 1041TIP3   OH224613   1.558   3.627  12.451 -0.0959  0.1821 -0.3909
 1041TIP3    H124614   1.490   3.603  12.388  0.1909  1.8692 -1.3920
 1041TIP3    H224615   1.625   3.672  12.399  1.1632 -0.2524  0.7898
 1042TIP3   OH224616   0.635   4.754  17.099 -0.1219 -0.0739  0.2801
 1042TIP3    H124617   0.669   4.841  17.121  0.4958  0.2163 -1.6639
 1042TIP3    H224618   0.671   4.736  17.012 -0.7000 -2.0418  0.4203
 1043TIP3   OH224619   5.493   6.143   2.088 -0.0411  0.0673  0.0673
 1043TIP3    H124620   5.497   6.051   2.114  0.7354  0.3273  0.9070
 1043TIP3    H224621   5.484   6.140   1.993 -3.7575 -0.9293  0.2946
 1044TIP3   OH224622   5.666   4.679  16.031  0.4711  0.5600  0.1722
 1044TIP3    H124623   5.604   4.616  16.069  0.3333  0.8522  0.4309
 1044TIP3    H224624   5.654   4.759  16.082  0.2918  0.9552 -0.4747
 1045TIP3   OH224625   3.090   3.273   6.324  0.0880 -0.6239  0.2233
 1045TIP3    H124626   3.054   3.361   6.312  0.6587 -0.4106  0.0347
 1045TIP3    H224627   3.087   3.258   6.418 -0.3281 -0.5376  0.2242
 1046TIP3   OH224628   4.348   3.665  11.113  0.1064 -0.6035 -0.2572
 1046TIP3    H124629   4.368   3.699  11.026 -0.8849 -0.3784 -0.4146
 1046TIP3    H224630   4.426   3.615  11.138  0.9803  0.5073 -0.6669
 1047TIP3   OH224631   0.253   3.184  14.117  0.2157 -0.6555 -0.2394
 1047TIP3    H124632   0.168   3.217  14.088  0.7878  0.4314 -0.7436
 1047TIP3    H224633   0.300   3.165  14.036  0.4946 -1.1502  0.0348
 1048TIP3   OH224634   2.778   1.429   5.525  0.5245 -0.1210 -0.4642
 1048TIP3    H124635   2.851   1.443   5.585 -0.2569 -1.7364  0.9646
 1048TIP3    H224636   2.701   1.457   5.574  0.0646  0.5152 -1.5279
 1049TIP3   OH224637   0.336   1.433  12.329 -0.3560  0.2532  0.6544
 1049TIP3    H124638   0.280   1.508  12.349 -1.4392 -0.7345  1.4785
 1049TIP3    H224639   0.382   1.414  12.410  1.0998  0.9536  0.0253
 1050TIP3   OH224640   0.543   5.730  14.611  0.3136  0.5858  0.5187
 1050TIP3    H124641   0.562   5.823  14.600  0.4599  0.7611  2.0003
 1050TIP3    H224642   0.517   5.722  14.703  0.4846 -0.8704  0.4609
 1051TIP3   OH224643   0.719   1.892   6.650  0.1182 -0.1346  0.5242
 1051TIP3    H124644   0.740   1.860   6.738  1.0349 -0.2446  0.2783
 1051TIP3    H224645   0.751   1.824   6.591  0.6070  0.4815  0.0639
 1052TIP3   OH224646   2.108   1.948  15.086  0.0972 -0.0203  0.2936
 1052TIP3    H124647   2.150   2.026  15.052  1.9614 -0.7842  0.7292
 1052TIP3    H224648   2.142   1.877  15.032 -1.1540 -0.6208  0.2490
 1053TIP3   OH224649   4.098   3.758   5.495  0.2327  0.2796  0.2092
 1053TIP3    H124650   4.076   3.760   5.588  0.8329 -0.2874  0.3695
 1053TIP3    H224651   4.194   3.749   5.493  0.0750 -1.8442 -0.4215
 1054TIP3   OH224652   6.645   5.574  16.658  0.2951  0.2725  0.1634
 1054TIP3    H124653   6.549   5.580  16.660  0.1281  0.3437 -2.7579
 1054TIP3    H224654   6.663   5.481  16.672 -0.3316  0.0134 -0.6373
 1055TIP3   OH224655   6.485   5.058   5.669  0.0505  0.3475 -0.0843
 1055TIP3    H124656   6.405   5.086   5.714  0.3500 -1.3932  1.6636
 1055TIP3    H224657   6.522   5.139   5.634 -1.5011  1.4474  0.6888
 1056TIP3   OH224658   0.449   6.628   0.568  0.0697 -0.2634  0.0200
 1056TIP3    H124659   0.476   6.537   0.575  2.1240  0.3459  0.8514
 1056TIP3    H224660   0.475   6.667   0.651 -1.9745  0.8203  0.2063
 1057TIP3   OH224661   6.134   3.585   1.127 -0.0085  0.1960  0.1960
 1057TIP3    H124662   6.146   3.539   1.210  0.2389 -0.0675  0.0176
 1057TIP3    H224663   6.216   3.630   1.111 -0.2282  0.6423  0.3337
 1058TIP3   OH224664   6.316   5.502   5.042 -0.0965  0.2507  0.2098
 1058TIP3    H124665   6.288   5.591   5.019  0.2321  0.6528  1.3038
 1058TIP3    H224666   6.298   5.495   5.135 -1.1180 -1.2245 -0.0628
 1059TIP3   OH224667   6.513   1.461   0.199  0.6034  0.7492  0.4049
 1059TIP3    H124668   6.422   1.461   0.171  0.8398  0.0010 -0.4037
 1059TIP3    H224669   6.525   1.546   0.242  0.0720  1.7494 -1.3318
 1060TIP3   OH224670   3.251   2.226  17.095  0.1826  0.5332 -0.1701
 1060TIP3    H124671   3.288   2.292  17.152 -0.5889  0.8255  0.0005
 1060TIP3    H224672   3.325   2.170  17.071  0.6332  0.8180  0.5483
 1061TIP3   OH224673   6.265   3.753   4.824  0.1730  0.0699  0.1202
 1061TIP3    H124674   6.339   3.802   4.787  2.7941 -2.3953  1.6771
 1061TIP3    H224675   6.256   3.677   4.767 -0.7561 -0.0015  0.3469
 1062TIP3   OH224676   2.155   1.005   4.224  0.7585 -0.4598 -0.0494
 1062TIP3    H124677   2.250   1.014   4.226  0.7078 -0.0646  1.5073
 1062TIP3    H224678   2.134   0.945   4.296 -0.2799  0.7025  0.6559
 1063TIP3   OH224679   2.320   2.954   2.962 -0.1198 -0.2079  0.2836
 1063TIP3    H124680   2.241   3.007   2.952 -0.2489 -0.3196  0.6853
 1063TIP3    H224681   2.348   2.970   3.052 -0.6291 -1.4499  0.6990
 1064TIP3   OH224682   4.422   5.273  12.085  0.1970  0.5409  0.4728
 1064TIP3    H124683   4.347   5.219  12.108  0.2884  1.2181  2.6773
 1064TIP3    H224684   4.482   5.214  12.039 -0.9985 -0.3994  0.0792
 1065TIP3   OH224685   1.794   0.430   6.309 -0.0378 -0.4281 -0.1204
 1065TIP3    H124686   1.876   0.478   6.326  0.5479 -1.1008 -0.9698
 1065TIP3    H224687   1.771   0.392   6.393  1.4313 -1.5909 -0.1992
 1066TIP3   OH224688   3.897   1.316  12.759 -0.4393  0.0095  0.1231
 1066TIP3    H124689   3.991   1.313  12.739 -0.5309  0.0935 -0.3123
 1066TIP3    H224690   3.864   1.389  12.708 -1.1755 -1.4188 -1.5602
 1067TIP3   OH224691   0.073   3.675   4.042 -0.1428  0.1140  0.2226
 1067TIP3    H124692   0.115   3.761   4.036 -4.1675  2.2856  0.0022
 1067TIP3    H224693   0.055   3.651   3.952 -0.0798 -0.4188  0.3519
 1068TIP3   OH224694   4.499   3.616  11.383 -0.1024  0.2599 -0.1568
 1068TIP3    H124695   4.433   3.551  11.404 -1.3700  1.3381 -0.6016
 1068TIP3    H224696   4.548   3.578  11.310  2.2415 -2.1113  2.4455
 1069TIP3   OH224697   4.571   6.595   7.053 -0.1749  0.4160 -0.1184
 1069TIP3    H124698   4.483   6.591   7.090 -0.1717 -1.4626 -0.1913
 1069TIP3    H224699   4.562   6.556   6.965  0.9351 -1.2122  0.4255
 1070TIP3   OH224700   4.159   5.342  16.254  0.2429  0.0656 -0.2183
 1070TIP3    H124701   4.173   5.332  16.159  0.4844 -1.5122 -0.0463
 1070TIP3    H224702   4.177   5.255  16.290 -0.2691  0.5346  1.2384
 1071TIP3   OH224703   4.450   1.904   5.937 -0.1478  0.2233  0.0857
 1071TIP3    H124704   4.373   1.958   5.953  0.0778  0.5484  0.1028
 1071TIP3    H224705   4.517   1.941   5.995  0.7078  1.4620 -1.5928
 1072TIP3   OH224706   2.875   4.273  15.449  0.1185  0.6950 -0.2178
 1072TIP3    H124707   2.813   4.227  15.505 -0.9012 -1.3691 -2.7933
 1072TIP3    H224708   2.827   4.351  15.420 -0.4407  0.2890 -0.4149
 1073TIP3   OH224709   4.359   5.584   0.506  0.2125 -0.0393  0.2872
 1073TIP3    H124710   4.269   5.556   0.491  0.1534 -0.2927  1.0760
 1073TIP3    H224711   4.412   5.507   0.484  0.2412  0.1180 -0.2025
 1074TIP3   OH224712   3.978   2.947  13.067  0.4678 -0.3319  0.1207
 1074TIP3    H124713   3.884   2.949  13.084  0.4539  1.0272  0.0055
 1074TIP3    H224714   3.993   2.865  13.020 -0.8645  0.0139 -0.9679
 1075TIP3   OH224715   5.422   4.440  15.385 -0.4712  0.1205 -0.3790
 1075TIP3    H124716   5.346   4.400  15.427 -0.4825 -0.3826 -0.8732
 1075TIP3    H224717   5.447   4.379  15.316  0.7475 -0.0029  0.1433
 1076TIP3   OH224718   1.201   1.386   5.199  0.1717 -0.2996 -0.7556
 1076TIP3    H124719   1.218   1.421   5.111  0.9012  2.2828  0.3214
 1076TIP3    H224720   1.274   1.418   5.252 -0.6350 -1.1761  0.9620
 1077TIP3   OH224721   1.450   0.592  14.210  0.1975 -0.0852 -0.0983
 1077TIP3    H124722   1.451   0.598  14.305  1.5999  1.7713 -0.1749
 1077TIP3    H224723   1.402   0.669  14.181  2.2312  0.9530 -0.9093
 1078TIP3   OH224724   1.473   3.435  10.955 -0.3720 -0.3907 -0.1924
 1078TIP3    H124725   1.555   3.388  10.967  0.5132  1.5886  2.1110
 1078TIP3    H224726   1.405   3.373  10.982  0.1289 -2.3884 -3.0153
 1079TIP3   OH224727   2.616   0.211  16.997 -0.4564  0.0458  0.2997
 1079TIP3    H124728   2.548   0.263  16.956 -2.7840 -1.5671  1.8644
 1079TIP3    H224729   2.607   0.229  17.091 -0.3630 -1.9966  0.7423
 1080TIP3   OH224730   3.869   1.754   2.249  0.5363  0.4900  0.2231
 1080TIP3    H124731   3.900   1.674   2.292 -0.7176  0.0523  0.3325
 1080TIP3    H224732   3.925   1.823   2.284  2.5708 -0.5037 -0.8858
 1081TIP3   OH224733   6.362   5.777   1.176  0.7053 -0.0043 -0.0288
 1081TIP3    H124734   6.375   5.837   1.102 -0.9711  0.2811 -0.1401
 1081TIP3    H224735   6.444   5.729   1.182  1.0284  0.2162 -1.8473
 1082TIP3   OH224736   0.701   4.658  12.682 -0.0536  0.0020 -0.2505
 1082TIP3    H124737   0.650   4.738  12.667 -0.6864 -0.1341  0.9971
 1082TIP3    H224738   0.739   4.670  12.769  1.0697 -0.4288 -0.6622
 1083TIP3   OH224739   5.124   3.850   1.371 -0.0577  0.0199 -0.2800
 1083TIP3    H124740   5.131   3.929   1.317  0.1626  0.2888  0.1328
 1083TIP3    H224741   5.215   3.829   1.392 -0.1598  0.0866  0.2255
 1084TIP3   OH224742   3.011   5.833  14.249  0.3008 -0.1447  0.0842
 1084TIP3    H124743   3.003   5.749  14.205 -0.4788 -1.0448  1.8516
 1084TIP3    H224744   3.099   5.833  14.287 -0.0136 -0.5469  0.8210
 1085TIP3   OH224745   5.769   4.488   3.115 -0.8278  0.2415 -0.0594
 1085TIP3    H124746   5.855   4.462   3.084 -0.1534  2.8373 -0.5285
 1085TIP3    H224747   5.715   4.493   3.036 -2.1102 -3.3881  0.4094
 1086TIP3   OH224748   3.630   2.271  15.426 -0.0742  0.6404 -1.0303
 1086TIP3    H124749   3.698   2.231  15.479 -0.1002  2.4447  0.4636
 1086TIP3    H224750   3.674   2.343  15.381 -1.0747  2.2711  0.4967
 1087TIP3   OH224751   0.624   5.503  14.484  0.3248 -0.2105  0.3705
 1087TIP3    H124752   0.617   5.589  14.527  1.8337  1.6763 -2.7686
 1087TIP3    H224753   0.534   5.477  14.466 -0.1435  1.6387 -0.1800
 1088TIP3   OH224754   5.405   0.614  12.626  0.1971  0.3360  0.0086
 1088TIP3    H124755   5.375   0.685  12.683 -4.2490  0.5100 -2.0564
 1088TIP3    H224756   5.419   0.656  12.541  0.1273 -0.8187 -0.6016
 1089TIP3   OH224757   1.772   1.184  16.695  0.2201  0.3439 -0.2445
 1089TIP3    H124758   1.719   1.149  16.623  1.3150 -0.4625 -0.6758
 1089TIP3    H224759   1.862   1.173  16.666  0.6568  0.9697  0.8255
 1090TIP3   OH224760   0.732   0.926   5.855  0.7064  0.0565  0.0698
 1090TIP3    H124761   0.775   0.985   5.793  0.7205 -0.3204 -0.2833
 1090TIP3    H224762   0.639   0.932   5.832  0.7888 -0.6481 -0.4856
 1091TIP3   OH224763   4.348   3.722   1.055 -0.3406 -0.2478 -0.0091
 1091TIP3    H124764   4.298   3.653   1.100 -0.0069 -1.1842 -1.0342
 1091TIP3    H224765   4.382   3.680   0.976  1.2371  0.6392  0.1487
 1092TIP3   OH224766   1.860   6.259  15.512  0.3285  0.1611  0.3782
 1092TIP3    H124767   1.787   6.320  15.500 -0.3722 -0.3989  1.6625
 1092TIP3    H224768   1.860   6.205  15.433  1.3226  2.1349 -1.0703
 1093TIP3   OH224769   6.151   3.217  13.326 -0.5980 -0.2664 -0.6303
 1093TIP3    H124770   6.198   3.213  13.243 -1.0630 -1.4243 -0.8506
 1093TIP3    H224771   6.198   3.156  13.383 -0.3258  0.4655 -0.0557
 1094TIP3   OH224772   0.411   1.317   2.112  0.0771  0.3212 -0.2259
 1094TIP3    H124773   0.475   1.323   2.041  0.4899  0.6241  0.1640
 1094TIP3    H224774   0.328   1.340   2.071  0.0687 -0.8768 -0.9229
 1095TIP3   OH224775   2.986   0.764  12.173  0.1782  0.2991 -0.3891
 1095TIP3    H124776   3.012   0.772  12.081 -0.2253 -0.3364 -0.5620
 1095TIP3    H224777   3.060   0.720  12.215  0.5671  1.0146 -0.3040
 1096TIP3   OH224778   2.454   3.730  17.437 -0.2267 -0.0437 -0.1542
 1096TIP3    H124779   2.479   3.657  17.381 -1.2890  0.0778 -0.8108
 1096TIP3    H224780   2.452   3.806  17.379  2.3080  0.8573  0.7918
 1097TIP3   OH224781   5.110   4.386   1.370  0.1500  0.5460 -0.2413
 1097TIP3    H124782   5.096   4.398   1.276 -0.5767 -0.2507 -0.2559
 1097TIP3    H224783   5.089   4.472   1.408  0.5432  0.9011 -0.8113
 1098TIP3   OH224784   0.214   4.174  15.848 -0.4699  0.2932 -0.2560
 1098TIP3    H124785   0.288   4.201  15.794 -0.8548  0.7654 -0.5602
 1098TIP3    H224786   0.164   4.114  15.792  0.0752 -0.6046  0.2130
 1099TIP3   OH224787   3.822   6.604  16.572 -0.0516 -0.8355  0.7909
 1099TIP3    H124788   3.894   6.588  16.511 -0.3888  1.9506 -0.5037
 1099TIP3    H224789   3.860   6.659  16.640 -0.9482  0.8807 -0.0430
 1100TIP3   OH224790   0.047   5.230   6.669 -0.2052 -0.5306  0.1811
 1100TIP3    H124791   0.108   5.271   6.731  0.1676  0.1088 -0.5905
 1100TIP3    H224792  -0.035   5.224   6.717  0.2954 -0.8230  1.0291
 1101TIP3   OH224793   1.138   1.156   1.177  0.4337 -0.5379 -0.0758
 1101TIP3    H124794   1.159   1.233   1.124 -0.2625 -0.3870 -0.1463
 1101TIP3    H224795   1.180   1.172   1.261 -1.4648  0.9719  0.6833
 1102TIP3   OH224796   2.974   3.949  14.491  0.2670  0.8112 -0.3573
 1102TIP3    H124797   3.059   3.984  14.464  0.9213  0.3804  1.0408
 1102TIP3    H224798   2.995   3.866  14.532 -1.1626 -0.8231 -2.7312
 1103TIP3   OH224799   6.671   3.589  14.493 -0.5908 -0.8168  0.1307
 1103TIP3    H124800   6.733   3.660  14.509 -0.7446 -0.6290 -0.1161
 1103TIP3    H224801   6.671   3.539  14.575 -0.6710 -0.3917  0.3922
 1104TIP3   OH224802   2.158   1.152  13.815  0.0427  0.2430 -0.0723
 1104TIP3    H124803   2.130   1.148  13.906 -1.0873 -0.4719 -0.4198
 1104TIP3    H224804   2.186   1.063  13.794  0.9508  0.5559 -0.2435
 1105TIP3   OH224805   2.571   0.131  11.027 -0.6431  0.2854  0.1255
 1105TIP3    H124806   2.561   0.047  10.981 -0.3962 -0.0752  0.7151
 1105TIP3    H224807   2.526   0.194  10.971 -0.7484 -0.2232 -0.3775
 1106TIP3   OH224808   5.473   2.450  17.349  0.2964  0.0788  0.1153
 1106TIP3    H124809   5.543   2.478  17.408 -1.4639 -0.6315  2.6817
 1106TIP3    H224810   5.407   2.519  17.356 -0.0163 -0.0900 -0.9695
 1107TIP3   OH224811   2.289   1.465   2.944 -0.6031 -0.2533 -0.2295
 1107TIP3    H124812   2.372   1.428   2.913 -0.3803  0.0790 -0.0230
 1107TIP3    H224813   2.313   1.546   2.989 -1.0500 -0.0960 -0.2687
 1108TIP3   OH224814   2.843   3.663  14.866  0.4173 -0.0987 -0.1413
 1108TIP3    H124815   2.819   3.673  14.958 -1.1783  1.3876 -0.6647
 1108TIP3    H224816   2.815   3.574  14.844 -0.4491  0.0093  0.4707
 1109TIP3   OH224817   4.887   5.513   5.316  0.4800  0.5921  0.3595
 1109TIP3    H124818   4.920   5.588   5.365  1.2286  0.1391  0.5667
 1109TIP3    H224819   4.958   5.490   5.256  0.6623 -0.5475  0.9789
 1110TIP3   OH224820   0.957   2.311   5.531 -0.0449 -0.3143 -0.1139
 1110TIP3    H124821   1.023   2.355   5.585 -0.7026  0.4140  0.1174
 1110TIP3    H224822   1.001   2.234   5.498  0.7041 -0.2192  0.6229
 1111TIP3   OH224823   0.649   0.856  11.995  0.1580  0.1612 -0.0466
 1111TIP3    H124824   0.702   0.916  11.943  0.6454 -0.7025 -0.5731
 1111TIP3    H224825   0.690   0.770  11.982  0.8153  0.0151  2.4128
 1112TIP3   OH224826   0.622   5.469  16.412 -0.0368  0.2159  0.0801
 1112TIP3    H124827   0.531   5.489  16.392 -0.0421 -0.2080 -0.3321
 1112TIP3    H224828   0.639   5.514  16.495  0.6264  3.8574 -1.8312
 1113TIP3   OH224829   3.758   5.990   3.281  0.8754 -0.2926  0.2698
 1113TIP3    H124830   3.670   5.961   3.302  1.0481  0.2662  1.8860
 1113TIP3    H224831   3.810   5.966   3.358  1.4283  2.3802  0.8440
 1114TIP3   OH224832   2.155   5.182  12.268 -0.0942  0.2678  0.0521
 1114TIP3    H124833   2.070   5.140  12.259 -0.3046  0.5201  0.7697
 1114TIP3    H224834   2.194   5.177  12.181 -1.0906  0.6760 -0.4347
 1115TIP3   OH224835   0.985   2.820   0.979  0.3319 -0.1631  0.0965
 1115TIP3    H124836   0.997   2.915   0.985 -1.6535  0.0468  1.8090
 1115TIP3    H224837   0.891   2.808   0.966  0.5217 -1.9128  0.0584
 1116TIP3   OH224838   6.083   5.124   1.627  0.1990  0.5962 -0.1698
 1116TIP3    H124839   6.028   5.055   1.591 -1.0908  1.7552 -0.5080
 1116TIP3    H224840   6.059   5.126   1.720  0.8865  0.0197  0.0300
 1117TIP3   OH224841   2.570   2.118   3.122 -0.3004 -0.2460 -0.0556
 1117TIP3    H124842   2.640   2.184   3.120 -0.6031  0.0646 -1.0961
 1117TIP3    H224843   2.560   2.098   3.215  2.1895 -1.4231  0.0586
 1118TIP3   OH224844   5.517   0.692  11.068 -0.2782 -0.4057  0.3063
 1118TIP3    H124845   5.506   0.786  11.083  0.5853 -0.2972  0.2762
 1118TIP3    H224846   5.473   0.676  10.985  0.7089  0.2266 -0.3669
 1119TIP3   OH224847   5.090   6.569  13.046 -0.6123  0.2841  0.5299
 1119TIP3    H124848   5.071   6.544  12.955  0.6227  0.6810  0.1376
 1119TIP3    H224849   5.136   6.653  13.039 -1.2014  0.7121  1.5818
 1120TIP3   OH224850   3.418   5.198  17.346 -0.2492  0.5420 -0.1373
 1120TIP3    H124851   3.486   5.142  17.309 -0.1002 -2.7831  4.3323
 1120TIP3    H224852   3.460   5.284  17.355  1.6218 -0.1180 -1.8092
 1121TIP3   OH224853   0.031   2.869  16.888  0.0618  0.0569  0.1085
 1121TIP3    H124854  -0.003   2.805  16.950 -0.8689 -0.7870 -1.2085
 1121TIP3    H224855   0.000   2.953  16.920 -0.3296 -0.3528  0.8292
 1122TIP3   OH224856   3.481   6.533  12.315 -0.4406  0.1664  0.5845
 1122TIP3    H124857   3.443   6.547  12.401 -1.0058  0.2414  0.3264
 1122TIP3    H224858   3.568   6.497  12.333 -0.5748  0.1306  1.1821
 1123TIP3   OH224859   3.276   6.573  11.411  0.0215  0.2792  0.0958
 1123TIP3    H124860   3.310   6.596  11.497 -0.7822  0.2868  0.4178
 1123TIP3    H224861   3.242   6.484  11.421  0.4389  0.0572 -0.3715
 1124TIP3   OH224862   3.960   4.510   1.493  0.1782  0.1825  0.1116
 1124TIP3    H124863   3.916   4.509   1.579  0.2447 -0.8717  0.1486
 1124TIP3    H224864   3.917   4.440   1.444 -0.0691  0.9760 -0.8354
 1125TIP3   OH224865   2.367   2.039  15.232  0.1468 -0.6440 -0.2827
 1125TIP3    H124866   2.276   2.027  15.206  0.4758 -3.0094 -0.5525
 1125TIP3    H224867   2.366   2.113  15.293 -2.1162 -1.3018  0.5513
 1126TIP3   OH224868   3.134   5.062   5.072  0.3008 -0.3241  0.3549
 1126TIP3    H124869   3.041   5.039   5.078  0.5797 -1.2629  1.4207
 1126TIP3    H224870   3.144   5.101   4.986 -0.8028 -1.5891 -0.3787
 1127TIP3   OH224871   5.058   2.250  16.483 -0.4050  0.4937  0.3675
 1127TIP3    H124872   5.051   2.281  16.573 -1.1466  0.5211  0.3108
 1127TIP3    H224873   4.969   2.221  16.460  0.0162 -0.5893  0.0242
 1128TIP3   OH224874   0.296   1.481   5.152 -0.2195 -0.4382  0.3339
 1128TIP3    H124875   0.238   1.531   5.209  0.5123  1.2157 -0.3187
 1128TIP3    H224876   0.238   1.443   5.085 -0.6497  0.5443  0.1375
 1129TIP3   OH224877   2.639   4.064  14.910  0.1407 -0.0843 -0.5521
 1129TIP3    H124878   2.567   4.115  14.946 -0.6525 -2.3922  1.4606
 1129TIP3    H224879   2.716   4.092  14.960 -0.2197 -0.5403  0.2861
 1130TIP3   OH224880   5.104   0.955   5.833 -0.0909  0.3809 -0.1947
 1130TIP3    H124881   5.170   0.981   5.768 -0.3860  0.9027 -0.2904
 1130TIP3    H224882   5.024   0.941   5.782 -0.1727  0.2088 -0.0200
 1131TIP3   OH224883   2.289   4.667   3.515  0.0071 -0.0048  1.2148
 1131TIP3    H124884   2.252   4.755   3.524 -0.0382 -0.0390  1.3717
 1131TIP3    H224885   2.214   4.608   3.528 -0.4100 -0.0499 -1.0476
 1132TIP3   OH224886   6.344   2.888  13.164  0.1527  0.2543  0.3750
 1132TIP3    H124887   6.299   2.804  13.173  1.0237 -0.2390  0.3207
 1132TIP3    H224888   6.344   2.925  13.252  2.0445 -1.0487  0.9948
 1133TIP3   OH224889   1.355   4.802  13.135  0.6193 -1.1528  0.6660
 1133TIP3    H124890   1.441   4.759  13.142  0.7140 -0.8403  1.5805
 1133TIP3    H224891   1.318   4.795  13.223 -0.4464 -1.5827  0.1906
 1134TIP3   OH224892   5.729   4.025  12.507 -0.0438  0.3046  0.5021
 1134TIP3    H124893   5.646   3.980  12.496 -0.1902  0.5672  0.5355
 1134TIP3    H224894   5.780   4.000  12.429 -0.7123  1.3660 -0.2926
 1135TIP3   OH224895   3.878   6.419  16.796  0.4061 -0.1912 -0.7793
 1135TIP3    H124896   3.837   6.490  16.846 -1.1310 -1.2269 -0.4865
 1135TIP3    H224897   3.892   6.455  16.709 -2.6939 -0.2226 -1.3928
 1136TIP3   OH224898   5.218   2.589  12.602 -0.1415  0.0400  0.1918
 1136TIP3    H124899   5.145   2.606  12.542  1.2060  1.5829 -1.0803
 1136TIP3    H224900   5.199   2.643  12.679 -1.2868 -1.0669  0.7360
 1137TIP3   OH224901   0.545   5.825   3.460 -0.0752  0.3068 -0.1455
 1137TIP3    H124902   0.543   5.730   3.462  1.0796  0.2458 -0.7431
 1137TIP3    H224903   0.502   5.848   3.377 -3.1836  0.4947  1.3935
 1138TIP3   OH224904   0.650   0.672  16.276 -0.0190  0.5465  0.1858
 1138TIP3    H124905   0.706   0.722  16.335 -0.1597 -0.4052  1.1535
 1138TIP3    H224906   0.582   0.635  16.333 -1.0962  0.9207 -0.8225
 1139TIP3   OH224907   0.422   3.816  16.834 -0.0761 -0.8113  0.5038
 1139TIP3    H124908   0.422   3.911  16.844  2.1927 -0.5697 -1.0387
 1139TIP3    H224909   0.340   3.797  16.787  0.1060  0.5558 -0.4334
 1140TIP3   OH224910   5.936   4.427  12.157  0.4622 -0.3392  0.0541
 1140TIP3    H124911   6.026   4.445  12.184  1.0881 -1.2534 -1.3413
 1140TIP3    H224912   5.933   4.333  12.142  0.0134 -0.0185 -2.3573
 1141TIP3   OH224913   6.152   2.816  13.737 -0.2456 -0.6905  0.1266
 1141TIP3    H124914   6.070   2.814  13.787 -0.5610  1.0338 -0.2823
 1141TIP3    H224915   6.126   2.833  13.647  0.5662  0.4071  0.0719
 1142TIP3   OH224916   3.848   6.095   3.980  0.3774 -0.8512 -0.9422
 1142TIP3    H124917   3.819   6.004   3.991 -0.4668 -0.3225  2.6911
 1142TIP3    H224918   3.938   6.095   4.012 -0.6495 -0.0255  2.4566
 1143TIP3   OH224919   0.040   0.356  12.647  0.0965  0.6169 -0.2101
 1143TIP3    H124920   0.085   0.399  12.574  0.6382 -0.1214 -0.3199
 1143TIP3    H224921   0.018   0.269  12.613 -0.0666  0.4401  0.3511
 1144TIP3   OH224922   2.275   4.847  15.694  0.1676  0.4233  0.0799
 1144TIP3    H124923   2.357   4.811  15.725  0.2732  0.1276 -0.5174
 1144TIP3    H224924   2.228   4.771  15.658 -0.6411  0.4738  0.9786
 1145TIP3   OH224925   0.086   1.902  16.903 -0.1334  0.6367 -0.0616
 1145TIP3    H124926   0.178   1.924  16.885 -0.2855  0.2714 -1.3705
 1145TIP3    H224927   0.063   1.957  16.978  0.3203  2.8879 -1.4888
 1146TIP3   OH224928   5.058   1.501  10.993 -0.7087  0.2084  0.1683
 1146TIP3    H124929   4.967   1.533  10.994 -1.0496 -0.7252  1.0291
 1146TIP3    H224930   5.050   1.406  11.001  0.3137 -0.0178 -1.2549
 1147TIP3   OH224931   3.797   1.888   5.050  0.3613 -0.8670  0.1153
 1147TIP3    H124932   3.710   1.849   5.039 -0.1494  0.0815  0.5923
 1147TIP3    H224933   3.780   1.972   5.093  1.3989 -0.0920 -0.9290
 1148TIP3   OH224934   3.589   3.830  12.651 -0.4140  0.0283  0.5023
 1148TIP3    H124935   3.676   3.811  12.616  0.3701  0.5463  2.0667
 1148TIP3    H224936   3.554   3.895  12.591 -1.0020 -2.3146 -1.8747
 1149TIP3   OH224937   4.905   2.786  11.525 -0.0508  0.1932 -0.1616
 1149TIP3    H124938   4.840   2.716  11.535  0.1708  0.2448  1.9528
 1149TIP3    H224939   4.989   2.744  11.545  0.2185  0.8315  0.0655
 1150TIP3   OH224940   2.211   2.890  16.935  0.5655 -0.0691  0.1042
 1150TIP3    H124941   2.295   2.924  16.906 -0.0463  0.8097 -0.6941
 1150TIP3    H224942   2.184   2.949  17.005  0.0053  0.4595 -0.5452
 1151TIP3   OH224943   1.647   2.864   4.320 -0.1971  0.3312  0.3070
 1151TIP3    H124944   1.587   2.804   4.365  0.7010 -2.0860 -1.5311
 1151TIP3    H224945   1.592   2.909   4.256 -0.2964 -1.0255 -0.5858
 1152TIP3   OH224946   6.565   4.462  15.793 -0.5607  0.2628  0.4907
 1152TIP3    H124947   6.494   4.501  15.742 -0.1041 -1.6020 -1.7306
 1152TIP3    H224948   6.523   4.396  15.848 -0.8347  1.0036  1.1856
 1153TIP3   OH224949   5.849   5.510  12.625  0.4517  0.4482  0.1406
 1153TIP3    H124950   5.778   5.449  12.647 -0.0241  0.9324 -0.0453
 1153TIP3    H224951   5.922   5.453  12.601  0.1900 -0.0580  0.5300
 1154TIP3   OH224952   2.765   1.555   0.982  0.3471  0.2371  0.2326
 1154TIP3    H124953   2.810   1.530   0.901 -0.4388  0.2631 -0.2115
 1154TIP3    H224954   2.801   1.495   1.048  1.8737  1.0011  0.1351
 1155TIP3   OH224955   0.457   1.485   4.909  0.0461  0.0676  0.3938
 1155TIP3    H124956   0.433   1.488   5.001  1.4421  0.2296  0.7672
 1155TIP3    H224957   0.441   1.394   4.883  0.4792 -0.2009  1.0347
 1156TIP3   OH224958   3.374   3.097   6.284 -0.3642 -0.2429 -0.0149
 1156TIP3    H124959   3.352   3.188   6.269 -3.0567 -0.8381 -0.1885
 1156TIP3    H224960   3.368   3.086   6.379  0.3846 -0.1707  0.0491
 1157TIP3   OH224961   2.117   6.394  14.668  0.1990 -0.5343  0.4524
 1157TIP3    H124962   2.192   6.453  14.666 -1.0057  1.1429  1.7094
 1157TIP3    H224963   2.054   6.433  14.608 -0.5577 -0.5864  1.1913
 1158TIP3   OH224964   1.139   4.755   3.187  0.4424  0.0902  0.1995
 1158TIP3    H124965   1.107   4.785   3.102  1.2592  0.0252 -0.1407
 1158TIP3    H224966   1.061   4.724   3.232  0.0484 -0.2355 -0.6765
 1159TIP3   OH224967   6.579   1.149  17.386 -0.1679  0.0161 -0.2451
 1159TIP3    H124968   6.528   1.219  17.345  2.8614  2.0123 -0.9884
 1159TIP3    H224969   6.600   1.184  17.473  1.1471 -0.0032 -0.5244
 1160TIP3   OH224970   2.097   5.973  12.987 -0.3409  0.4031  0.1538
 1160TIP3    H124971   2.080   6.041  12.921  1.1582  0.7941  0.1343
 1160TIP3    H224972   2.155   6.015  13.050  0.8196 -0.9400  0.0102
 1161TIP3   OH224973   6.184   1.224  15.745 -0.1058  0.4503 -0.1793
 1161TIP3    H124974   6.226   1.228  15.659  0.3586  0.8407  0.0644
 1161TIP3    H224975   6.117   1.293  15.743 -0.6924 -0.1088 -0.5329
 1162TIP3   OH224976   1.850   3.332  11.499  0.3843  0.6341  0.3723
 1162TIP3    H124977   1.869   3.245  11.464  0.2199  0.5450  0.5067
 1162TIP3    H224978   1.874   3.392  11.428  2.5479  0.6259  1.0368
 1163TIP3   OH224979   5.715   6.669  11.348  0.6206 -0.2280 -0.1296
 1163TIP3    H124980   5.685   6.760  11.351 -1.6308 -0.9511  0.9667
 1163TIP3    H224981   5.730   6.652  11.255 -0.1674  0.8716 -0.4765
 1164TIP3   OH224982   5.819   6.431  16.677 -0.0561 -0.1621  0.1048
 1164TIP3    H124983   5.848   6.348  16.715  0.1240  0.8943  2.4623
 1164TIP3    H224984   5.899   6.482  16.668 -0.4671  0.7107  1.2462
 1165TIP3   OH224985   5.956   3.967   5.272  0.1516 -0.3990 -0.4742
 1165TIP3    H124986   6.000   3.988   5.354 -0.2662 -0.9192 -0.1152
 1165TIP3    H224987   6.024   3.977   5.205  0.7750 -1.0290  0.0549
 1166TIP3   OH224988   4.306   4.384  17.008 -0.6772 -0.5398  0.3731
 1166TIP3    H124989   4.244   4.344  16.947  0.1667 -2.4727  0.7142
 1166TIP3    H224990   4.385   4.331  17.000 -0.6136 -1.0809  3.3358
 1167TIP3   OH224991   1.307   6.369  14.984 -0.0572  0.0385  0.0260
 1167TIP3    H124992   1.247   6.416  15.042 -0.3444  0.2337 -0.4169
 1167TIP3    H224993   1.382   6.427  14.975  0.1546 -0.1573  0.4961
 1168TIP3   OH224994   0.998   5.863   4.850 -0.0944 -0.0669 -0.0632
 1168TIP3    H124995   0.959   5.780   4.822  1.7501 -0.7010 -0.8928
 1168TIP3    H224996   1.092   5.846   4.852  0.1984  1.4682  1.6564
 1169TIP3   OH224997   2.858   3.126   1.910 -0.4556 -0.1265 -0.1747
 1169TIP3    H124998   2.925   3.190   1.888 -0.7682 -0.3597 -2.0415
 1169TIP3    H224999   2.874   3.053   1.850 -0.5860 -1.4729  1.3739
 1170TIP3   OH225000   1.931   5.725   2.882 -0.2595  0.2692 -0.1624
 1170TIP3    H125001   1.911   5.791   2.949 -2.6428 -0.5608  0.0700
 1170TIP3    H225002   2.026   5.724   2.876  0.0265  0.9701  2.6399
 1171TIP3   OH225003   5.520   3.850  14.015  0.1769 -0.7206  0.1345
 1171TIP3    H125004   5.546   3.942  14.012 -1.1668 -0.2722  1.3612
 1171TIP3    H225005   5.589   3.805  13.966  1.7443  0.7265  0.8971
 1172TIP3   OH225006   0.779   5.303  10.873 -0.0559 -0.2144  0.4872
 1172TIP3    H125007   0.742   5.367  10.813  2.1557  1.1264  0.4275
 1172TIP3    H225008   0.789   5.350  10.956  1.9624 -0.2924  0.3392
 1173TIP3   OH225009   1.438   3.784  16.297  0.2344 -0.0350  0.0975
 1173TIP3    H125010   1.444   3.712  16.234 -0.0989 -2.1732  2.3772
 1173TIP3    H225011   1.523   3.787  16.339 -0.1157  0.1743  0.8031
 1174TIP3   OH225012   6.250   5.187  16.288  0.3754  0.0080 -0.3071
 1174TIP3    H125013   6.331   5.156  16.329  0.4884 -0.3161 -0.7682
 1174TIP3    H225014   6.262   5.170  16.195 -0.3398 -0.2899 -0.3489
 1175TIP3   OH225015   6.427   2.507   1.360 -0.3154  0.0784 -0.0416
 1175TIP3    H125016   6.449   2.596   1.334  0.2033  0.5624  1.9050
 1175TIP3    H225017   6.354   2.483   1.303  0.1898  1.3528 -1.2855
 1176TIP3   OH225018   3.063   6.367   1.604  0.2063 -0.2790 -0.1106
 1176TIP3    H125019   3.030   6.346   1.692 -1.2616 -0.9709 -0.7950
 1176TIP3    H225020   2.998   6.428   1.569  2.8694  3.3416  0.7305
 1177TIP3   OH225021   2.013   4.207   5.463  0.1259  0.6482 -0.6333
 1177TIP3    H125022   2.079   4.138   5.458 -0.6827 -0.1172 -1.2264
 1177TIP3    H225023   1.994   4.214   5.557  0.2360  0.0620 -0.5573
 1178TIP3   OH225024   0.292   4.555  12.049 -0.1012  0.5032  0.1593
 1178TIP3    H125025   0.325   4.475  12.090  0.9977  0.8287 -0.0526
 1178TIP3    H225026   0.274   4.531  11.959 -0.6906  0.2659  0.3336
 1179TIP3   OH225027   5.257   4.178  16.892 -0.8988  0.6329  0.6001
 1179TIP3    H125028   5.200   4.145  16.823  2.0864  1.7933 -2.7342
 1179TIP3    H225029   5.242   4.273  16.893 -0.2256  0.7439  0.8424
 1180TIP3   OH225030   5.543   2.112   2.036  0.3464  0.3146  0.6681
 1180TIP3    H125031   5.550   2.202   2.069  0.2664  0.5375  0.0836
 1180TIP3    H225032   5.587   2.059   2.103  1.6721  0.9425  0.3315
 1181TIP3   OH225033   6.018   1.350  15.074  0.4497 -0.1557  0.0572
 1181TIP3    H125034   6.036   1.389  15.159  2.2812 -1.0894  0.1351
 1181TIP3    H225035   6.025   1.255  15.089  0.2776 -0.3544 -1.0238
 1182TIP3   OH225036   0.831   5.434   2.913  0.0303  0.4692 -0.8120
 1182TIP3    H125037   0.850   5.470   2.826  0.3671  0.1298 -0.8846
 1182TIP3    H225038   0.738   5.410   2.909  0.2165 -0.2218 -1.3375
 1183TIP3   OH225039   2.241   0.121   6.666  0.3776 -0.5662 -0.5767
 1183TIP3    H125040   2.228   0.032   6.698  0.8386  0.0485  1.5209
 1183TIP3    H225041   2.317   0.153   6.715  0.8731  0.6422 -2.0583
 1184TIP3   OH225042   4.644   4.388  15.220  0.2243 -0.3284  0.2974
 1184TIP3    H125043   4.598   4.431  15.291 -0.4765 -1.8753  0.8228
 1184TIP3    H225044   4.731   4.368  15.255 -0.0997 -1.0320  0.7262
 1185TIP3   OH225045   3.152   3.628   6.675 -0.2147  0.6063 -0.1625
 1185TIP3    H125046   3.192   3.541   6.674 -0.8919  0.2039  2.0655
 1185TIP3    H225047   3.197   3.676   6.605 -0.4530 -1.7564 -2.0855
 1186TIP3   OH225048   5.122   0.414   4.506  0.4240  0.3824  0.6736
 1186TIP3    H125049   5.034   0.444   4.484  0.9420  1.2088 -0.3426
 1186TIP3    H225050   5.180   0.485   4.478  1.5078 -0.6009  0.3231
 1187TIP3   OH225051   1.635   5.776  15.131 -0.3397 -0.8052  0.0678
 1187TIP3    H125052   1.694   5.700  15.130  1.3269  0.4076  0.8197
 1187TIP3    H225053   1.661   5.827  15.054 -1.6877 -1.1347 -0.6365
 1188TIP3   OH225054   4.114   4.260   1.628  0.4160  0.0929 -0.8388
 1188TIP3    H125055   4.199   4.282   1.668 -0.8631  1.2199  1.4875
 1188TIP3    H225056   4.123   4.286   1.537  1.9432  2.1635 -0.1760
 1189TIP3   OH225057   1.384   6.690   4.683 -0.2881 -0.2146 -0.3794
 1189TIP3    H125058   1.321   6.653   4.622  0.6455  0.2238 -1.6818
 1189TIP3    H225059   1.457   6.628   4.683 -1.1173 -1.3170  2.0036
 1190TIP3   OH225060   4.890   0.578   2.264 -0.4928 -0.1284  0.0780
 1190TIP3    H125061   4.976   0.540   2.284 -0.0333  0.8097 -0.0831
 1190TIP3    H225062   4.910   0.659   2.217 -1.4677  0.1640  0.1580
 1191TIP3   OH225063   1.425   6.658  16.385  0.5465  0.3034  0.1361
 1191TIP3    H125064   1.484   6.591  16.419 -1.5343 -0.9917  1.4756
 1191TIP3    H225065   1.394   6.624  16.301  0.2255  0.0319  0.3621
 1192TIP3   OH225066   2.995   5.565   2.699 -0.2383 -0.6007  0.2063
 1192TIP3    H125067   3.074   5.611   2.729 -0.4678 -0.9202  1.3446
 1192TIP3    H225068   2.941   5.633   2.660  0.4802 -0.3304 -0.3524
 1193TIP3   OH225069   2.988   4.694  13.223  0.4659 -0.1065  0.4635
 1193TIP3    H125070   3.061   4.735  13.270  1.1046  0.0368 -0.6103
 1193TIP3    H225071   3.017   4.604  13.207  1.0867  0.3545 -1.2645
 1194TIP3   OH225072   1.993   0.978  12.253  0.0855 -0.3021  0.0879
 1194TIP3    H125073   2.072   1.030  12.267  0.6870 -0.6346 -1.7590
 1194TIP3    H225074   1.921   1.037  12.277  0.8490  0.2715  1.0528
 1195TIP3   OH225075   3.240   1.071   3.204  0.1205  0.6135 -0.7667
 1195TIP3    H125076   3.193   1.146   3.243 -0.0839  0.5211 -0.8323
 1195TIP3    H225077   3.171   1.020   3.161  0.1260 -0.0697  0.0000
 1196TIP3   OH225078   5.318   3.295  11.440  0.6929  0.2795 -0.5244
 1196TIP3    H125079   5.355   3.313  11.354  3.5382 -1.6923  0.1651
 1196TIP3    H225080   5.242   3.239  11.422  1.4038 -0.3296 -1.7573
 1197TIP3   OH225081   5.144   1.236  13.270  0.2739 -0.3337 -0.0733
 1197TIP3    H125082   5.119   1.197  13.187 -0.8991  0.0538  0.0772
 1197TIP3    H225083   5.193   1.167  13.316  1.3841 -0.3754 -1.2720
 1198TIP3   OH225084   4.586   3.910   3.399 -0.8306 -0.1214 -0.5923
 1198TIP3    H125085   4.621   3.913   3.310  0.1899 -1.2334 -0.2503
 1198TIP3    H225086   4.661   3.934   3.455 -1.4877  0.6780 -0.0327
 1199TIP3   OH225087   3.292   1.159  15.538 -0.1190 -0.4013 -0.1623
 1199TIP3    H125088   3.244   1.110  15.471  0.1518  0.1844 -0.7943
 1199TIP3    H225089   3.382   1.162  15.507  0.1718 -0.7869  0.6167
 1200TIP3   OH225090   0.699   0.029  16.995  1.0075 -0.5162 -0.0645
 1200TIP3    H125091   0.604   0.035  16.986  0.8386 -2.3921 -0.0113
 1200TIP3    H225092   0.732   0.029  16.905  0.9232 -0.2484 -0.0956
 1201TIP3   OH225093   3.978   5.490  15.739  0.4069  0.0949  0.8308
 1201TIP3    H125094   3.940   5.568  15.700  3.1664  0.3816 -1.6638
 1201TIP3    H225095   3.917   5.419  15.718 -0.1974  0.9600 -0.4097
 1202TIP3   OH225096   2.648   3.460  16.943  0.0869  0.4390 -0.5716
 1202TIP3    H125097   2.712   3.519  16.982  0.6156  0.3470 -1.2772
 1202TIP3    H225098   2.701   3.394  16.899 -0.4699 -1.0391  0.8592
 1203TIP3   OH225099   4.265   3.882   4.708  0.5024  0.0227 -0.0580
 1203TIP3    H125100   4.269   3.832   4.627  0.9580 -1.2164  0.6941
 1203TIP3    H225101   4.305   3.825   4.774  2.4492  1.9798  0.5758
 1204TIP3   OH225102   4.477   1.805  13.669  0.3972 -0.0761  0.3532
 1204TIP3    H125103   4.413   1.736  13.649  0.8771 -0.6261  0.6590
 1204TIP3    H225104   4.548   1.758  13.713  0.5023  0.6981  1.0297
 1205TIP3   OH225105   3.175   6.622  14.394  0.0919 -0.5770 -0.0940
 1205TIP3    H125106   3.167   6.714  14.417 -1.0133 -0.6099 -0.2629
 1205TIP3    H225107   3.269   6.607  14.382  0.1841  0.8122 -1.2639
 1206TIP3   OH225108   3.728   5.351   3.907  0.2603 -0.2270 -0.4131
 1206TIP3    H125109   3.781   5.385   3.836 -1.3950 -1.4652 -2.3689
 1206TIP3    H225110   3.641   5.389   3.893  0.0721  0.1247  1.4492
 1207TIP3   OH225111   3.927   2.802  12.449  0.0276  0.2041 -0.2149
 1207TIP3    H125112   4.010   2.850  12.449 -0.0350  0.4398 -2.6626
 1207TIP3    H225113   3.866   2.859  12.495  1.2311 -0.1300  1.9518
 1208TIP3   OH225114   2.501   5.770   3.840  0.1267 -0.3603 -0.2840
 1208TIP3    H125115   2.518   5.704   3.907 -0.3517  0.0186  0.2266
 1208TIP3    H225116   2.493   5.852   3.889  0.7658  0.0888 -0.9140
 1209TIP3   OH225117   4.515   4.301   3.459 -0.2908  0.1875 -0.0284
 1209TIP3    H125118   4.478   4.222   3.420 -0.4202 -0.5231  1.4675
 1209TIP3    H225119   4.468   4.373   3.416  0.0129 -0.5134 -1.6019
 1210TIP3   OH225120   3.859   3.951  15.111  0.3645  0.0266  0.2010
 1210TIP3    H125121   3.822   3.872  15.150  0.6539 -1.0137 -1.5147
 1210TIP3    H225122   3.873   3.928  15.019 -1.0310  2.5770 -0.7704
 1211TIP3   OH225123   0.809   3.932   1.914 -0.4109 -0.6325  0.2011
 1211TIP3    H125124   0.737   3.968   1.862  0.3552  0.3441 -0.2381
 1211TIP3    H225125   0.771   3.859   1.961 -1.9545  0.4834  0.7703
 1212TIP3   OH225126   6.497   1.436   3.793  0.1749 -0.0757  0.2412
 1212TIP3    H125127   6.567   1.379   3.826  0.1841 -0.0586  0.2505
 1212TIP3    H225128   6.511   1.520   3.836 -0.0188 -0.1534  0.4539
 1213TIP3   OH225129   1.010   3.012  12.767  0.3641 -0.3783 -0.8078
 1213TIP3    H125130   1.074   2.942  12.756 -0.6857 -1.5701  0.3113
 1213TIP3    H225131   0.927   2.967  12.780 -0.2180  1.0371  0.8135
 1214TIP3   OH225132   0.229   2.547  16.634 -0.1899  0.4595  0.7841
 1214TIP3    H125133   0.264   2.585  16.553 -0.2038 -2.0978 -0.5265
 1214TIP3    H225134   0.301   2.555  16.697  0.4234  1.0263  0.0361
 1215TIP3   OH225135   5.868   3.580  15.056 -0.6421 -0.0087 -0.2263
 1215TIP3    H125136   5.825   3.578  14.970 -0.3030 -1.4929 -0.3813
 1215TIP3    H225137   5.955   3.615  15.038 -0.7218  0.0973 -0.4144
 1216TIP3   OH225138   5.719   3.696   4.716 -0.6192 -0.5333  0.6742
 1216TIP3    H125139   5.789   3.743   4.670 -0.6638 -0.4209  0.7193
 1216TIP3    H225140   5.713   3.612   4.671 -0.5881 -0.4673  0.5447
 1217TIP3   OH225141   5.169   1.092   0.325  0.3740  0.4929  0.2990
 1217TIP3    H125142   5.242   1.061   0.271  0.6302  0.5261  0.6251
 1217TIP3    H225143   5.092   1.053   0.285  0.5356  0.6972 -0.2322
 1218TIP3   OH225144   2.567   1.893  17.376 -0.0910  0.0359  0.1025
 1218TIP3    H125145   2.588   1.970  17.429 -1.3746 -0.4550  1.4140
 1218TIP3    H225146   2.517   1.837  17.436 -0.2313 -1.2648 -1.1937
 1219TIP3   OH225147   3.538   3.345  10.462  0.8356  0.2192 -0.0449
 1219TIP3    H125148   3.526   3.438  10.441 -0.7087  0.1706  0.5390
 1219TIP3    H225149   3.536   3.342  10.558  0.1324 -0.4958 -0.0773
 1220TIP3   OH225150   5.471   5.017  16.673  0.9192 -0.0402  0.6624
 1220TIP3    H125151   5.546   4.995  16.728  1.3323  0.4304  0.2934
 1220TIP3    H225152   5.407   5.055  16.733  0.0123 -2.5459  1.4048
 1221TIP3   OH225153   5.572   4.343   3.242  0.3897 -0.0626 -1.1009
 1221TIP3    H125154   5.491   4.365   3.197  0.4227 -0.7228 -1.4975
 1221TIP3    H225155   5.634   4.412   3.217 -0.0900  0.5383 -0.6570
 1222TIP3   OH225156   6.511   1.635  17.358 -0.2328  0.3076 -0.4866
 1222TIP3    H125157   6.541   1.568  17.296  2.7415  2.2815 -1.4444
 1222TIP3    H225158   6.567   1.622  17.435  0.9755  2.0751 -1.0038
 1223TIP3   OH225159   4.125   0.067   2.930 -0.2550 -0.6403 -0.6658
 1223TIP3    H125160   4.110   0.025   3.014 -0.5959 -0.3787 -0.5918
 1223TIP3    H225161   4.083   0.153   2.938  2.6522  0.8370  0.1365
 1224TIP3   OH225162   2.502   3.802   5.373  0.4381 -0.0889  0.1532
 1224TIP3    H125163   2.458   3.739   5.429 -1.2477 -0.0545 -1.0774
 1224TIP3    H225164   2.555   3.854   5.434  0.9167 -1.8589  1.3397
 1225TIP3   OH225165   6.535   3.797  11.616  0.7532 -0.6572 -0.2078
 1225TIP3    H125166   6.543   3.865  11.549  0.2247  0.2421  0.6081
 1225TIP3    H225167   6.550   3.715  11.569  2.6690  0.0879 -0.9723
 1226TIP3   OH225168   5.152   0.069   3.546 -1.0209  0.7181 -0.4671
 1226TIP3    H125169   5.197   0.101   3.624 -0.7980  2.1304 -1.1395
 1226TIP3    H225170   5.212   0.004   3.509 -1.4930 -0.5739  0.9464
 1227TIP3   OH225171   5.260   4.255   0.708  0.1160 -0.7935  0.1719
 1227TIP3    H125172   5.207   4.183   0.673  0.1262 -0.8401  0.2525
 1227TIP3    H225173   5.304   4.291   0.631 -0.4960 -0.3675  0.0165
 1228TIP3   OH225174   4.014   5.873   1.647 -0.0848  0.0819 -0.5712
 1228TIP3    H125175   4.083   5.939   1.644  0.2580 -0.1525  1.1470
 1228TIP3    H225176   3.938   5.918   1.684  0.3576 -0.6128  1.2657
 1229TIP3   OH225177   1.498   6.316   5.355  0.3525 -0.2546 -0.1708
 1229TIP3    H125178   1.542   6.343   5.436  0.6603  1.1524 -0.7788
 1229TIP3    H225179   1.410   6.290   5.382 -0.3576  2.4654  0.3582
 1230TIP3   OH225180   0.937   1.683   3.564  0.3371 -0.2306 -0.2846
 1230TIP3    H125181   1.032   1.685   3.571  0.5905 -0.4588 -2.8772
 1230TIP3    H225182   0.907   1.752   3.624  2.1199 -0.0213  0.4188
 1231TIP3   OH225183   3.227   5.970   3.205 -0.5697  0.2360  0.6404
 1231TIP3    H125184   3.134   5.949   3.211 -0.3971 -0.7691 -0.0399
 1231TIP3    H225185   3.238   6.045   3.263 -2.0907  1.3244 -0.3833
 1232TIP3   OH225186   1.573   0.358   2.691  0.1562  0.2018 -0.1082
 1232TIP3    H125187   1.522   0.356   2.772  1.9594  0.5142  1.0958
 1232TIP3    H225188   1.517   0.316   2.626 -0.7676 -1.4222  1.6396
 1233TIP3   OH225189   4.766   4.617   4.719 -0.2813 -0.2865 -0.5265
 1233TIP3    H125190   4.849   4.595   4.761 -0.6352  1.1342  1.0112
 1233TIP3    H225191   4.700   4.603   4.787 -0.9583  1.4433 -0.7894
 1234TIP3   OH225192   2.117   0.151   6.401 -0.6476  0.4315 -0.1697
 1234TIP3    H125193   2.178   0.191   6.339 -1.2159 -1.0613 -1.7789
 1234TIP3    H225194   2.172   0.118   6.472  0.6717 -1.8992 -2.1321
 1235TIP3   OH225195   6.641   5.726   5.329  0.2596 -0.2954 -0.8492
 1235TIP3    H125196   6.698   5.719   5.405 -1.0955  1.2853  0.4005
 1235TIP3    H225197   6.686   5.786   5.270  1.1290 -1.2041 -1.1248
 1236TIP3   OH225198   4.767   1.791  16.092  0.2827 -0.3248 -0.2389
 1236TIP3    H125199   4.795   1.848  16.164  1.7412  1.5384 -2.1515
 1236TIP3    H225200   4.842   1.733  16.077  0.5342  0.1871 -1.0568
 1237TIP3   OH225201   2.320   4.418  12.528 -0.2059 -0.2875 -0.3317
 1237TIP3    H125202   2.249   4.436  12.589  0.8906  0.2845  0.8084
 1237TIP3    H225203   2.364   4.341  12.565 -0.1091 -0.5302 -0.9354
 1238TIP3   OH225204   1.587   1.443  11.213  0.2747  0.1464 -0.6560
 1238TIP3    H125205   1.631   1.403  11.138  0.2069 -0.4141 -0.3976
 1238TIP3    H225206   1.583   1.536  11.191 -0.1056 -0.0647 -1.5283
 1239TIP3   OH225207   4.220   4.186   5.927  0.3290  0.2414  0.1182
 1239TIP3    H125208   4.240   4.133   6.004 -3.9912 -1.1630  0.5600
 1239TIP3    H225209   4.236   4.276   5.955 -0.8187 -0.2448  2.6705
 1240TIP3   OH225210   6.531   2.604   0.891  0.1381 -0.4585  0.1001
 1240TIP3    H125211   6.484   2.670   0.942  1.8488  0.5673  0.4313
 1240TIP3    H225212   6.541   2.530   0.950 -1.0375 -0.7127  0.0114
 1241TIP3   OH225213   1.605   1.351  17.295  1.0549  0.4800  0.0772
 1241TIP3    H125214   1.580   1.323  17.383  0.1562 -1.5485 -0.7672
 1241TIP3    H225215   1.599   1.447  17.297  1.9702  0.5453  2.4561
 1242TIP3   OH225216   1.647   6.325   2.974  0.1983  0.1153 -0.1759
 1242TIP3    H125217   1.654   6.387   2.902  3.1044 -0.7429 -0.7803
 1242TIP3    H225218   1.640   6.379   3.053  0.9085  1.1654 -0.8155
 1243TIP3   OH225219   3.162   6.374   0.340  0.0583 -0.3069 -0.5965
 1243TIP3    H125220   3.123   6.296   0.300 -0.4593 -0.1582 -0.3929
 1243TIP3    H225221   3.180   6.432   0.266  3.1205 -1.7108 -1.1295
 1244TIP3   OH225222   5.533   4.836  11.382  0.3411 -0.3326 -0.2489
 1244TIP3    H125223   5.516   4.832  11.288 -0.7687  0.1175 -0.0819
 1244TIP3    H225224   5.461   4.786  11.421  0.4059  0.0672  0.3926
 1245TIP3   OH225225   4.521   2.928   3.146  0.2642  0.1667  0.3681
 1245TIP3    H125226   4.511   3.019   3.119  2.0589  0.3736  0.2456
 1245TIP3    H225227   4.508   2.877   3.066 -2.4479  0.1370  0.7560
 1246TIP3   OH225228   1.328   1.069   0.745 -0.3501 -0.4355  0.7190
 1246TIP3    H125229   1.312   1.163   0.734  1.4516 -0.2409 -0.8884
 1246TIP3    H225230   1.347   1.059   0.838  0.5480  1.0322  0.7380
 1247TIP3   OH225231   2.400   1.707   2.426 -0.4779 -0.0667 -0.0732
 1247TIP3    H125232   2.389   1.693   2.520 -1.7403 -0.6474 -0.2912
 1247TIP3    H225233   2.332   1.771   2.403  0.3296  0.6694 -0.4563
 1248TIP3   OH225234   1.411   5.667   2.958 -0.4989 -0.2414  0.8663
 1248TIP3    H125235   1.505   5.683   2.959 -0.7138  1.5446  3.6570
 1248TIP3    H225236   1.387   5.667   2.865  1.8600  1.8389  0.1604
 1249TIP3   OH225237   3.562   3.689  14.636  0.2650  0.1971 -0.0054
 1249TIP3    H125238   3.602   3.774  14.614 -0.7690  0.8603  0.5990
 1249TIP3    H225239   3.634   3.627  14.631  0.5784  0.6573 -2.9528
 1250TIP3   OH225240   4.398   4.192  15.867  0.0107 -0.3736 -0.2871
 1250TIP3    H125241   4.464   4.124  15.883 -0.2019 -0.7191 -0.8161
 1250TIP3    H225242   4.328   4.146  15.820 -0.6729 -0.0437  0.3978
 1251TIP3   OH225243   6.333   6.389   2.592 -0.2573 -0.0824 -0.0245
 1251TIP3    H125244   6.329   6.294   2.605  1.0458 -0.0521  0.7795
 1251TIP3    H225245   6.335   6.400   2.497 -0.9587 -0.8266 -0.1373
 1252TIP3   OH225246   2.678   0.843  17.191  0.1907 -0.2849 -0.4492
 1252TIP3    H125247   2.627   0.863  17.269  1.7786  1.1094  0.2980
 1252TIP3    H225248   2.639   0.763  17.156 -1.9773  0.3124  0.4824
 1253TIP3   OH225249   6.259   5.949   5.457 -0.8634  0.3588 -0.2969
 1253TIP3    H125250   6.261   5.876   5.519 -2.2213  0.0404 -0.5967
 1253TIP3    H225251   6.300   6.021   5.504 -0.8104 -0.2024  0.5434
 1254TIP3   OH225252   3.226   1.312   1.245 -0.6789 -0.7831  0.5460
 1254TIP3    H125253   3.215   1.347   1.333 -0.2981 -0.8100  0.6087
 1254TIP3    H225254   3.156   1.248   1.235 -0.8278 -0.6553  0.7652
 1255TIP3   OH225255   2.265   5.273  14.007 -0.0826 -0.3051 -0.3596
 1255TIP3    H125256   2.338   5.242  14.061 -1.2178 -0.1418  1.3546
 1255TIP3    H225257   2.286   5.244  13.919  0.9994 -2.1871  0.4614
 1256TIP3   OH225258   0.273   0.905   4.259 -0.1424 -0.5260  0.3409
 1256TIP3    H125259   0.298   0.899   4.167 -1.4610  1.7771 -0.2479
 1256TIP3    H225260   0.345   0.864   4.306  0.5000 -1.8906 -1.7073
 1257TIP3   OH225261   6.761   3.308  14.070 -0.0422 -0.0544 -0.0837
 1257TIP3    H125262   6.729   3.375  14.010 -0.4484 -0.6744 -0.5760
 1257TIP3    H225263   6.682   3.275  14.114  0.2666  0.5099  0.9316
 1258TIP3   OH225264   0.425   2.825  13.579 -0.3507  0.0915  0.2895
 1258TIP3    H125265   0.330   2.818  13.576 -0.4357  1.2268 -2.2579
 1258TIP3    H225266   0.455   2.778  13.501  1.2660 -0.8880  1.4252
 1259TIP3   OH225267   5.329   3.403  14.812 -0.2507  0.2083 -0.9767
 1259TIP3    H125268   5.249   3.429  14.766 -1.2913 -0.2020  0.5394
 1259TIP3    H225269   5.338   3.309  14.794  0.1352  0.3359 -1.4799
 1260TIP3   OH225270   6.014   5.048   6.692 -0.1668  0.1829 -0.8926
 1260TIP3    H125271   6.077   5.118   6.709 -1.2879  1.1795 -0.7098
 1260TIP3    H225272   6.063   4.983   6.643  1.6739 -0.2087  1.3059
 1261TIP3   OH225273   3.184   5.858  15.619 -0.1101 -0.2620 -0.4931
 1261TIP3    H125274   3.225   5.911  15.550 -0.2463 -2.4422 -2.3690
 1261TIP3    H225275   3.233   5.776  15.619 -1.1767 -0.9393  0.8692
 1262TIP3   OH225276   6.058   0.077   6.708 -0.2022  0.2865  0.2250
 1262TIP3    H125277   6.008   0.084   6.789  0.8125 -0.5732  0.9579
 1262TIP3    H225278   6.020   0.003   6.661  0.7574 -0.7901  1.0908
 1263TIP3   OH225279   4.794   2.073   6.273 -0.0911  1.1066 -0.5082
 1263TIP3    H125280   4.888   2.071   6.251 -0.0489  0.5791 -0.3061
 1263TIP3    H225281   4.768   1.981   6.270 -0.5025  1.2105 -0.1310
 1264TIP3   OH225282   1.951   6.570  14.493  0.5463 -0.0013 -0.1563
 1264TIP3    H125283   1.968   6.663  14.508  1.7219 -0.3410  0.7654
 1264TIP3    H225284   1.888   6.569  14.421  1.2375  1.4913 -0.8308
 1265TIP3   OH225285   3.229   6.518  11.065 -0.3385 -0.2068 -0.3935
 1265TIP3    H125286   3.244   6.446  11.005 -1.2214  0.3629 -1.3342
 1265TIP3    H225287   3.251   6.483  11.151  1.3766 -0.9003 -1.0828
 1266TIP3   OH225288   1.057   3.135   1.262 -0.0244  0.3275 -0.1736
 1266TIP3    H125289   1.095   3.077   1.327 -1.1532 -1.6620 -1.2020
 1266TIP3    H225290   1.130   3.161   1.206  1.0362  2.3654  1.9895
 1267TIP3   OH225291   0.323   0.908   4.003 -0.2724  0.1823 -0.2241
 1267TIP3    H125292   0.370   0.983   3.969 -1.3747  1.1338  0.2940
 1267TIP3    H225293   0.328   0.842   3.933  0.6039  0.7688 -0.7220
 1268TIP3   OH225294   2.102   5.577  12.285  0.2548 -0.5116  0.0733
 1268TIP3    H125295   2.159   5.544  12.215  0.6371  0.3411 -0.0341
 1268TIP3    H225296   2.075   5.664  12.255 -2.6350 -1.5945 -0.7228
 1269TIP3   OH225297   2.520   2.292  13.920  0.0965  0.8171  0.0581
 1269TIP3    H125298   2.436   2.278  13.877  0.1313  0.6109  0.0518
 1269TIP3    H225299   2.576   2.222  13.885 -0.4265 -0.5787  1.8930
 1270TIP3   OH225300   5.608   1.604  12.109  0.2514 -0.0225 -0.2759
 1270TIP3    H125301   5.564   1.678  12.067 -0.5234  1.1945  2.4906
 1270TIP3    H225302   5.702   1.623  12.099  0.1015  0.1848 -1.4425
 1271TIP3   OH225303   3.052   3.916   0.379 -0.5112 -0.1640 -0.2071
 1271TIP3    H125304   3.057   4.002   0.421 -3.1642  0.2228 -0.5189
 1271TIP3    H225305   2.995   3.865   0.436 -0.2156 -1.2214 -0.8347
 1272TIP3   OH225306   6.048   3.367   2.310 -0.9444 -0.1673 -0.8323
 1272TIP3    H125307   6.108   3.306   2.267 -0.7588 -0.9934  0.5220
 1272TIP3    H225308   5.991   3.311   2.364 -2.2856  0.6812 -1.3016
 1273TIP3   OH225309   2.990   0.236   1.223 -0.2135  0.2812 -0.0208
 1273TIP3    H125310   2.944   0.200   1.299  0.2218  1.3010  0.7509
 1273TIP3    H225311   2.926   0.234   1.153 -0.9560  0.2932  0.6466
 1274TIP3   OH225312   2.848   4.218  11.767 -0.5286  0.2398 -0.0310
 1274TIP3    H125313   2.841   4.168  11.848 -0.9795  0.9557  0.3863
 1274TIP3    H225314   2.928   4.270  11.777 -0.9725  0.8740  0.2773
 1275TIP3   OH225315   4.016   2.875  16.600  0.0335 -0.0676 -0.1430
 1275TIP3    H125316   4.072   2.848  16.527 -1.1214  0.8462 -1.4184
 1275TIP3    H225317   4.053   2.959  16.628  0.4730 -0.4151  0.3276
 1276TIP3   OH225318   2.184   0.702  16.782 -0.0241 -0.1687 -0.6377
 1276TIP3    H125319   2.111   0.764  16.792 -0.4470 -0.9517  1.6044
 1276TIP3    H225320   2.260   0.758  16.766  0.0777  1.3239  3.7264
 1277TIP3   OH225321   1.742   0.896  16.036 -0.4196  0.2911  0.0490
 1277TIP3    H125322   1.730   0.825  15.972  0.5259  0.3683 -0.2208
 1277TIP3    H225323   1.769   0.971  15.983 -0.5422  0.6130  0.4408
 1278TIP3   OH225324   1.972   4.068  14.701 -0.4757 -0.9673  0.3345
 1278TIP3    H125325   2.027   4.072  14.779  0.9601 -1.2418 -0.6316
 1278TIP3    H225326   2.028   4.029  14.634 -2.0361 -1.8136 -0.5416
 1279TIP3   OH225327   2.758   6.107  12.470  0.0113 -0.3647  0.0127
 1279TIP3    H125328   2.780   6.049  12.543  0.5373 -0.8524 -0.5292
 1279TIP3    H225329   2.751   6.050  12.394  2.1012  0.4092 -0.8580
 1280TIP3   OH225330   1.913   5.640   0.421 -0.1073  0.2920 -0.5605
 1280TIP3    H125331   1.885   5.559   0.465  0.5662  0.5653  0.4088
 1280TIP3    H225332   1.977   5.611   0.356 -0.6296 -0.0559 -0.9232
 1281TIP3   OH225333   1.473   5.898   0.650  0.3449  0.8866  0.1525
 1281TIP3    H125334   1.568   5.906   0.644  0.2977  1.6515  0.3708
 1281TIP3    H225335   1.448   5.952   0.725  0.0116 -1.4452  1.8504
 1282TIP3   OH225336   6.242   5.480   0.634  0.3894 -0.4556 -0.1639
 1282TIP3    H125337   6.189   5.488   0.555  0.6988  0.6134 -0.2866
 1282TIP3    H225338   6.278   5.392   0.631  2.3084  0.3002 -2.4535
 1283TIP3   OH225339   6.187   1.191   2.061  0.3437 -0.0098 -0.1258
 1283TIP3    H125340   6.116   1.255   2.062 -0.7435 -1.1738 -0.5311
 1283TIP3    H225341   6.144   1.107   2.045  1.7595 -0.8230  0.1359
 1284TIP3   OH225342   4.580   1.686   4.289  0.5729 -0.2197 -0.4168
 1284TIP3    H125343   4.489   1.666   4.311  0.5687 -0.3919 -0.5923
 1284TIP3    H225344   4.627   1.676   4.372  0.3593  0.3145 -0.2272
 1285TIP3   OH225345   6.049   1.970  14.656 -0.6855  0.7626  0.0425
 1285TIP3    H125346   6.120   2.034  14.650 -1.1637  1.2060 -1.3113
 1285TIP3    H225347   5.972   2.022  14.677 -0.7369  0.3736  0.8249
 1286TIP3   OH225348   0.803   3.502   3.925 -0.3272 -0.0977 -0.4016
 1286TIP3    H125349   0.836   3.581   3.883  0.1118 -0.9896 -1.8375
 1286TIP3    H225350   0.714   3.524   3.951 -0.0728  0.9907 -0.4129
 1287TIP3   OH225351   2.242   3.138  16.710 -0.0769 -0.0929  0.0545
 1287TIP3    H125352   2.191   3.207  16.752 -0.3337 -0.4402  0.3217
 1287TIP3    H225353   2.176   3.076  16.676  0.1613 -0.5015  0.3299
 1288TIP3   OH225354   4.287   1.401   4.549 -0.4229 -0.1179 -0.3777
 1288TIP3    H125355   4.294   1.456   4.471  2.3024  0.3443  0.0948
 1288TIP3    H225356   4.373   1.359   4.556 -0.2700  0.5035  2.8467
 1289TIP3   OH225357   1.877   4.432  16.746 -0.7866  0.0586 -0.2665
 1289TIP3    H125358   1.820   4.359  16.723 -0.5654  0.2548 -1.5419
 1289TIP3    H225359   1.909   4.464  16.661  0.6005  0.4420  0.3830
 1290TIP3   OH225360   5.525   5.498   1.860 -0.0496 -0.6888 -0.2321
 1290TIP3    H125361   5.469   5.573   1.839  0.4657 -0.4981 -0.9436
 1290TIP3    H225362   5.614   5.530   1.847  0.1709 -1.4438 -0.6396
 1291TIP3   OH225363   1.111   0.882   5.649  0.2149  0.0456  0.1903
 1291TIP3    H125364   1.139   0.974   5.650 -0.2352  0.1921 -0.1084
 1291TIP3    H225365   1.092   0.862   5.740 -2.0031  0.9937  0.0016
 1292TIP3   OH225366   5.176   5.479   0.642  0.1409  0.0495 -0.0863
 1292TIP3    H125367   5.190   5.435   0.726 -1.7878  1.2222  0.9157
 1292TIP3    H225368   5.103   5.538   0.658 -0.6997 -0.1359 -2.7948
 1293TIP3   OH225369   5.458   1.591   4.303  0.0975  0.0328  0.4519
 1293TIP3    H125370   5.394   1.520   4.311 -0.5001  0.5234  0.0981
 1293TIP3    H225371   5.408   1.664   4.266  0.6264  0.7362  1.1035
 1294TIP3   OH225372   0.390   5.213  12.860 -0.4559  0.3008 -0.0802
 1294TIP3    H125373   0.298   5.219  12.886 -0.2360  2.3427  0.3782
 1294TIP3    H225374   0.435   5.180  12.938 -0.6075  0.7804  0.2171
 1295TIP3   OH225375   2.272   0.887   1.175 -0.0919 -0.4793  0.2310
 1295TIP3    H125376   2.253   0.958   1.114 -0.7281 -1.5113 -0.8250
 1295TIP3    H225377   2.207   0.898   1.245 -1.0601 -0.7669 -0.5931
 1296TIP3   OH225378   3.755   0.949   5.622  0.1214 -0.3191 -0.3752
 1296TIP3    H125379   3.744   0.951   5.527 -1.9349 -0.6899 -0.2003
 1296TIP3    H225380   3.823   0.884   5.637  1.8572  1.0920 -1.6367
 1297TIP3   OH225381   1.173   5.712   2.638 -0.1897  0.6656 -0.2647
 1297TIP3    H125382   1.213   5.644   2.693  0.9682  1.4399 -0.1009
 1297TIP3    H225383   1.135   5.665   2.564 -0.3621 -0.2501  0.3961
 1298TIP3   OH225384   5.339   3.070  12.423  0.6801 -0.4348  0.1733
 1298TIP3    H125385   5.343   3.126  12.345  2.6819  0.1642  0.6435
 1298TIP3    H225386   5.260   3.019  12.412  0.0367  0.8266 -1.4453
 1299TIP3   OH225387   5.662   5.793  16.795 -0.0808  0.0164 -0.0489
 1299TIP3    H125388   5.713   5.836  16.727  0.2431  0.5387  0.5253
 1299TIP3    H225389   5.652   5.858  16.864  2.7850 -1.5826  2.1185
 1300TIP3   OH225390   0.604   3.059   5.836 -0.1387  0.1222  0.1042
 1300TIP3    H125391   0.691   3.036   5.868 -0.6725  0.6406  2.0579
 1300TIP3    H225392   0.552   2.980   5.846 -0.6434  0.6424  1.8627
 1301TIP3   OH225393   6.625   2.263   0.226 -0.1413  0.2215 -0.0464
 1301TIP3    H125394   6.702   2.257   0.282 -0.4723 -2.0386  0.2403
 1301TIP3    H225395   6.661   2.270   0.137  0.4036 -0.5793  0.1029
 1302TIP3   OH225396   0.103   4.101   1.406  0.1104 -0.5769  0.2520
 1302TIP3    H125397   0.177   4.162   1.405 -0.6927  0.4084 -0.5109
 1302TIP3    H225398   0.048   4.132   1.478  0.1847 -1.0182  0.5042
 1303TIP3   OH225399   5.490   1.830  12.634  0.0695 -0.2043  0.0473
 1303TIP3    H125400   5.583   1.851  12.647 -0.3680  1.8210  0.1826
 1303TIP3    H225401   5.461   1.890  12.566 -1.6855  0.8392  1.6243
 1304TIP3   OH225402   1.357   3.535   3.834 -0.3604 -0.2381 -0.0963
 1304TIP3    H125403   1.347   3.620   3.875 -1.7073 -0.8582  0.9279
 1304TIP3    H225404   1.356   3.553   3.740  2.4193  1.1602  0.0518
 1305TIP3   OH225405   3.233   6.578  13.094 -0.1909  0.5147 -0.4602
 1305TIP3    H125406   3.186   6.655  13.062 -0.5261  0.1741 -0.8031
 1305TIP3    H225407   3.207   6.570  13.186  0.9906  1.6596  0.0033
 1306TIP3   OH225408   2.539   6.626  16.612  0.2035  0.1243  0.3396
 1306TIP3    H125409   2.598   6.698  16.635 -0.0570  1.1533 -1.9234
 1306TIP3    H225410   2.452   6.665  16.616  0.1589  0.4639 -2.4316
 1307TIP3   OH225411   4.794   1.437  14.884 -1.0966  0.2683 -0.3050
 1307TIP3    H125412   4.799   1.380  14.807 -0.6426  2.6448 -2.1262
 1307TIP3    H225413   4.801   1.526  14.849 -0.0223  1.4240  2.5659
 1308TIP3   OH225414   4.509   2.684  16.601  0.8574  0.8927  0.6136
 1308TIP3    H125415   4.448   2.757  16.611  2.5057  2.4636 -0.2968
 1308TIP3    H225416   4.547   2.674  16.689  0.9706  1.4562  0.6338
 1309TIP3   OH225417   4.178   5.033   1.927 -0.3403  0.8730  0.0204
 1309TIP3    H125418   4.181   5.030   2.023 -0.1270  2.1607  0.0739
 1309TIP3    H225419   4.147   5.121   1.908 -1.6936  0.1888 -1.0876
 1310TIP3   OH225420   1.450   4.940  11.835 -0.6307  0.1416 -0.2564
 1310TIP3    H125421   1.485   5.029  11.840 -0.8604  0.1886  0.7865
 1310TIP3    H225422   1.512   4.893  11.779  0.4343  0.5259  0.5694
 1311TIP3   OH225423   4.603   4.094  11.545 -0.3018  0.1425  0.4401
 1311TIP3    H125424   4.591   4.005  11.511  1.4866 -0.1947  0.6187
 1311TIP3    H225425   4.515   4.131  11.545 -0.7212 -0.5906 -2.4724
 1312TIP3   OH225426   2.479   1.680   4.407  0.4184  0.0782 -0.3423
 1312TIP3    H125427   2.435   1.762   4.383  2.2569  1.5604  1.0581
 1312TIP3    H225428   2.571   1.705   4.419  0.8894 -2.0292  0.9148
 1313TIP3   OH225429   1.020   3.741  16.262 -0.3029  0.1335 -0.2705
 1313TIP3    H125430   1.041   3.802  16.191 -0.4682 -0.7042 -1.0651
 1313TIP3    H225431   0.926   3.755  16.279 -0.0249  1.0920  0.5432
 1314TIP3   OH225432   0.642   2.120  15.451 -0.1496  0.9034  0.5741
 1314TIP3    H125433   0.638   2.045  15.392 -0.1968 -0.5582  2.3319
 1314TIP3    H225434   0.632   2.197  15.394 -1.1888 -0.4494 -1.1630
 1315TIP3   OH225435   5.719   2.894  15.691 -0.0631  0.4086  0.3422
 1315TIP3    H125436   5.727   2.910  15.597 -1.9914  2.4229  0.4280
 1315TIP3    H225437   5.626   2.910  15.710  0.5813  1.7191  2.8558
 1316TIP3   OH225438   2.468   0.426   5.833  0.2479 -0.0585 -0.2188
 1316TIP3    H125439   2.427   0.342   5.853  1.6908 -0.6424  0.4453
 1316TIP3    H225440   2.537   0.405   5.770 -0.7753  0.9906 -1.7829
 1317TIP3   OH225441   1.137   1.576  12.283  0.3144 -0.5005  0.1319
 1317TIP3    H125442   1.131   1.578  12.188 -1.8343 -0.4476  0.2221
 1317TIP3    H225443   1.198   1.647  12.304 -1.0853  1.1887 -1.1343
 1318TIP3   OH225444   0.739   1.697  13.863 -1.2509 -0.0125 -0.3460
 1318TIP3    H125445   0.826   1.693  13.822 -0.9219 -0.1580  0.3482
 1318TIP3    H225446   0.679   1.671  13.793 -0.7916  0.6029 -0.9853
 1319TIP3   OH225447   3.753   2.078   6.992  0.4515 -0.2891  0.1205
 1319TIP3    H125448   3.703   2.159   6.987  1.2390  0.1952  0.0299
 1319TIP3    H225449   3.797   2.082   7.077  0.7770 -0.4555 -0.0400
 1320TIP3   OH225450   1.462   0.756   5.310  0.2998 -0.0092  0.5713
 1320TIP3    H125451   1.406   0.808   5.253 -0.3998  1.1643  2.2718
 1320TIP3    H225452   1.404   0.726   5.380  1.3663 -0.5117  1.2596
 1321TIP3   OH225453   3.106   1.212  16.657 -0.0775  0.4888  0.1903
 1321TIP3    H125454   3.194   1.195  16.623 -1.4519 -1.8752 -2.5848
 1321TIP3    H225455   3.083   1.298  16.622  0.8358  0.8148  0.3523
 1322TIP3   OH225456   2.637   6.443  10.747  0.1040  0.0055 -0.2929
 1322TIP3    H125457   2.685   6.360  10.753 -0.7630 -0.4859  0.0740
 1322TIP3    H225458   2.618   6.453  10.654  1.3262  0.4591 -0.5135
 1323TIP3   OH225459   6.447   4.031  16.815 -0.6488 -0.6995 -0.3518
 1323TIP3    H125460   6.534   3.994  16.799 -0.1831  0.3125 -0.2375
 1323TIP3    H225461   6.464   4.122  16.837 -1.5160 -1.1110  2.3839
 1324TIP3   OH225462   0.988   0.409   0.167 -0.2047 -0.4034 -0.0286
 1324TIP3    H125463   0.898   0.442   0.165 -0.6299 -1.4955  0.1560
 1324TIP3    H225464   0.986   0.330   0.113  0.4000 -0.9945  0.7852
 1325TIP3   OH225465   1.865   5.984  12.378 -0.1576 -0.2806 -0.3408
 1325TIP3    H125466   1.792   5.925  12.395  1.3524 -2.3599 -0.6682
 1325TIP3    H225467   1.868   5.991  12.282 -0.2796  0.2665 -0.3066
 1326TIP3   OH225468   3.167   2.073   3.206  0.2499 -0.0050  0.2106
 1326TIP3    H125469   3.234   2.076   3.274  1.7222 -0.5664 -1.1589
 1326TIP3    H225470   3.142   1.981   3.200  0.9292 -0.1472 -0.7205
 1327TIP3   OH225471   1.713   4.705  11.396 -0.5907 -0.5464  0.3926
 1327TIP3    H125472   1.678   4.715  11.308 -0.5165 -0.4199  0.3774
 1327TIP3    H225473   1.689   4.616  11.422 -0.2358 -0.7351  0.0777
 1328TIP3   OH225474   1.406   4.547   5.084  0.3215 -0.4690  0.1825
 1328TIP3    H125475   1.455   4.467   5.100  0.4465 -0.5604 -0.6061
 1328TIP3    H225476   1.373   4.538   4.995 -0.5590 -0.1031  0.4593
 1329TIP3   OH225477   6.389   5.786   4.458 -0.2773  0.4785  0.0467
 1329TIP3    H125478   6.393   5.789   4.554  0.5352 -0.2355  0.0462
 1329TIP3    H225479   6.342   5.704   4.439 -0.0620  0.4065 -0.1710
 1330TIP3   OH225480   2.322   0.542  12.945 -0.2251 -0.4850 -0.1099
 1330TIP3    H125481   2.357   0.613  12.892  0.1501  0.1407  0.9408
 1330TIP3    H225482   2.227   0.554  12.942 -0.1994 -0.3806 -0.5325
 1331TIP3   OH225483   4.254   6.497  11.417 -0.2567 -0.0743  0.0022
 1331TIP3    H125484   4.253   6.457  11.504  0.4534  1.0862  0.5610
 1331TIP3    H225485   4.172   6.469  11.377 -1.7700  1.3337  1.9502
 1332TIP3   OH225486   4.843   3.867   3.199  0.0997 -0.0037 -0.1830
 1332TIP3    H125487   4.799   3.892   3.118 -0.7640  0.2952  0.3500
 1332TIP3    H225488   4.861   3.951   3.242  2.9577  0.0079 -1.2325
 1333TIP3   OH225489   5.699   6.625  13.383 -0.1080  0.2676 -0.3414
 1333TIP3    H125490   5.628   6.688  13.391 -0.2397  0.0514  0.2377
 1333TIP3    H225491   5.664   6.544  13.418  0.1091 -0.0956 -0.9461
 1334TIP3   OH225492   1.593   3.191  14.847  0.1439 -0.1401  0.8855
 1334TIP3    H125493   1.654   3.237  14.789  0.6453 -0.7477  0.9144
 1334TIP3    H225494   1.510   3.193  14.800  0.1377  0.8223  0.9056
 1335TIP3   OH225495   3.094   0.677  15.027  0.5884  0.2169  0.1377
 1335TIP3    H125496   3.120   0.768  15.039  1.1070  0.0565  0.2279
 1335TIP3    H225497   3.027   0.681  14.959 -0.9240  0.9019  1.5939
 1336TIP3   OH225498   1.224   6.153   0.750  0.0040 -0.2207 -0.0010
 1336TIP3    H125499   1.168   6.224   0.721  1.0023  1.1727  1.3692
 1336TIP3    H225500   1.170   6.104   0.813  0.1109  0.7732  0.8842
 1337TIP3   OH225501   5.795   5.733   0.156  0.6641 -0.1398  0.1448
 1337TIP3    H125502   5.887   5.710   0.155  0.6907 -0.1251  1.0846
 1337TIP3    H225503   5.753   5.669   0.100  1.2268 -0.2438 -0.1602
 1338TIP3   OH225504   3.418   0.772   1.495 -0.6945 -0.3285 -0.1083
 1338TIP3    H125505   3.434   0.840   1.430  0.1499 -0.7408 -0.3418
 1338TIP3    H225506   3.440   0.690   1.451  0.0312 -0.6055  0.7329
 1339TIP3   OH225507   2.643   0.350   5.632  0.6306 -0.2152  0.0427
 1339TIP3    H125508   2.664   0.275   5.578  0.0827 -0.0080 -0.4697
 1339TIP3    H225509   2.715   0.412   5.617 -0.2310  0.4548 -1.6279
 1340TIP3   OH225510   2.380   4.304  13.881  0.7949  0.3542  0.3256
 1340TIP3    H125511   2.298   4.351  13.871 -0.1733 -1.2082  0.5906
 1340TIP3    H225512   2.391   4.292  13.975  0.1304 -1.3732  0.2248
 1341TIP3   OH225513   1.653   0.576  11.260  0.1128  0.5724  0.2425
 1341TIP3    H125514   1.592   0.546  11.193  0.2824 -0.0580  0.3665
 1341TIP3    H225515   1.666   0.500  11.316  1.0888  0.6705  0.1610
 1342TIP3   OH225516   6.138   3.021  14.291 -0.5600 -0.2785 -0.2731
 1342TIP3    H125517   6.107   2.973  14.213 -2.2473 -0.3711  0.4044
 1342TIP3    H225518   6.229   2.994  14.301 -0.6197 -1.0852 -1.6008
 1343TIP3   OH225519   0.856   3.982  12.620  0.5290  0.2166 -0.2174
 1343TIP3    H125520   0.880   3.892  12.602 -1.1511 -0.8197  2.1543
 1343TIP3    H225521   0.918   4.035  12.570  0.6473 -2.2073 -2.8531
 1344TIP3   OH225522   3.445   2.440  11.179 -0.5016 -0.3459  0.5070
 1344TIP3    H125523   3.434   2.391  11.097  1.2865 -1.6691  0.9916
 1344TIP3    H225524   3.357   2.442  11.217 -2.0028  2.5044 -2.5199
 1345TIP3   OH225525   6.503   2.118   1.994  0.4742  0.0985  0.2399
 1345TIP3    H125526   6.552   2.167   1.928  1.9601 -0.1421  1.1239
 1345TIP3    H225527   6.570   2.078   2.049 -0.6881  1.1504  2.5586
 1346TIP3   OH225528   5.285   4.038   4.366  0.0361  0.5138  0.0634
 1346TIP3    H125529   5.234   4.083   4.299  0.9620  2.6932  0.7337
 1346TIP3    H225530   5.296   4.103   4.436  3.6449  0.1855 -0.0119
 1347TIP3   OH225531   5.148   2.207  16.090 -0.2415  0.4922  0.1742
 1347TIP3    H125532   5.233   2.197  16.133 -1.3221  0.5643  2.4742
 1347TIP3    H225533   5.130   2.301  16.091 -0.3947  0.4737 -0.2615
 1348TIP3   OH225534   2.734   6.028   3.401  0.2226 -0.0449  0.1074
 1348TIP3    H125535   2.690   6.075   3.473 -1.2438 -0.0488 -0.7546
 1348TIP3    H225536   2.802   5.977   3.445 -1.6035 -1.2501  1.7187
 1349TIP3   OH225537   1.213   4.955   1.099  0.1934  0.4454 -0.1224
 1349TIP3    H125538   1.153   5.029   1.103  1.7774  1.7356  1.3563
 1349TIP3    H225539   1.286   4.987   1.045  1.1521  0.1784  0.9942
 1350TIP3   OH225540   0.737   1.232   5.423 -0.1608  0.3629 -0.0105
 1350TIP3    H125541   0.652   1.254   5.386 -0.6530  0.8030  1.3132
 1350TIP3    H225542   0.791   1.309   5.404 -0.2887  0.4211 -0.1420
 1351TIP3   OH225543   4.031   2.769   3.985  0.3611  0.6112 -0.4295
 1351TIP3    H125544   4.105   2.829   3.987  0.0261  1.1231 -1.7743
 1351TIP3    H225545   4.063   2.693   3.937  0.0274  0.8560 -1.0614
 1352TIP3   OH225546   3.674   2.673  12.815  0.6445 -0.4331  0.4237
 1352TIP3    H125547   3.666   2.595  12.870 -1.2628 -0.6504 -0.0845
 1352TIP3    H225548   3.747   2.654  12.757  1.5292 -0.9607  1.6741
 1353TIP3   OH225549   6.232   2.332   6.329  0.9039 -0.2791 -0.3600
 1353TIP3    H125550   6.179   2.375   6.395  1.7582 -0.5595  0.5351
 1353TIP3    H225551   6.235   2.395   6.256  1.0040  0.5964  0.3747
 1354TIP3   OH225552   5.027   4.462  12.670 -0.3075  0.0416  0.2603
 1354TIP3    H125553   4.984   4.511  12.740 -0.0673 -0.7671  1.0034
 1354TIP3    H225554   4.999   4.371  12.684 -0.0937 -0.1646 -0.5775
 1355TIP3   OH225555   2.298   6.407  15.663 -0.5329 -0.7082  0.1412
 1355TIP3    H125556   2.343   6.474  15.611 -1.8316 -1.4949 -2.1216
 1355TIP3    H225557   2.365   6.375  15.722  0.8288  0.7870 -0.4950
 1356TIP3   OH225558   0.527   1.542  15.329  0.1023  0.2484 -0.2926
 1356TIP3    H125559   0.558   1.609  15.268 -2.3716  1.1321 -0.7307
 1356TIP3    H225560   0.511   1.590  15.411  1.3767 -0.4949  0.4143
 1357TIP3   OH225561   4.056   0.090   0.616 -0.2080 -0.1779 -0.9856
 1357TIP3    H125562   3.976   0.108   0.567 -0.0945 -1.9669 -1.9285
 1357TIP3    H225563   4.026   0.046   0.696 -0.2123 -0.3899 -1.1016
 1358TIP3   OH225564   5.458   4.661  13.350 -0.7590  0.0078 -0.2572
 1358TIP3    H125565   5.464   4.757  13.352 -2.2902  0.1291  2.0772
 1358TIP3    H225566   5.515   4.632  13.421 -1.2653 -0.7356 -0.1467
 1359TIP3   OH225567   2.320   6.739   2.657  0.8820 -0.2611  0.1580
 1359TIP3    H125568   2.331   6.649   2.689  2.8619  0.0925  0.6167
 1359TIP3    H225569   2.272   6.783   2.726 -0.3686 -1.0216 -0.1985
 1360TIP3   OH225570   0.211   4.933  16.542 -0.8928  0.2605  0.3478
 1360TIP3    H125571   0.215   4.971  16.630  1.1894 -0.0574  0.4596
 1360TIP3    H225572   0.252   4.847  16.552  0.5665  0.7261 -1.1342
 1361TIP3   OH225573   1.298   3.696   2.484  0.2506 -0.2224  0.1623
 1361TIP3    H125574   1.294   3.601   2.485 -1.1754 -0.1828  1.0139
 1361TIP3    H225575   1.313   3.719   2.392 -1.1585 -1.2315 -0.3416
 1362TIP3   OH225576   1.794   0.521  13.441  0.2380 -0.4304  0.3301
 1362TIP3    H125577   1.772   0.477  13.358  0.7739 -0.4395  0.1937
 1362TIP3    H225578   1.709   0.536  13.483 -0.0019 -0.9114  0.0269
 1363TIP3   OH225579   0.974   1.763  16.095 -0.6234 -0.2350  0.4518
 1363TIP3    H125580   1.025   1.689  16.062  0.2200  0.2609  0.6380
 1363TIP3    H225581   0.961   1.742  16.188  2.1471  1.2010  1.2708
 1364TIP3   OH225582   5.127   0.350   0.118  0.1789  0.3619 -0.0992
 1364TIP3    H125583   5.161   0.377   0.033 -0.6905  0.1414 -0.5275
 1364TIP3    H225584   5.176   0.270   0.139  0.9428  0.8437 -0.0218
 1365TIP3   OH225585   6.381   4.330  13.829  0.8918  0.1081  0.3557
 1365TIP3    H125586   6.448   4.276  13.869 -1.2624 -1.8382  1.5789
 1365TIP3    H225587   6.308   4.328  13.891 -1.0581  0.4026 -1.7702
 1366TIP3   OH225588   2.275   2.621  14.248  0.0757 -0.4175 -0.9545
 1366TIP3    H125589   2.246   2.577  14.328  0.3816  0.6060 -0.2519
 1366TIP3    H225590   2.234   2.707  14.253  0.2005 -0.3011 -1.8491
 1367TIP3   OH225591   6.544   2.401  13.804  0.4654  0.0965  0.7126
 1367TIP3    H125592   6.463   2.450  13.797  0.8127  0.6407  0.4787
 1367TIP3    H225593   6.579   2.425  13.890  0.7675  0.4632  0.4872
 1368TIP3   OH225594   3.500   4.368   6.466  0.4450 -0.4842 -0.5724
 1368TIP3    H125595   3.503   4.431   6.394  2.5467  1.1007  0.8039
 1368TIP3    H225596   3.573   4.308   6.450  0.6534 -0.3894 -0.0081
 1369TIP3   OH225597   1.269   4.093  11.250 -0.8775 -0.5777  0.0236
 1369TIP3    H125598   1.253   4.044  11.169 -2.5039  0.6581 -0.4554
 1369TIP3    H225599   1.284   4.183  11.222 -2.0895  0.0014  1.0977
 1370TIP3   OH225600   4.252   0.844   4.238 -0.0949  0.1022  0.1458
 1370TIP3    H125601   4.181   0.779   4.234  1.1049 -1.3587  1.3822
 1370TIP3    H225602   4.279   0.855   4.146 -0.9139 -0.4593 -0.1818
 1371TIP3   OH225603   4.437   0.128  15.971 -0.4813  0.1524 -0.1233
 1371TIP3    H125604   4.384   0.168  15.903  1.4804  2.8146 -0.2674
 1371TIP3    H225605   4.507   0.083  15.924  1.6646  3.1228 -0.0910
 1372TIP3   OH225606   2.381   1.464  15.387  0.4426 -0.0559 -0.3081
 1372TIP3    H125607   2.358   1.555  15.409  0.4149 -0.3975  1.1788
 1372TIP3    H225608   2.412   1.469  15.296  2.9336  1.9050  0.5118
 1373TIP3   OH225609   3.776   1.693   1.767 -0.0455 -0.1592  0.8021
 1373TIP3    H125610   3.683   1.713   1.757 -0.1456 -0.7593  0.4897
 1373TIP3    H225611   3.785   1.664   1.858 -0.2446 -0.5074  0.7122
 1374TIP3   OH225612   2.232   0.071  10.991 -0.1710 -0.2162  0.0835
 1374TIP3    H125613   2.256   0.046  10.901  0.8776  0.0184  0.2858
 1374TIP3    H225614   2.138   0.051  10.997  0.2301 -2.4648 -0.3065
 1375TIP3   OH225615   5.116   3.242  13.301  0.3990  0.0411 -0.3785
 1375TIP3    H125616   5.185   3.218  13.240 -1.1385  0.2182 -2.2742
 1375TIP3    H225617   5.124   3.177  13.371  0.0885 -2.4209 -2.4685
 1376TIP3   OH225618   2.636   3.150  12.576 -0.5054 -0.0870 -0.5185
 1376TIP3    H125619   2.600   3.234  12.606  4.7531  1.5821  2.4865
 1376TIP3    H225620   2.657   3.166  12.484  0.1120  1.9147 -0.0980
 1377TIP3   OH225621   6.665   2.409  10.894 -0.2687 -0.0434  0.5104
 1377TIP3    H125622   6.611   2.409  10.814 -1.9549 -0.7598  1.5884
 1377TIP3    H225623   6.735   2.471  10.875 -1.7013  1.2655 -0.8399
 1378TIP3   OH225624   2.275   6.359   0.035 -0.5208 -0.6715 -0.0796
 1378TIP3    H125625   2.244   6.438   0.080  1.3951 -0.2885  0.6542
 1378TIP3    H225626   2.370   6.365   0.040 -0.3304 -3.2288  0.3407
 1379TIP3   OH225627   2.905   1.402   5.877 -0.2047  0.4359  0.8316
 1379TIP3    H125628   2.934   1.439   5.794  0.5792 -0.8852  0.4782
 1379TIP3    H225629   2.981   1.410   5.935  0.0592 -0.7310  0.6849
 1380TIP3   OH225630   4.993   0.685   0.193  0.8029  0.4289  0.1852
 1380TIP3    H125631   5.076   0.685   0.146  1.4094  1.9194  1.1780
 1380TIP3    H225632   4.958   0.773   0.181 -0.9029 -0.3128 -0.6151
 1381TIP3   OH225633   2.920   5.474  11.669 -0.1083 -0.0318 -0.0049
 1381TIP3    H125634   2.927   5.550  11.612  0.0661 -0.6912 -0.8907
 1381TIP3    H225635   2.902   5.401  11.609  0.8074 -0.8611  0.6972
 1382TIP3   OH225636   4.487   2.273  12.099 -0.0647  0.6350 -0.0900
 1382TIP3    H125637   4.556   2.237  12.043 -0.8699  0.6631 -1.1469
 1382TIP3    H225638   4.531   2.340  12.152  0.6913  0.7534 -0.8452
 1383TIP3   OH225639   4.958   5.316  14.621  0.2245  1.0956  0.4290
 1383TIP3    H125640   4.995   5.403  14.636 -2.5063  2.5452 -0.5294
 1383TIP3    H225641   4.865   5.332  14.606 -0.1454 -1.8753 -1.1278
 1384TIP3   OH225642   6.109   4.389   0.862 -0.7815 -0.6295  0.5943
 1384TIP3    H125643   6.171   4.382   0.789 -0.5310  1.8996  0.4830
 1384TIP3    H225644   6.163   4.396   0.940 -1.0235 -1.2611  0.8326
 1385TIP3   OH225645   1.768   3.994  16.182  0.5408  0.1121  0.3132
 1385TIP3    H125646   1.817   4.055  16.126  2.2370 -1.1698  0.3205
 1385TIP3    H225647   1.784   4.025  16.271 -1.0338  1.3426  0.2133
 1386TIP3   OH225648   6.613   3.615  13.095 -0.3766  0.2481  0.4005
 1386TIP3    H125649   6.539   3.669  13.066  1.0863  1.3790 -1.4935
 1386TIP3    H225650   6.656   3.668  13.162 -0.3884  0.2893  0.3758
 1387TIP3   OH225651   6.190   6.620   3.696  0.2468 -0.0158 -0.6381
 1387TIP3    H125652   6.177   6.708   3.733  2.0486 -0.2043  0.5803
 1387TIP3    H225653   6.107   6.575   3.711 -0.3989  1.1833 -0.4600
 1388TIP3   OH225654   2.494   6.679  15.953  0.1865 -0.2849  0.2889
 1388TIP3    H125655   2.406   6.681  15.915  0.4402 -0.9983 -0.3691
 1388TIP3    H225656   2.486   6.624  16.031 -0.1255  0.3442  0.7019
 1389TIP3   OH225657   0.529   6.119   1.331  0.2117 -0.0212  0.0341
 1389TIP3    H125658   0.438   6.118   1.302 -0.3170 -0.3456  1.5905
 1389TIP3    H225659   0.570   6.047   1.285 -0.8740 -1.2211  0.8722
 1390TIP3   OH225660   4.236   5.115  14.604  0.4071 -0.3544  0.0117
 1390TIP3    H125661   4.297   5.182  14.637  0.3666 -1.0236  1.5576
 1390TIP3    H225662   4.154   5.133  14.651 -0.0663 -0.5403 -0.7389
 1391TIP3   OH225663   1.438   4.907   0.801  0.1151 -0.7003 -0.6296
 1391TIP3    H125664   1.387   4.937   0.726 -0.2725 -0.4782 -0.2779
 1391TIP3    H225665   1.433   4.979   0.864 -0.4372 -1.3060  0.0328
 1392TIP3   OH225666   3.180   4.669  11.784  0.6465 -0.0618 -0.6001
 1392TIP3    H125667   3.271   4.688  11.761  0.6941 -0.6370 -0.8950
 1392TIP3    H225668   3.149   4.611  11.714  1.3480 -3.4117  1.6216
 1393TIP3   OH225669   3.149   2.657  12.572 -0.5640 -0.0430  0.4118
 1393TIP3    H125670   3.157   2.676  12.665  0.4877  0.5714  0.2122
 1393TIP3    H225671   3.166   2.741  12.529 -1.6053 -0.1850 -0.3294
 1394TIP3   OH225672   3.251   3.477   0.822  0.2248 -0.0394 -0.4147
 1394TIP3    H125673   3.305   3.496   0.745  0.6015 -0.5742 -0.2917
 1394TIP3    H225674   3.226   3.385   0.810 -0.2375  0.0576 -0.2107
 1395TIP3   OH225675   3.649   6.015  11.643  0.1207 -0.2953 -0.6140
 1395TIP3    H125676   3.707   6.043  11.714 -0.4519  0.6497 -0.4924
 1395TIP3    H225677   3.684   5.931  11.615  1.4528  0.1611 -0.4281
 1396TIP3   OH225678   5.258   5.972  15.135  0.0653 -0.2562 -0.0807
 1396TIP3    H125679   5.224   5.995  15.049 -1.3658 -2.7695 -0.2775
 1396TIP3    H225680   5.191   6.002  15.197  0.2827  0.0121  0.0284
 1397TIP3   OH225681   5.314   1.074   4.838  0.1272  0.6776  0.4473
 1397TIP3    H125682   5.249   1.084   4.769  0.9528  0.1484 -0.4365
 1397TIP3    H225683   5.386   1.132   4.813 -0.0004  1.2771  1.4211
 1398TIP3   OH225684   5.070   2.540  14.150  0.1879 -0.2799  0.3475
 1398TIP3    H125685   5.012   2.489  14.092  0.0842 -1.3755  1.3787
 1398TIP3    H225686   5.064   2.629  14.116  0.6523 -0.9738 -1.7556
 1399TIP3   OH225687   2.034   3.839  12.659 -0.0276 -0.5832 -0.0104
 1399TIP3    H125688   2.046   3.781  12.584  1.1999 -1.3017  0.7084
 1399TIP3    H225689   1.944   3.871  12.651 -0.1134 -1.1258 -1.4382
 1400TIP3   OH225690   6.563   3.240  12.353  0.2105  0.0864  0.1591
 1400TIP3    H125691   6.478   3.203  12.378 -0.2855  0.4325 -0.9795
 1400TIP3    H225692   6.548   3.334  12.350  0.7459  0.1785  0.3456
 1401TIP3   OH225693   1.440   0.361  15.332  0.0923 -0.3090 -0.2626
 1401TIP3    H125694   1.487   0.327  15.256  0.7268  0.8501 -0.4037
 1401TIP3    H225695   1.506   0.409  15.382 -0.6722  0.3430  0.1465
 1402TIP3   OH225696   4.428   5.140   3.204  0.3620  0.2873 -0.2951
 1402TIP3    H125697   4.494   5.076   3.176  0.6665  0.1741  0.6562
 1402TIP3    H225698   4.366   5.143   3.131  1.2692  0.1911 -1.0917
 1403TIP3   OH225699   0.523   1.826   1.521 -0.0825 -0.4405  0.3364
 1403TIP3    H125700   0.479   1.880   1.587 -0.5960 -0.9940  0.4580
 1403TIP3    H225701   0.613   1.858   1.520 -0.3177  0.2388  0.5921
 1404TIP3   OH225702   6.481   2.459  14.268  0.4040 -0.5696  0.1617
 1404TIP3    H125703   6.476   2.535  14.209 -0.0872 -0.3246  0.5120
 1404TIP3    H225704   6.415   2.477  14.336 -0.1416 -1.6004 -0.0815
 1405TIP3   OH225705   0.250   4.170  16.642 -0.1703 -0.0443 -0.3655
 1405TIP3    H125706   0.187   4.180  16.570 -0.0671  0.2672 -0.4132
 1405TIP3    H225707   0.334   4.194  16.604  0.1489 -1.4233 -0.5821
 1406TIP3   OH225708   2.013   2.508   1.959  0.6720 -0.3233  0.8006
 1406TIP3    H125709   2.080   2.496   2.026  0.5170 -1.4131  0.7894
 1406TIP3    H225710   2.060   2.508   1.876  0.6606 -1.2016  0.7858
 1407TIP3   OH225711   3.481   2.217   2.865 -0.5080  0.2915  0.2848
 1407TIP3    H125712   3.497   2.136   2.816 -0.2156  1.0375 -0.9024
 1407TIP3    H225713   3.529   2.206   2.947 -1.0765 -1.0267  0.4682
 1408TIP3   OH225714   2.917   1.119   1.750 -0.0731  0.3796  0.0939
 1408TIP3    H125715   2.871   1.040   1.720 -0.7224  0.5643  0.5676
 1408TIP3    H225716   2.849   1.170   1.796  0.4330  1.0202  0.1447
 1409TIP3   OH225717   5.513   4.112   2.675 -0.3977  0.3284  0.0240
 1409TIP3    H125718   5.572   4.038   2.657 -1.8258 -0.6913 -0.6860
 1409TIP3    H225719   5.555   4.187   2.634  2.4660  0.5797  3.0382
 1410TIP3   OH225720   4.382   2.288  10.882  0.7969 -0.2831  0.2054
 1410TIP3    H125721   4.308   2.306  10.939  1.6680 -0.6426  1.4885
 1410TIP3    H225722   4.433   2.369  10.882  1.1687 -0.5129  0.5240
 1411TIP3   OH225723   4.015   2.632  14.160  0.2624 -0.5209 -0.0726
 1411TIP3    H125724   3.929   2.668  14.140  0.1557 -0.6126  0.2254
 1411TIP3    H225725   4.035   2.576  14.085 -0.2636 -1.0884  0.2021
 1412TIP3   OH225726   5.162   1.477  13.951 -0.0263 -0.0658  0.5681
 1412TIP3    H125727   5.186   1.478  13.858 -0.2476 -0.2537  0.5082
 1412TIP3    H225728   5.113   1.557  13.964 -1.8179 -1.0180  0.0311
 1413TIP3   OH225729   5.093   3.370  12.311  0.0832  0.0992 -0.0234
 1413TIP3    H125730   5.094   3.396  12.219 -2.3547 -1.6324 -0.6693
 1413TIP3    H225731   5.175   3.403  12.347  2.8523 -2.0905 -3.6354
 1414TIP3   OH225732   5.701   5.708  15.981  0.3321  0.1793 -0.0194
 1414TIP3    H125733   5.708   5.632  16.039 -0.9327  1.1394  1.4893
 1414TIP3    H225734   5.648   5.677  15.907 -0.0135 -0.4631  0.4822
 1415TIP3   OH225735   0.056   2.621  12.291  0.7704  0.2575 -0.5419
 1415TIP3    H125736  -0.001   2.561  12.340 -0.2126  1.2985 -0.3790
 1415TIP3    H225737   0.144   2.602  12.323  0.3989 -0.6529 -0.0314
 1416TIP3   OH225738   2.528   5.573  12.049 -0.2610 -0.2267 -0.0591
 1416TIP3    H125739   2.623   5.579  12.052 -0.2506  0.1006 -0.9305
 1416TIP3    H225740   2.504   5.537  12.135  0.6680 -0.6712  0.0237
 1417TIP3   OH225741   2.026   3.920  12.284 -0.2002 -0.2537  0.1481
 1417TIP3    H125742   1.976   3.997  12.312  0.9089  0.1653  1.0439
 1417TIP3    H225743   2.098   3.955  12.232 -0.4395 -0.7974 -0.5636
 1418TIP3   OH225744   6.373   3.821  14.977 -0.1381  0.0093 -0.0975
 1418TIP3    H125745   6.360   3.912  14.951 -0.4794  0.6092  2.0151
 1418TIP3    H225746   6.455   3.795  14.935  1.1459  2.0204  1.0462
 1419TIP3   OH225747   3.927   4.554  15.422 -0.0479 -0.1016  0.2039
 1419TIP3    H125748   3.983   4.503  15.480  0.1139 -0.1174  0.0379
 1419TIP3    H225749   3.880   4.488  15.370 -1.2881 -0.1200  1.3138
 1420TIP3   OH225750   2.062   1.666   5.777  0.0425 -0.1525 -0.2237
 1420TIP3    H125751   2.098   1.618   5.852  1.2891  0.4934 -0.3763
 1420TIP3    H225752   1.981   1.620   5.756 -0.8018  0.1454  2.0450
 1421TIP3   OH225753   3.713   1.508   5.293  0.2669 -0.3359 -0.0747
 1421TIP3    H125754   3.633   1.498   5.346  0.0139  0.6363 -0.2541
 1421TIP3    H225755   3.694   1.460   5.213 -0.0778 -0.2433 -0.0507
 1422TIP3   OH225756   3.552   1.005   4.619 -0.0346 -0.0326 -0.8985
 1422TIP3    H125757   3.547   1.090   4.662  0.0107 -0.3664 -0.2113
 1422TIP3    H225758   3.580   1.024   4.530  1.2856  0.5793 -0.3864
 1423TIP3   OH225759   3.718   0.004  11.525 -1.1712 -0.0954 -0.4066
 1423TIP3    H125760   3.644   0.022  11.582 -0.1142 -1.3781  1.4642
 1423TIP3    H225761   3.735  -0.089  11.536  0.3497  0.0506 -1.2487
 1424TIP3   OH225762   4.893   2.516  13.935 -0.3523 -0.0723  0.2483
 1424TIP3    H125763   4.843   2.512  13.854 -0.9750 -1.7354  0.6721
 1424TIP3    H225764   4.861   2.594  13.980 -0.0357  0.8385 -1.0571
 1425TIP3   OH225765   0.697   6.263   4.967 -0.0646  0.1888  0.0534
 1425TIP3    H125766   0.763   6.224   5.024 -0.1064  0.4497  0.2795
 1425TIP3    H225767   0.734   6.348   4.943 -1.1547  1.1677  1.7196
 1426TIP3   OH225768   4.235   2.372   3.592  0.2224 -0.0591  0.1353
 1426TIP3    H125769   4.258   2.436   3.525  0.1779 -0.2404 -0.0558
 1426TIP3    H225770   4.295   2.299   3.578  0.0997 -0.1705  0.1820
 1427TIP3   OH225771   5.050   0.545   1.978 -0.3178  0.4408 -0.4595
 1427TIP3    H125772   5.039   0.628   2.024  0.7390  0.7770 -0.7714
 1427TIP3    H225773   5.142   0.522   1.992 -1.4538 -2.8959  3.2561
 1428TIP3   OH225774   3.566   4.586   2.477 -1.0699 -0.2630 -0.2531
 1428TIP3    H125775   3.531   4.580   2.566 -0.4564 -0.2970 -0.0143
 1428TIP3    H225776   3.659   4.607   2.488 -1.2475  1.0163 -0.8970
 1429TIP3   OH225777   5.384   3.586   0.416 -0.2368  0.2255 -0.0102
 1429TIP3    H125778   5.373   3.495   0.444 -0.1265  0.3809  0.5511
 1429TIP3    H225779   5.345   3.638   0.486  1.1946  0.6702  0.5041
 1430TIP3   OH225780   6.576   0.869  12.202  0.3371  0.2033 -0.3190
 1430TIP3    H125781   6.655   0.923  12.196  1.4620 -1.2648  0.4420
 1430TIP3    H225782   6.592   0.813  12.278 -2.0473  0.7626  0.6669
 1431TIP3   OH225783   6.748   2.453  15.506  0.6597  0.1060 -0.6506
 1431TIP3    H125784   6.788   2.539  15.490  0.9323  0.3500  1.1589
 1431TIP3    H225785   6.668   2.472  15.554  1.3918 -0.6964  0.9446
 1432TIP3   OH225786   4.026   6.539  13.513  0.2370  0.4376 -0.5599
 1432TIP3    H125787   4.021   6.630  13.541  0.5058  0.0219  0.8738
 1432TIP3    H225788   4.118   6.526  13.490  0.4978  0.1392  0.6188
 1433TIP3   OH225789   3.421   3.315  17.093  0.5663  0.0321  0.3530
 1433TIP3    H125790   3.412   3.231  17.048 -1.5515 -0.1788  1.0521
 1433TIP3    H225791   3.448   3.377  17.025  0.0753 -0.7984 -0.6207
 1434TIP3   OH225792   5.532   4.889  16.199 -0.1408 -0.4363  0.2310
 1434TIP3    H125793   5.570   4.880  16.286 -0.1984  1.0414  0.4336
 1434TIP3    H225794   5.470   4.816  16.192 -0.7430 -0.1089  1.7582
 1435TIP3   OH225795   1.331   6.503  12.777  0.3334 -0.1145 -0.3901
 1435TIP3    H125796   1.418   6.474  12.805  0.3193  0.9985  0.8644
 1435TIP3    H225797   1.270   6.449  12.828  0.2817 -0.0930 -0.4283
 1436TIP3   OH225798   2.697   1.565  15.288  0.4810  0.5852  0.2474
 1436TIP3    H125799   2.649   1.484  15.270  0.4998  0.2662  1.4838
 1436TIP3    H225800   2.648   1.606  15.359  2.0480  0.2006  1.6139
 1437TIP3   OH225801   5.683   0.825   0.842 -0.5671 -0.4405  0.0229
 1437TIP3    H125802   5.741   0.750   0.837 -0.9356 -0.6758 -1.0594
 1437TIP3    H225803   5.704   0.867   0.925  0.2811 -1.2150  0.2088
 1438TIP3   OH225804   3.811   5.399   1.689  0.1045  0.1905 -0.0265
 1438TIP3    H125805   3.732   5.438   1.725  0.4560  0.0708  0.8847
 1438TIP3    H225806   3.876   5.469   1.689  0.2937  0.0163  0.1808
 1439TIP3   OH225807   5.438   0.222  14.573 -0.2624  0.8906  0.0547
 1439TIP3    H125808   5.468   0.205  14.663 -1.2733  0.4513  0.3196
 1439TIP3    H225809   5.464   0.312  14.556 -1.2426  1.4327  1.2849
 1440TIP3   OH225810   0.801   3.835  15.996  0.5012 -0.0075 -0.0803
 1440TIP3    H125811   0.728   3.839  15.934  2.1298  2.2862 -2.0568
 1440TIP3    H225812   0.879   3.823  15.941  1.8807  0.4384  1.6725
 1441TIP3   OH225813   2.963   2.264  13.921  0.5082  0.3369 -0.7592
 1441TIP3    H125814   3.037   2.223  13.965 -0.1033 -0.3824 -0.3802
 1441TIP3    H225815   2.904   2.192  13.901 -1.2591  1.1462  1.2085
 1442TIP3   OH225816   2.149   2.342   3.757  0.2174  0.6567  0.1020
 1442TIP3    H125817   2.244   2.351   3.746  0.2811  0.4789  0.5129
 1442TIP3    H225818   2.138   2.307   3.845 -0.2959  2.0767  0.6275
 1443TIP3   OH225819   2.033   2.335  13.221 -0.6402  0.0494  0.2253
 1443TIP3    H125820   2.017   2.309  13.311 -3.4735  0.5481 -0.0133
 1443TIP3    H225821   2.006   2.259  13.169  3.1581 -1.1381 -0.2752
 1444TIP3   OH225822   2.959   1.355  17.018 -0.1055  0.5290  0.4896
 1444TIP3    H125823   2.892   1.335  16.952  0.0652 -1.8725  0.9466
 1444TIP3    H225824   3.009   1.428  16.980 -0.9350  0.2159 -1.3382
 1445TIP3   OH225825   5.666   4.607  16.792  0.3781 -0.6008  0.3801
 1445TIP3    H125826   5.586   4.585  16.840 -0.5079  1.0326 -0.2646
 1445TIP3    H225827   5.674   4.539  16.725  0.1412 -1.3843  1.1356
 1446TIP3   OH225828   2.429   5.166   5.279 -0.4045  0.4405 -0.3176
 1446TIP3    H125829   2.466   5.139   5.195  1.6576  2.0798 -0.0049
 1446TIP3    H225830   2.436   5.088   5.334 -0.4250 -0.2158 -1.2159
 1447TIP3   OH225831   3.643   6.099   4.616  0.1182 -0.4443  0.0597
 1447TIP3    H125832   3.726   6.108   4.662 -1.5316 -1.1713  3.5529
 1447TIP3    H225833   3.630   6.183   4.572  2.1973  0.0353  0.2816
 1448TIP3   OH225834   0.506   2.634   1.563 -0.5581  0.2758  0.1709
 1448TIP3    H125835   0.501   2.538   1.558  1.3845  0.1679 -0.1963
 1448TIP3    H225836   0.453   2.664   1.489  0.0016 -0.5613 -0.5933
 1449TIP3   OH225837   2.159   6.760   4.899  0.0735  0.1795 -0.8073
 1449TIP3    H125838   2.091   6.720   4.846 -0.3337 -0.5671  0.2354
 1449TIP3    H225839   2.116   6.781   4.982  0.6595  1.4081 -0.7862
 1450TIP3   OH225840   3.519   3.582  16.663  0.2759 -0.1139  0.7131
 1450TIP3    H125841   3.432   3.609  16.632  0.5323 -0.2986 -0.1945
 1450TIP3    H225842   3.505   3.495  16.700  0.1872 -0.4525 -0.0808
 1451TIP3   OH225843   3.713   4.917   5.373  0.1730  0.2231  0.4344
 1451TIP3    H125844   3.746   4.837   5.331  1.0227  0.4352  0.6763
 1451TIP3    H225845   3.785   4.946   5.429 -0.6610  0.3697  1.4636
 1452TIP3   OH225846   0.259   0.377   4.319  0.1334 -0.6050  0.2146
 1452TIP3    H125847   0.175   0.340   4.290  0.0650  0.6608 -1.3153
 1452TIP3    H225848   0.264   0.355   4.412 -1.5035 -1.4222  0.1444
 1453TIP3   OH225849   4.339   4.114   2.710 -0.1396  0.0946 -0.9388
 1453TIP3    H125850   4.377   4.195   2.677 -1.4015  0.7163 -0.9389
 1453TIP3    H225851   4.250   4.114   2.676 -0.6519 -0.5125  0.3452
 1454TIP3   OH225852   3.220   4.339  10.500  0.2513  0.6064 -0.1775
 1454TIP3    H125853   3.278   4.295  10.438  0.1795  1.5757 -0.9499
 1454TIP3    H225854   3.138   4.290  10.495  0.5033  0.1857 -0.2327
 1455TIP3   OH225855   2.156   3.215  15.467 -0.5331  0.0133  0.0435
 1455TIP3    H125856   2.119   3.127  15.481  0.5720 -0.5393 -0.3509
 1455TIP3    H225857   2.145   3.260  15.551 -3.9014  0.6115 -0.5906
 1456TIP3   OH225858   5.857   5.553   5.279  0.1498 -0.2951 -0.0934
 1456TIP3    H125859   5.897   5.635   5.304 -1.5865  0.0060  2.0761
 1456TIP3    H225860   5.912   5.485   5.320  0.4686 -0.1016 -0.2024
 1457TIP3   OH225861   5.443   4.322  16.407  0.2634  0.4474  0.0578
 1457TIP3    H125862   5.377   4.376  16.450 -0.7270  0.4111 -1.3606
 1457TIP3    H225863   5.422   4.232  16.433  0.5133  0.5414  0.5895
 1458TIP3   OH225864   5.036   3.396  13.605  0.1352  0.0284  0.2003
 1458TIP3    H125865   4.951   3.355  13.589  0.4618 -0.5144 -0.1869
 1458TIP3    H225866   5.099   3.323  13.604  1.0288  0.6907 -2.6091
 1459TIP3   OH225867   1.259   0.590  11.914  0.1225 -0.8662  0.1727
 1459TIP3    H125868   1.282   0.630  11.997 -0.4536 -0.6011  0.2144
 1459TIP3    H225869   1.343   0.574  11.870  0.3775  0.6610  0.0294
 1460TIP3   OH225870   4.799   0.023   1.518  0.5819  0.3407 -0.1597
 1460TIP3    H125871   4.842   0.089   1.571  2.6808  0.3838 -1.7951
 1460TIP3    H225872   4.754   0.072   1.449  0.2173  0.1504 -0.0641
 1461TIP3   OH225873   4.850   3.807  12.023  0.1856  0.7887 -0.2083
 1461TIP3    H125874   4.811   3.863  11.957 -0.1708  2.2088  1.1445
 1461TIP3    H225875   4.945   3.820  12.012  0.1716  0.2659 -1.0374
 1462TIP3   OH225876   6.655   5.617  10.561 -0.4352  0.2498  0.0825
 1462TIP3    H125877   6.623   5.604  10.650  2.2274 -2.8327  0.7551
 1462TIP3    H225878   6.700   5.701  10.564 -2.5555  1.4237  0.8701
 1463TIP3   OH225879   3.117   6.608   5.630 -0.7792  0.0472 -0.2231
 1463TIP3    H125880   3.197   6.589   5.582  0.7038  0.6184  1.8987
 1463TIP3    H225881   3.090   6.523   5.666 -1.4829 -0.2436 -1.3715
 1464TIP3   OH225882   4.219   0.876  13.135  0.2251 -0.0140 -0.2877
 1464TIP3    H125883   4.293   0.936  13.132  0.9305 -0.7531  1.0911
 1464TIP3    H225884   4.259   0.789  13.135 -0.6216 -0.4228  0.6643
 1465TIP3   OH225885   0.284   0.023  14.914  0.0396 -0.1245  0.2059
 1465TIP3    H125886   0.266  -0.028  14.992  1.6132  0.3993  0.9516
 1465TIP3    H225887   0.357  -0.022  14.872 -0.3204  0.0068 -0.5763
 1466TIP3   OH225888   6.435   3.637   0.893 -0.1737  0.5183 -0.3565
 1466TIP3    H125889   6.352   3.589   0.894 -1.1608  2.1646  0.7114
 1466TIP3    H225890   6.495   3.582   0.942 -1.7355  1.0316  2.3416
 1467TIP3   OH225891   5.123   4.599  12.111  0.2653  0.6862 -0.1367
 1467TIP3    H125892   5.092   4.689  12.099  0.7949  0.8698 -0.1577
 1467TIP3    H225893   5.167   4.600  12.196 -3.3129 -0.5656  1.9311
 1468TIP3   OH225894   2.445   3.004  14.218  0.0684  0.4340 -0.4101
 1468TIP3    H125895   2.421   2.953  14.140 -0.1336 -1.0585  0.5907
 1468TIP3    H225896   2.538   3.026  14.204  0.9476 -2.4167  0.2195
 1469TIP3   OH225897   3.353   0.046   0.639 -0.4730 -0.1583 -0.3975
 1469TIP3    H125898   3.439   0.053   0.597 -0.8666  1.8892 -0.9814
 1469TIP3    H225899   3.293   0.093   0.581 -2.0413 -1.6335 -0.0571
 1470TIP3   OH225900   4.385   1.344  16.540  0.3648  0.5381 -0.1450
 1470TIP3    H125901   4.452   1.385  16.594 -0.4072  1.4389  0.1474
 1470TIP3    H225902   4.336   1.288  16.600  0.6071  0.1797 -0.2789
 1471TIP3   OH225903   5.785   3.022  16.915 -0.5131  0.2657 -0.1712
 1471TIP3    H125904   5.789   3.094  16.852  0.6109  0.3778  0.0089
 1471TIP3    H225905   5.770   3.065  16.999  2.3030  0.5247  0.2687
 1472TIP3   OH225906   1.519   6.728  11.588 -0.0310 -0.2940  0.1444
 1472TIP3    H125907   1.601   6.722  11.538 -0.0097 -0.2624  0.1745
 1472TIP3    H225908   1.472   6.801  11.547  0.5952  0.6526  1.0367
 1473TIP3   OH225909   5.831   5.092   2.277 -0.3661  0.1672 -0.1056
 1473TIP3    H125910   5.765   5.162   2.270 -1.8751 -1.0657  1.0041
 1473TIP3    H225911   5.800   5.038   2.350  2.9711  0.6344  1.8401
 1474TIP3   OH225912   5.126   6.697   5.279  0.2641 -0.0493 -0.6613
 1474TIP3    H125913   5.056   6.746   5.236 -0.8352 -1.5090 -0.6225
 1474TIP3    H225914   5.184   6.764   5.316  1.0529  1.3056 -3.9775
 1475TIP3   OH225915   6.758   4.938   1.488  0.7551 -0.4301  0.2486
 1475TIP3    H125916   6.677   4.940   1.539  0.1477 -0.1542 -0.6850
 1475TIP3    H225917   6.793   5.027   1.495  0.0640 -0.0558 -0.7129
 1476TIP3   OH225918   1.120   0.881   4.473  0.0658  0.2804 -0.0039
 1476TIP3    H125919   1.126   0.817   4.544  0.6055 -1.2856 -1.3938
 1476TIP3    H225920   1.030   0.914   4.478  0.0824  0.1870  1.3597
 1477TIP3   OH225921   3.405   0.000  13.773  0.0180  0.3791  0.2564
 1477TIP3    H125922   3.473  -0.067  13.765  0.4676  0.8519  0.0064
 1477TIP3    H225923   3.367  -0.014  13.860  0.4159  0.0877  0.3855
 1478TIP3   OH225924   3.668   6.504  15.991 -0.5611  0.2524 -0.6042
 1478TIP3    H125925   3.678   6.409  15.987 -0.0750  0.2133  0.6682
 1478TIP3    H225926   3.758   6.537  15.990 -0.5973  0.5364  1.0867
 1479TIP3   OH225927   0.264   2.849  16.173  0.1799 -0.3391 -0.6601
 1479TIP3    H125928   0.240   2.831  16.082 -2.9859 -0.6831  0.1467
 1479TIP3    H225929   0.315   2.930  16.168 -1.2862  0.5407 -2.6305
 1480TIP3   OH225930   5.370   1.036   0.102 -0.0082 -0.2671  0.3332
 1480TIP3    H125931   5.313   1.078   0.037 -0.7747  0.3402  1.3773
 1480TIP3    H225932   5.456   1.074   0.085 -0.0811 -0.5023 -0.6558
 1481TIP3   OH225933   4.470   2.499  14.719  0.0896  0.2186  0.5452
 1481TIP3    H125934   4.478   2.563  14.790 -1.0541 -0.8509  1.6882
 1481TIP3    H225935   4.376   2.490  14.705  0.2083 -1.3455  0.5585
 1482TIP3   OH225936   3.218   4.762  12.843 -0.5440  0.0015  0.0406
 1482TIP3    H125937   3.284   4.720  12.898  0.9759  1.5807 -0.4767
 1482TIP3    H225938   3.182   4.691  12.790 -0.1354 -1.0933  1.1613
 1483TIP3   OH225939   1.168   0.407   5.145  0.2023 -0.1972 -0.2585
 1483TIP3    H125940   1.235   0.455   5.096 -0.6801 -0.6131 -1.9198
 1483TIP3    H225941   1.207   0.320   5.160 -0.1052 -0.5799 -1.5914
 1484TIP3   OH225942   5.124   1.549  15.756  0.3634  0.2642  0.4486
 1484TIP3    H125943   5.119   1.640  15.783 -0.2580  0.5427 -0.5705
 1484TIP3    H225944   5.051   1.537  15.696  0.8379 -0.7283  0.0404
 1485TIP3   OH225945   4.436   1.849   2.762 -0.0925 -0.2460  1.1004
 1485TIP3    H125946   4.368   1.891   2.708  2.1259  0.3745 -1.4341
 1485TIP3    H225947   4.405   1.759   2.774 -2.5264  0.6656  2.2659
 1486TIP3   OH225948   2.525   5.694  12.336  0.3742 -0.3847  0.5419
 1486TIP3    H125949   2.454   5.694  12.401 -0.1971 -2.5783 -0.0054
 1486TIP3    H225950   2.591   5.637  12.374  0.5109 -0.7947 -0.2983
 1487TIP3   OH225951   0.054   4.782  16.913  0.2162 -0.6051  0.1948
 1487TIP3    H125952  -0.016   4.747  16.859  1.8178 -1.5260 -1.3887
 1487TIP3    H225953   0.134   4.749  16.873  1.6985  2.1490  0.6335
 1488TIP3   OH225954   0.509   4.891  16.752  0.3381 -0.4875 -0.1567
 1488TIP3    H125955   0.477   4.978  16.775  1.0398 -0.5141  0.9759
 1488TIP3    H225956   0.569   4.905  16.680 -1.0383 -0.2678 -1.3030
 1489TIP3   OH225957   1.583   4.254  15.059 -0.3157 -0.1599 -0.2794
 1489TIP3    H125958   1.623   4.340  15.071  0.8814 -0.7345  0.0089
 1489TIP3    H225959   1.546   4.233  15.145 -0.1759 -0.1369 -0.2130
 1490TIP3   OH225960   3.225   5.050  16.650 -0.0691  0.0956  0.3905
 1490TIP3    H125961   3.280   5.100  16.590 -2.2445  1.9378 -0.2159
 1490TIP3    H225962   3.197   5.113  16.716  2.0314 -1.8096  3.3485
 1491TIP3   OH225963   4.436   6.269   7.018  0.0143 -0.1144  0.1120
 1491TIP3    H125964   4.455   6.353   6.978 -2.0829 -0.1759 -1.1558
 1491TIP3    H225965   4.521   6.237   7.048  0.9880  1.9989 -0.2315
 1492TIP3   OH225966   3.205   3.661  12.637  0.2909 -0.3838  0.1479
 1492TIP3    H125967   3.138   3.603  12.601 -0.9185  2.6648 -3.0817
 1492TIP3    H225968   3.156   3.720  12.694  1.3272 -1.6521  2.4939
 1493TIP3   OH225969   2.744   4.534  10.728  0.2486  0.3475  0.0275
 1493TIP3    H125970   2.827   4.554  10.684 -0.1507  2.4978  0.1432
 1493TIP3    H225971   2.685   4.507  10.657  0.8744 -0.5917 -0.1367
 1494TIP3   OH225972   2.213   6.344   5.203  0.1720 -0.3914 -0.1733
 1494TIP3    H125973   2.183   6.314   5.117  0.5351 -0.2304 -0.3612
 1494TIP3    H225974   2.217   6.265   5.256  1.0658 -0.6802 -0.6465
 1495TIP3   OH225975   6.756   3.372   3.931  0.1060 -0.1672 -0.4926
 1495TIP3    H125976   6.833   3.427   3.943  0.5055  0.0793 -3.4506
 1495TIP3    H225977   6.792   3.284   3.915 -0.0787  0.1306 -2.8864
 1496TIP3   OH225978   0.440   5.569  15.434 -0.0599 -0.4452 -0.6077
 1496TIP3    H125979   0.490   5.610  15.504 -1.5142  2.1656 -0.9854
 1496TIP3    H225980   0.395   5.496  15.477 -0.9458  1.1164  1.2286
 1497TIP3   OH225981   6.415   6.390  12.835 -0.0011  0.4609  0.3180
 1497TIP3    H125982   6.370   6.306  12.828  0.6888 -0.1206  2.1542
 1497TIP3    H225983   6.505   6.371  12.809  0.8062 -0.0658  3.1305
 1498TIP3   OH225984   2.250   5.851   4.039 -0.1371  0.1041 -0.0728
 1498TIP3    H125985   2.180   5.864   4.104 -1.1179 -0.0093 -1.0784
 1498TIP3    H225986   2.323   5.816   4.090 -0.8640  0.0761  0.9889
 1499TIP3   OH225987   3.216   0.688  12.303 -0.2058 -0.2070  0.1768
 1499TIP3    H125988   3.188   0.704  12.393 -0.9076 -0.4109  0.0022
 1499TIP3    H225989   3.311   0.683  12.308 -0.1757  0.6813  0.7593
 1500TIP3   OH225990   4.866   6.315   5.645 -0.3194  0.2347 -0.0593
 1500TIP3    H125991   4.960   6.335   5.650 -0.2059 -0.4539  0.7534
 1500TIP3    H225992   4.850   6.256   5.719 -2.0383  2.8116  1.7688
 1501TIP3   OH225993   4.701   1.553   5.698  0.7627  0.4320 -0.0805
 1501TIP3    H125994   4.643   1.480   5.718  2.6086 -1.3552 -0.8815
 1501TIP3    H225995   4.761   1.557   5.773  1.1133  0.6486 -0.3709
 1502TIP3   OH225996   3.300   1.333   1.734  0.0774  0.4984  0.1551
 1502TIP3    H125997   3.382   1.287   1.752  1.2647  2.8546  1.2413
 1502TIP3    H225998   3.238   1.299   1.798  0.5083 -0.5346  0.0421
 1503TIP3   OH225999   1.353   3.421  11.568 -0.2191 -0.3232  0.1294
 1503TIP3    H126000   1.346   3.435  11.662 -0.3812  1.8926 -0.1644
 1503TIP3    H226001   1.443   3.390  11.555 -0.2468 -0.8041  1.0043
 1504TIP3   OH226002   4.163   0.633   1.353 -0.4557  0.0734 -0.1138
 1504TIP3    H126003   4.089   0.692   1.366 -0.5938 -0.0244 -0.4457
 1504TIP3    H226004   4.194   0.614   1.442 -1.8281 -1.1417  0.1554
 1505TIP3   OH226005   2.031   3.218   4.239 -0.3492 -0.4204 -0.1699
 1505TIP3    H126006   2.063   3.157   4.305  0.8470  0.3100 -0.0415
 1505TIP3    H226007   2.001   3.294   4.290 -2.7656 -1.2352 -0.2530
 1506TIP3   OH226008   6.766   2.862  12.154 -0.7899  0.5510 -0.1112
 1506TIP3    H126009   6.836   2.920  12.183 -1.1843  0.3602  1.2891
 1506TIP3    H226010   6.778   2.781  12.205  0.3484 -1.0620 -2.7066
 1507TIP3   OH226011   0.197   4.285  15.448 -0.1326  0.4717 -0.2000
 1507TIP3    H126012   0.128   4.338  15.409 -0.8448 -0.9640 -0.9747
 1507TIP3    H226013   0.258   4.268  15.376 -0.4490 -0.5881 -0.2361
 1508TIP3   OH226014   5.256   6.723  13.677 -0.3017 -0.1009 -0.3617
 1508TIP3    H126015   5.319   6.681  13.619  0.5478  0.8868 -0.1798
 1508TIP3    H226016   5.207   6.651  13.717 -1.7136 -0.7982 -3.1323
 1509TIP3   OH226017   0.268   3.703   5.155  0.4185  0.5236  0.0575
 1509TIP3    H126018   0.183   3.724   5.194 -0.0532  0.6897 -1.0220
 1509TIP3    H226019   0.248   3.678   5.065  1.1505 -2.7380  0.6713
 1510TIP3   OH226020   6.467   0.231   3.486 -0.0842 -0.0420 -0.5001
 1510TIP3    H126021   6.486   0.264   3.574  1.1275 -0.2138 -0.6690
 1510TIP3    H226022   6.486   0.138   3.491  0.5724  0.0518 -1.0837
 1511TIP3   OH226023   6.148   0.369   5.334 -0.2657  0.4671 -0.0724
 1511TIP3    H126024   6.183   0.340   5.250 -0.3008 -0.1680  0.1306
 1511TIP3    H226025   6.222   0.410   5.378 -0.3257  1.1019 -0.5391
 1512TIP3   OH226026   3.758   0.149  13.766  0.1748 -0.6186 -0.4688
 1512TIP3    H126027   3.822   0.080  13.784 -0.7776 -1.3321  0.2662
 1512TIP3    H226028   3.692   0.138  13.834 -0.6910  0.1551 -1.1714
 1513TIP3   OH226029   3.201   0.427  15.805 -0.0007 -0.2315 -0.3311
 1513TIP3    H126030   3.151   0.499  15.767  0.9286  1.0372  0.7760
 1513TIP3    H226031   3.282   0.423  15.755 -0.8933 -1.9429 -1.7749
 1514TIP3   OH226032   5.934   2.662  13.357 -0.2084  0.4090  0.7109
 1514TIP3    H126033   6.012   2.630  13.310 -0.6946 -0.4958  0.5009
 1514TIP3    H226034   5.871   2.681  13.288 -0.6879 -0.2648  0.9623
 1515TIP3   OH226035   5.188   6.073  12.919 -0.6685 -0.4509  0.1651
 1515TIP3    H126036   5.156   6.142  12.978  0.8475 -1.2654  2.0748
 1515TIP3    H226037   5.203   5.998  12.977  0.5888 -1.4189 -1.3495
 1516TIP3   OH226038   4.861   5.231   2.969  0.0326  0.1477  0.5486
 1516TIP3    H126039   4.789   5.175   2.941  0.1301 -0.2308  1.0507
 1516TIP3    H226040   4.938   5.194   2.925  0.0729 -0.0183  0.7593
 1517TIP3   OH226041   6.110   3.626  11.686 -1.0509 -0.6837  0.0007
 1517TIP3    H126042   6.105   3.678  11.606  0.3273 -0.5745 -0.0270
 1517TIP3    H226043   6.036   3.565  11.679 -1.3797 -0.1912 -0.9989
 1518TIP3   OH226044   0.375   1.440  11.672  0.2625  0.2991  0.1573
 1518TIP3    H126045   0.462   1.425  11.633  0.1147 -0.9951  0.2652
 1518TIP3    H226046   0.315   1.397  11.612 -0.1936  0.2649  0.6316
 1519TIP3   OH226047   3.671   4.467   1.117  0.0479 -0.0250  0.0696
 1519TIP3    H126048   3.761   4.455   1.087  0.2429  0.5766  0.3853
 1519TIP3    H226049   3.625   4.389   1.088  0.6712 -0.3322 -0.1102
 1520TIP3   OH226050   1.442   2.098  15.410 -0.0586  0.3870 -0.2490
 1520TIP3    H126051   1.362   2.141  15.380 -0.5790 -0.7487 -0.5630
 1520TIP3    H226052   1.417   2.054  15.491  0.0332 -0.5725 -0.7241
 1521TIP3   OH226053   3.302   1.991  16.553  0.1530  0.3560 -0.2037
 1521TIP3    H126054   3.236   1.935  16.593 -0.6867  0.5714 -1.2376
 1521TIP3    H226055   3.376   1.988  16.613  0.0265 -1.6223 -0.0837
 1522TIP3   OH226056   4.365   6.523   4.431 -0.1790  0.3122 -0.1455
 1522TIP3    H126057   4.294   6.587   4.436  0.6077  1.1188  1.6838
 1522TIP3    H226058   4.357   6.484   4.344 -2.1855  1.1449 -0.3781
 1523TIP3   OH226059   5.812   1.732   3.689 -0.1747  0.1932 -0.3204
 1523TIP3    H126060   5.840   1.777   3.610 -1.5108  0.1237 -0.8516
 1523TIP3    H226061   5.846   1.785   3.761  0.7030  0.4739 -0.9313
 1524TIP3   OH226062   3.921   3.833   4.114 -0.2554 -0.3611 -0.0813
 1524TIP3    H126063   3.935   3.927   4.112  0.2374 -0.4397 -0.5539
 1524TIP3    H226064   3.874   3.817   4.197 -2.5038  0.5787 -1.0970
 1525TIP3   OH226065   3.808   5.904  16.913 -0.4434 -0.4665  0.2870
 1525TIP3    H126066   3.788   5.985  16.959 -0.8846 -0.9364  0.9355
 1525TIP3    H226067   3.814   5.838  16.981  0.7944 -0.8328 -0.1387
 1526TIP3   OH226068   1.904   3.943  13.537  0.0274  0.0895  0.0644
 1526TIP3    H126069   1.927   4.036  13.537 -1.4426  0.4871 -0.5789
 1526TIP3    H226070   1.820   3.940  13.582 -2.1272 -0.2707 -3.5789
 1527TIP3   OH226071   5.864   1.240   4.114  0.3776 -0.4015 -0.0565
 1527TIP3    H126072   5.930   1.286   4.165  0.5636 -3.3658  2.6648
 1527TIP3    H226073   5.915   1.190   4.049  0.5083 -0.0918 -0.1955
 1528TIP3   OH226074   3.527   4.631   4.701 -0.4788  0.0939  0.0979
 1528TIP3    H126075   3.562   4.559   4.753  2.1140  0.1066 -1.4482
 1528TIP3    H226076   3.530   4.707   4.759  0.6876 -0.2439  0.5098
 1529TIP3   OH226077   5.116   3.605   6.094 -0.1266  0.1794 -0.7666
 1529TIP3    H126078   5.169   3.602   6.174  0.8709  1.5788 -1.3232
 1529TIP3    H226079   5.056   3.678   6.109 -0.5966 -0.1781 -0.9100
 1530TIP3   OH226080   6.566   4.051  17.151 -0.5277  0.5574 -0.4849
 1530TIP3    H126081   6.642   3.994  17.154 -1.1026 -0.2089 -0.0027
 1530TIP3    H226082   6.493   3.993  17.127 -1.0777  1.1333 -0.2436
 1531TIP3   OH226083   0.846   3.879  11.031  0.0044  0.1433  0.3382
 1531TIP3    H126084   0.870   3.905  10.942 -2.2483  0.9121 -0.1027
 1531TIP3    H226085   0.861   3.958  11.084  2.5692 -0.6627  0.9929
 1532TIP3   OH226086   5.046   1.667  16.331 -0.4062  0.5384  0.5713
 1532TIP3    H126087   5.139   1.689  16.331 -0.2843  0.1827 -0.9973
 1532TIP3    H226088   5.041   1.579  16.367  0.1663 -0.3164 -1.2806
 1533TIP3   OH226089   0.958   4.376  15.364 -0.0673  0.4828  0.8820
 1533TIP3    H126090   1.016   4.305  15.334 -0.7478  0.1445  0.3434
 1533TIP3    H226091   0.990   4.397  15.452  0.9476  0.3836  0.5545
 1534TIP3   OH226092   6.679   4.123   5.283  0.4813 -0.6819 -0.2842
 1534TIP3    H126093   6.667   4.143   5.190 -0.6035 -0.4891 -0.1182
 1534TIP3    H226094   6.760   4.168   5.307  0.9822 -1.0608 -1.2249
 1535TIP3   OH226095   4.437   5.268   1.922 -0.2727  0.1095 -0.3752
 1535TIP3    H126096   4.357   5.259   1.974 -0.3043  0.7263 -0.3157
 1535TIP3    H226097   4.460   5.178   1.899 -0.7097 -0.1099  0.0213
 1536TIP3   OH226098   5.713   0.013  16.177 -0.2968 -0.4553 -0.4745
 1536TIP3    H126099   5.628  -0.028  16.160 -0.4253 -1.3400  1.7975
 1536TIP3    H226100   5.777  -0.056  16.157 -0.3511 -0.9097  0.8067
 1537TIP3   OH226101   1.411   6.421   1.515  0.6355  0.2813  0.3519
 1537TIP3    H126102   1.393   6.435   1.422 -0.2795  1.1971  0.6451
 1537TIP3    H226103   1.427   6.327   1.522 -4.1255 -0.7988 -0.0274
 1538TIP3   OH226104   5.757   5.112   0.161  0.0902 -0.3978 -0.3304
 1538TIP3    H126105   5.754   5.077   0.072 -2.9818 -0.7796 -0.1745
 1538TIP3    H226106   5.787   5.202   0.151 -1.4867 -0.0108 -1.9442
 1539TIP3   OH226107   5.727   0.726   2.909  0.3625 -0.7210 -0.1591
 1539TIP3    H126108   5.765   0.808   2.941 -0.0675  0.0136 -1.4946
 1539TIP3    H226109   5.704   0.743   2.818 -3.2146 -1.1108  0.5489
 1540TIP3   OH226110   5.348   3.921  17.201 -0.2699 -0.1690  0.3842
 1540TIP3    H126111   5.305   3.998  17.237 -1.4057 -0.7654  0.3454
 1540TIP3    H226112   5.345   3.934  17.106  2.0238  1.0268  0.3930
 1541TIP3   OH226113   0.143   4.487   3.976 -0.1077 -0.0672 -0.0152
 1541TIP3    H126114   0.186   4.512   4.058  0.2213 -1.0961  0.1394
 1541TIP3    H226115   0.215   4.468   3.916 -0.2751 -2.4702  0.4468
 1542TIP3   OH226116   1.508   1.656  11.865  0.2186 -0.6643 -0.2961
 1542TIP3    H126117   1.426   1.686  11.825  0.0496 -2.0426 -1.0590
 1542TIP3    H226118   1.560   1.624  11.791  2.5468  2.4210 -0.1866
 1543TIP3   OH226119   5.151   5.145   0.889 -0.4963 -0.3225 -0.5140
 1543TIP3    H126120   5.154   5.088   0.965 -0.4377 -1.9387 -1.6652
 1543TIP3    H226121   5.182   5.090   0.817 -0.9273  1.0238 -1.7752
 1544TIP3   OH226122   2.410   2.977  11.650 -0.0828  0.1037  0.5033
 1544TIP3    H126123   2.466   3.019  11.716  0.6767 -1.3865  0.8406
 1544TIP3    H226124   2.471   2.952  11.580 -0.7055  0.5542 -0.2206
 1545TIP3   OH226125   3.129   4.603   3.048  0.6567  0.3978 -0.2145
 1545TIP3    H126126   3.087   4.520   3.074 -0.7657  1.2581  0.3607
 1545TIP3    H226127   3.194   4.620   3.116  2.1527 -1.0480 -1.2084
 1546TIP3   OH226128   4.504   5.945  14.470 -0.3168 -0.1861  0.7505
 1546TIP3    H126129   4.522   6.039  14.462 -0.4054 -0.1191  1.2951
 1546TIP3    H226130   4.409   5.937  14.460 -0.1872 -0.3601 -0.5022
 1547TIP3   OH226131   0.780   1.425   2.243 -0.0699 -0.0602 -0.0480
 1547TIP3    H126132   0.727   1.489   2.195  0.7770  0.2018 -0.6574
 1547TIP3    H226133   0.868   1.462   2.243 -0.3098  0.8505  3.2727
 1548TIP3   OH226134   1.199   4.354  17.433  0.4588 -0.7388  0.0176
 1548TIP3    H126135   1.210   4.433  17.380  0.8943 -0.9322 -0.1915
 1548TIP3    H226136   1.225   4.283  17.374 -2.3590 -1.3189 -0.6694
 1549TIP3   OH226137   4.058   2.963   2.754  0.1549 -0.2347  0.1867
 1549TIP3    H126138   4.087   2.903   2.686  0.4029  0.6073 -0.4737
 1549TIP3    H226139   3.965   2.976   2.737  0.2407  0.0654 -0.0826
 1550TIP3   OH226140   0.269   4.407  11.243  0.5461  0.7179 -0.2514
 1550TIP3    H126141   0.197   4.447  11.193  0.8217  0.6654 -0.6947
 1550TIP3    H226142   0.313   4.350  11.180 -1.3612 -2.3190  0.9740
 1551TIP3   OH226143   5.058   5.950   3.432  0.5096  0.6874 -0.2745
 1551TIP3    H126144   4.983   5.897   3.459  0.3078  0.9596 -0.2966
 1551TIP3    H226145   5.052   6.028   3.486  0.6654  0.7961 -0.4157
 1552TIP3   OH226146   0.874   2.181  14.489  0.4164  0.2604 -0.1371
 1552TIP3    H126147   0.864   2.097  14.446 -1.1882  0.3947 -0.0829
 1552TIP3    H226148   0.950   2.170  14.546 -0.0812 -1.3186  0.2655
 1553TIP3   OH226149   0.336   6.189   6.224  0.5007  0.6473 -0.4416
 1553TIP3    H126150   0.262   6.137   6.254  0.7403  1.1324  1.0840
 1553TIP3    H226151   0.405   6.125   6.206 -0.3407  0.1639 -2.1777
 1554TIP3   OH226152   5.114   6.335  15.144  0.2337  0.7277 -1.1745
 1554TIP3    H126153   5.173   6.347  15.218  1.1332  0.4687 -1.8435
 1554TIP3    H226154   5.076   6.248  15.158 -0.2100  1.0027 -0.6059
 1555TIP3   OH226155   0.362   6.444  13.520 -0.2536  0.5806 -0.1947
 1555TIP3    H126156   0.382   6.467  13.611  2.1458 -0.4788 -0.3816
 1555TIP3    H226157   0.365   6.348  13.519  2.4053  0.5911 -1.8551
 1556TIP3   OH226158   3.430   5.612   4.875 -0.7029 -0.1320  0.0016
 1556TIP3    H126159   3.385   5.658   4.804 -2.5810 -0.1633  1.1105
 1556TIP3    H226160   3.512   5.660   4.886 -0.7697  0.4090 -1.5763
 1557TIP3   OH226161   3.162   3.537   5.574  0.3440 -0.1244  0.3320
 1557TIP3    H126162   3.102   3.608   5.550  0.3043  0.0484  0.9320
 1557TIP3    H226163   3.127   3.501   5.655  1.1005  0.0494  0.7539
 1558TIP3   OH226164   5.630   6.002   1.535  0.3516  0.2593 -0.4496
 1558TIP3    H126165   5.648   6.090   1.566  0.1280  0.7644 -1.7262
 1558TIP3    H226166   5.716   5.963   1.520  0.4406  0.5776 -0.7610
 1559TIP3   OH226167   5.300   2.494   2.020  0.3219  0.1845 -0.4041
 1559TIP3    H126168   5.262   2.580   2.005  2.8927  1.6866  0.9126
 1559TIP3    H226169   5.323   2.461   1.933  0.3363  1.3689 -0.8589
 1560TIP3   OH226170   6.672   3.831   5.537  0.0720  0.4643  0.2341
 1560TIP3    H126171   6.704   3.741   5.543  1.8057  1.1509  2.6382
 1560TIP3    H226172   6.744   3.879   5.496 -0.0702  1.1086  0.7347
 1561TIP3   OH226173   3.005   1.770  12.245  0.0554  0.3751  0.2674
 1561TIP3    H126174   3.015   1.865  12.255 -0.7532  0.2982  2.4404
 1561TIP3    H226175   2.920   1.751  12.284  1.1125 -1.4972  1.8345
 1562TIP3   OH226176   1.578   3.410   3.628 -0.0339  0.7838 -0.0727
 1562TIP3    H126177   1.492   3.450   3.638  0.9221  3.3795 -1.2024
 1562TIP3    H226178   1.631   3.450   3.696  0.2968 -0.8677  0.6795
 1563TIP3   OH226179   3.373   6.186   0.282 -0.3469  0.2902  0.1506
 1563TIP3    H126180   3.384   6.097   0.316  0.0305  0.6012  0.8782
 1563TIP3    H226181   3.289   6.214   0.317 -0.3561  0.3029  0.1180
 1564TIP3   OH226182   3.374   1.496  15.244 -0.1791 -0.6442  0.0086
 1564TIP3    H126183   3.288   1.512  15.205  0.0967 -0.1790 -0.4274
 1564TIP3    H226184   3.431   1.563  15.204  0.2869 -0.6735  0.6129
 1565TIP3   OH226185   3.854   4.319   5.289  0.8403  0.7544 -0.6586
 1565TIP3    H126186   3.848   4.364   5.373 -0.6217 -1.8077  0.7466
 1565TIP3    H226187   3.764   4.296   5.268  1.5220 -2.5987 -0.5212
 1566TIP3   OH226188   6.112   3.630  14.938 -0.2468  0.3585 -0.1282
 1566TIP3    H126189   6.163   3.689  14.992 -0.2922  1.7943 -1.5653
 1566TIP3    H226190   6.176   3.590  14.879 -0.5184  0.8364 -0.7662
 1567TIP3   OH226191   4.195   2.149   0.614  0.4985  0.5156 -0.3516
 1567TIP3    H126192   4.223   2.098   0.538  0.9862  2.5634 -1.6365
 1567TIP3    H226193   4.105   2.177   0.593  0.9220  1.7671 -0.5887
 1568TIP3   OH226194   3.753   0.228  15.533  0.0097 -0.3366  0.3086
 1568TIP3    H126195   3.671   0.183  15.511 -0.9457  0.8064  1.4538
 1568TIP3    H226196   3.812   0.205  15.461 -1.7298 -0.0673 -1.2686
 1569TIP3   OH226197   4.066   6.310   4.974  0.2055  0.2674 -0.3304
 1569TIP3    H126198   4.068   6.231   4.921 -2.2729 -0.3177  0.3058
 1569TIP3    H226199   4.128   6.370   4.932  2.5740 -2.1345 -0.5142
 1570TIP3   OH226200   5.650   4.868  16.494  0.2120 -0.0053 -0.0439
 1570TIP3    H126201   5.636   4.777  16.523  2.3167  0.2897  2.2312
 1570TIP3    H226202   5.578   4.917  16.534  2.3472  0.1729  4.1580
 1571TIP3   OH226203   6.411   0.351  14.669  0.2954  0.2996 -0.0303
 1571TIP3    H126204   6.383   0.274  14.620  0.9642  0.1229 -0.1379
 1571TIP3    H226205   6.500   0.330  14.698  0.8435  1.4170 -0.8707
 1572TIP3   OH226206   4.316   2.459  13.194  0.2192 -1.3122 -0.3710
 1572TIP3    H126207   4.403   2.487  13.222  0.1261 -2.1251  0.7472
 1572TIP3    H226208   4.302   2.506  13.111  1.9737 -1.6625 -0.8991
 1573TIP3   OH226209   4.624   1.859   5.663  0.0453  0.2047 -0.5980
 1573TIP3    H126210   4.628   1.765   5.648 -1.4161  0.1724 -0.9218
 1573TIP3    H226211   4.546   1.871   5.718 -0.4323  1.3175 -1.4828
 1574TIP3   OH226212   5.195   4.082   4.095 -0.9713  0.0056  0.2320
 1574TIP3    H126213   5.188   4.158   4.038 -0.5663 -1.2715 -1.6009
 1574TIP3    H226214   5.105   4.055   4.111 -1.1948 -2.2229 -3.5722
 1575TIP3   OH226215   2.570   0.868   1.082 -0.4391 -0.4093 -0.1082
 1575TIP3    H126216   2.499   0.856   1.019  0.9067  0.8222 -2.0276
 1575TIP3    H226217   2.619   0.786   1.079 -0.7559 -0.5958 -0.1790
 1576TIP3   OH226218   2.969   1.597  15.390 -0.4600 -0.2299 -0.3036
 1576TIP3    H126219   2.875   1.582  15.375 -0.5165  1.5125 -2.1809
 1576TIP3    H226220   2.972   1.655  15.466 -1.0631  0.8648 -1.0662
 1577TIP3   OH226221   3.688   4.713  11.559  0.4858  0.1268 -0.5277
 1577TIP3    H126222   3.712   4.667  11.639 -0.2173  1.9442  0.7883
 1577TIP3    H226223   3.732   4.797  11.565  0.3037  0.3584 -1.9935
 1578TIP3   OH226224   1.449   0.553   3.781 -0.0534 -0.4103  0.2114
 1578TIP3    H126225   1.540   0.580   3.790 -0.3412  0.8542 -0.4210
 1578TIP3    H226226   1.435   0.491   3.853  1.2069 -0.3886  0.4994
 1579TIP3   OH226227   6.219   0.835   6.351 -0.1413  0.3583 -0.2564
 1579TIP3    H126228   6.220   0.783   6.432  0.7263  3.4717  1.9440
 1579TIP3    H226229   6.135   0.880   6.353 -0.4239 -0.0670 -1.5431
 1580TIP3   OH226230   5.961   1.903   3.870 -0.2013 -0.0057 -0.2908
 1580TIP3    H126231   5.985   1.915   3.962 -0.3350  2.8108 -0.5330
 1580TIP3    H226232   6.045   1.887   3.826 -0.3034 -3.1341  0.4546
 1581TIP3   OH226233   1.689   2.466  14.352  0.1754 -0.3624 -0.1026
 1581TIP3    H126234   1.745   2.389  14.341  0.1388 -0.5428  0.8735
 1581TIP3    H226235   1.663   2.464  14.444  1.8399  1.9525  0.5055
 1582TIP3   OH226236   6.363   2.398  13.289  0.1894 -0.4650  0.3545
 1582TIP3    H126237   6.445   2.373  13.247  0.2162 -0.9154  0.6643
 1582TIP3    H226238   6.311   2.317  13.287  0.8496 -1.0192  2.7794
 1583TIP3   OH226239   6.710   5.234  17.071  0.4077 -0.2969 -0.3221
 1583TIP3    H126240   6.752   5.163  17.022  0.3898 -1.2220  0.9675
 1583TIP3    H226241   6.746   5.227  17.159  0.6653  1.5325 -0.2477
 1584TIP3   OH226242   1.273   3.731  11.971 -0.0372 -0.0690  0.1636
 1584TIP3    H126243   1.268   3.811  11.918  2.3517  1.2137  1.6706
 1584TIP3    H226244   1.209   3.745  12.040 -0.9553 -0.3432 -0.6104
 1585TIP3   OH226245   4.738   3.501  16.292 -0.7664  0.4758  0.3458
 1585TIP3    H126246   4.783   3.502  16.207 -1.2874 -1.4819 -0.0040
 1585TIP3    H226247   4.807   3.524  16.354 -0.5726  2.8561 -0.6150
 1586TIP3   OH226248   5.793   1.955   2.655 -0.6002 -0.1695  0.7156
 1586TIP3    H126249   5.817   2.029   2.599  0.0986 -1.0433 -0.1846
 1586TIP3    H226250   5.813   1.878   2.602  1.1175 -1.0641  2.5359
 1587TIP3   OH226251   1.093   0.808  12.913 -0.0494 -0.1333 -0.0804
 1587TIP3    H126252   1.017   0.864  12.929 -1.9152 -2.9737  1.8566
 1587TIP3    H226253   1.156   0.832  12.982  0.2049  1.1166 -0.7140
 1588TIP3   OH226254   4.914   0.440  16.481 -0.2178  0.7685  0.0583
 1588TIP3    H126255   4.916   0.494  16.402 -1.6186 -0.4346 -0.8622
 1588TIP3    H226256   4.840   0.473  16.532 -1.1127 -0.2517 -0.5329
 1589TIP3   OH226257   4.350   2.584  16.426 -0.3383  0.2151  0.1967
 1589TIP3    H126258   4.426   2.611  16.478 -0.8139  0.6254  0.6800
 1589TIP3    H226259   4.344   2.490  16.440  0.3209  0.1132 -0.1632
 1590TIP3   OH226260   2.084   1.638   1.269  0.0212  0.2365  0.4789
 1590TIP3    H126261   1.999   1.681   1.264 -0.7633 -1.2140  0.9011
 1590TIP3    H226262   2.124   1.673   1.349 -0.3444  0.6248  0.4935
 1591TIP3   OH226263   4.165   3.010  11.758  0.6450  0.0101 -0.5270
 1591TIP3    H126264   4.164   3.057  11.841 -0.6152 -1.3151  0.2719
 1591TIP3    H226265   4.137   3.075  11.693  1.0762  0.9102  0.1702
 1592TIP3   OH226266   1.062   1.961  11.966 -0.0149  0.1492 -0.5927
 1592TIP3    H126267   0.977   1.929  11.996 -0.9042  2.5716 -0.3060
 1592TIP3    H226268   1.043   2.045  11.924  2.4579  1.9340  1.5292
 1593TIP3   OH226269   4.560   6.169   5.356  0.0135 -0.2516  0.3168
 1593TIP3    H126270   4.489   6.161   5.293 -0.1773 -1.0862  0.6204
 1593TIP3    H226271   4.637   6.190   5.303 -0.1383 -0.9590 -0.2012
 1594TIP3   OH226272   0.470   4.830  14.047  0.1676  0.5768  0.1636
 1594TIP3    H126273   0.457   4.842  14.141 -0.0644 -1.2438  0.3853
 1594TIP3    H226274   0.468   4.736  14.034  0.1139  0.8039 -1.6950
 1595TIP3   OH226275   5.449   0.116   1.970  0.3987 -0.2397 -1.2617
 1595TIP3    H126276   5.537   0.096   2.002  0.3273  1.4178  0.1288
 1595TIP3    H226277   5.464   0.180   1.900  0.3389 -0.7070 -1.7051
 1596TIP3   OH226278   6.263   1.887   5.497 -0.1111  0.0045  0.2305
 1596TIP3    H126279   6.211   1.889   5.578  0.3248 -1.0861  0.5665
 1596TIP3    H226280   6.353   1.874   5.527 -0.0545 -1.3449 -0.4386
 1597TIP3   OH226281   5.164   6.355  12.462 -0.3977  0.5037 -0.2537
 1597TIP3    H126282   5.231   6.288  12.450  0.0914  0.7090  1.1773
 1597TIP3    H226283   5.086   6.307  12.487 -0.5724  0.3342 -1.0871
 1598TIP3   OH226284   2.328   2.196  13.363  0.1947  0.3683 -0.6732
 1598TIP3    H126285   2.302   2.116  13.408  0.9777 -0.7869 -2.1641
 1598TIP3    H226286   2.261   2.210  13.297  0.7069  0.2175 -1.2354
 1599TIP3   OH226287   0.475   3.655  17.049 -0.5311  0.0486 -0.5846
 1599TIP3    H126288   0.455   3.700  16.967 -1.7441  0.8748  0.1343
 1599TIP3    H226289   0.520   3.575  17.022  0.1998  0.8881 -1.9739
 1600TIP3   OH226290   5.384   2.173   2.301  0.2325 -0.6940  0.2449
 1600TIP3    H126291   5.351   2.115   2.231 -0.8278  0.5233 -0.3108
 1600TIP3    H226292   5.355   2.260   2.275 -0.1575 -0.1910  2.1962
 1601TIP3   OH226293   5.088   4.733   1.627  0.6611 -0.1349 -0.2521
 1601TIP3    H126294   5.073   4.799   1.695  3.1356 -0.5693  0.8484
 1601TIP3    H226295   5.182   4.739   1.609  0.2357 -0.6265 -3.0842
 1602TIP3   OH226296   4.331   4.195  11.589  0.3287 -0.1031  0.3838
 1602TIP3    H126297   4.371   4.281  11.576  0.9993 -0.4903 -0.1746
 1602TIP3    H226298   4.291   4.174  11.504  0.6176 -0.5661  0.3591
 1603TIP3   OH226299   0.369   4.657   1.886 -0.7074 -0.0741  0.3170
 1603TIP3    H126300   0.310   4.584   1.900  0.2039 -0.4311  2.7931
 1603TIP3    H226301   0.314   4.725   1.847 -2.1417 -1.2174  0.2536
 1604TIP3   OH226302   5.647   4.178  17.027 -0.1520  0.1791  0.1983
 1604TIP3    H126303   5.567   4.194  17.076  0.0247  0.0462  0.5324
 1604TIP3    H226304   5.618   4.166  16.936 -0.2678  2.6945 -0.1574
 1605TIP3   OH226305   1.967   0.139   0.918 -0.3659 -0.0941 -0.1538
 1605TIP3    H126306   1.969   0.049   0.886 -0.2973  0.0784 -0.6363
 1605TIP3    H226307   1.877   0.152   0.948 -0.1774 -0.5748  0.6494
 1606TIP3   OH226308   4.161   1.885   2.750  0.1195  0.4828 -0.1589
 1606TIP3    H126309   4.172   1.933   2.668 -0.1207  1.0429  0.1348
 1606TIP3    H226310   4.076   1.913   2.784  1.4795  2.5842  1.7973
 1607TIP3   OH226311   0.409   2.891   1.108 -0.4950  0.2695 -0.4376
 1607TIP3    H126312   0.493   2.870   1.149  0.7944 -1.5394 -3.6093
 1607TIP3    H226313   0.346   2.891   1.180  2.1243  1.5169  2.0410
 1608TIP3   OH226314   2.187   4.416  14.849  0.1196 -0.0498  0.1737
 1608TIP3    H126315   2.194   4.328  14.884 -0.8675 -0.5222 -0.7614
 1608TIP3    H226316   2.196   4.405  14.754 -0.0999  0.8475  0.0416
 1609TIP3   OH226317   2.681   0.981  14.587  0.3251  0.0557  0.1563
 1609TIP3    H126318   2.634   0.906  14.624 -0.2946  0.7303  0.7608
 1609TIP3    H226319   2.763   0.984  14.637  0.8456 -0.8677 -0.6132
 1610TIP3   OH226320   3.289   2.996  16.415 -0.2399  0.0599  0.0041
 1610TIP3    H126321   3.220   2.943  16.376  1.4238 -0.5901 -2.2898
 1610TIP3    H226322   3.278   2.985  16.510 -3.1046 -0.1275 -0.2770
 1611TIP3   OH226323   0.953   4.871  13.061  0.3286  0.5765  0.5459
 1611TIP3    H126324   0.883   4.917  13.015  1.7392  1.6317 -0.6456
 1611TIP3    H226325   1.001   4.940  13.107  2.1394  0.3029 -0.7956
 1612TIP3   OH226326   2.240   2.397  15.852 -0.2039  0.2201  0.4628
 1612TIP3    H126327   2.173   2.465  15.853  0.3107  0.7877 -0.8297
 1612TIP3    H226328   2.322   2.444  15.840  0.0013 -0.6443 -2.2734
 1613TIP3   OH226329   2.016   1.998   2.997 -0.1357  0.5029  0.0903
 1613TIP3    H126330   2.022   1.917   3.048 -0.4848 -1.0493 -2.1572
 1613TIP3    H226331   2.104   2.012   2.964 -0.6680 -0.9343 -2.2059
 1614TIP3   OH226332   4.360   5.948  12.672 -0.1209 -1.1866 -0.0701
 1614TIP3    H126333   4.449   5.971  12.697  0.0529 -0.0833 -1.5843
 1614TIP3    H226334   4.305   6.012  12.718  0.1309  0.2114 -1.6207
 1615TIP3   OH226335   2.383   5.707   0.981 -0.1288  0.8066  0.0438
 1615TIP3    H126336   2.355   5.782   1.033 -0.8008  0.1486  0.6576
 1615TIP3    H226337   2.306   5.686   0.927 -0.2618 -0.0056  0.5432
 1616TIP3   OH226338   0.900   4.264   4.318  0.3458  0.1761 -0.6164
 1616TIP3    H126339   0.959   4.188   4.315  1.1674  0.7619  0.2133
 1616TIP3    H226340   0.813   4.227   4.302  0.8618 -0.7804 -1.3488
 1617TIP3   OH226341   2.738   3.955  12.132  0.4584  0.2242 -0.6443
 1617TIP3    H126342   2.720   4.045  12.106  3.8955  0.4007 -3.0518
 1617TIP3    H226343   2.806   3.963  12.199  0.4042 -0.5902 -0.4788
 1618TIP3   OH226344   5.972   2.395   5.225 -0.0368  0.3183 -0.4573
 1618TIP3    H126345   5.996   2.464   5.163 -1.8184  1.3897 -0.0378
 1618TIP3    H226346   6.034   2.404   5.297  0.4674  0.7170 -0.9285
 1619TIP3   OH226347   2.160   3.131   0.627 -0.6921  0.5313 -0.2477
 1619TIP3    H126348   2.229   3.091   0.574 -0.2248  1.5653 -0.4348
 1619TIP3    H226349   2.160   3.223   0.602 -1.4223  0.7570  0.5317
 1620TIP3   OH226350   2.784   0.814  12.372 -0.1636  0.7863 -0.4276
 1620TIP3    H126351   2.798   0.908  12.373 -1.8424  1.0747 -0.4184
 1620TIP3    H226352   2.860   0.779  12.326  0.7433  2.0813  0.0250
 1621TIP3   OH226353   1.140   2.991  13.157  0.1619  0.0782 -0.2680
 1621TIP3    H126354   1.230   3.003  13.187  0.4452  0.4020 -1.2031
 1621TIP3    H226355   1.133   2.897  13.138  0.0313 -0.1001  0.6002
 1622TIP3   OH226356   2.178   2.773   6.437 -0.9564 -0.0460  0.0276
 1622TIP3    H126357   2.088   2.795   6.461 -0.4290  0.5694  1.5734
 1622TIP3    H226358   2.221   2.858   6.426 -0.4627 -0.3354 -0.3176
 1623TIP3   OH226359   4.676   1.744  14.417  0.1822 -0.0251 -0.2164
 1623TIP3    H126360   4.743   1.788  14.365 -0.6566  3.4139  1.3376
 1623TIP3    H226361   4.593   1.765  14.373 -0.1994 -0.8776  0.0629
 1624TIP3   OH226362   6.762   5.676   1.745 -0.1547 -0.1436  0.0339
 1624TIP3    H126363   6.800   5.670   1.657 -1.2354 -3.4795 -0.3642
 1624TIP3    H226364   6.832   5.643   1.802 -0.5612 -1.1929 -0.0464
 1625TIP3   OH226365   3.029   0.768   6.172  0.3314  0.1581 -0.0129
 1625TIP3    H126366   3.122   0.790   6.184  0.3641  0.3046 -0.5223
 1625TIP3    H226367   2.991   0.778   6.259  0.7859  0.1344  0.1933
 1626TIP3   OH226368   4.514   1.297  16.303 -0.5967 -0.2506 -0.0527
 1626TIP3    H126369   4.446   1.287  16.370 -0.5182 -0.5724 -0.0166
 1626TIP3    H226370   4.572   1.365  16.337 -0.1472 -0.9221  0.5655
 1627TIP3   OH226371   1.458   2.294   2.457 -0.3483  0.0845 -0.0642
 1627TIP3    H126372   1.445   2.262   2.368  0.2327 -1.1749  0.2767
 1627TIP3    H226373   1.527   2.238   2.492 -2.1775 -1.0398  1.9774
 1628TIP3   OH226374   6.492   0.445   5.802 -0.1570  0.2133 -0.4548
 1628TIP3    H126375   6.528   0.519   5.849  0.7741 -0.0711 -0.7031
 1628TIP3    H226376   6.413   0.479   5.759  0.6367  1.2306 -1.1286
 1629TIP3   OH226377   6.469   5.552  16.241 -0.4420  0.0175  0.0537
 1629TIP3    H126378   6.542   5.495  16.216  1.0445  1.9953 -0.4160
 1629TIP3    H226379   6.411   5.553  16.164 -0.4985 -0.8471  0.0808
 1630TIP3   OH226380   0.752   4.348  16.984  0.0382  0.4589  0.5203
 1630TIP3    H126381   0.822   4.406  16.952 -0.6986  0.7216 -0.6787
 1630TIP3    H226382   0.797   4.266  17.006  0.7451  0.6562 -0.1494
 1631TIP3   OH226383   1.300   2.349  15.029 -0.0092 -0.2617  0.6102
 1631TIP3    H126384   1.310   2.263  14.989  2.2818  1.6106 -3.4936
 1631TIP3    H226385   1.379   2.397  15.004 -0.5188  2.7163  3.8477
 1632TIP3   OH226386   6.742   1.073  12.164  0.2471 -0.4062  0.0963
 1632TIP3    H126387   6.694   1.148  12.128 -1.1542  0.0320  2.6117
 1632TIP3    H226388   6.823   1.110  12.198  0.1927 -0.2813  0.0906
 1633TIP3   OH226389   0.542   5.683  15.668  0.3112 -0.8856 -0.0883
 1633TIP3    H126390   0.595   5.625  15.723  1.5515  0.7416  0.5297
 1633TIP3    H226391   0.607   5.737  15.622 -0.8026  0.3017 -0.3032
 1634TIP3   OH226392   0.748   5.237  17.011 -0.1047 -0.3785 -0.3623
 1634TIP3    H126393   0.774   5.206  16.924 -1.1307 -0.2925 -0.7067
 1634TIP3    H226394   0.823   5.290  17.040 -0.5496  1.3175 -2.0615
 1635TIP3   OH226395   4.825   1.201   0.085  0.0431 -0.2476 -0.0943
 1635TIP3    H126396   4.811   1.194  -0.009 -0.2350 -0.9624 -0.0117
 1635TIP3    H226397   4.751   1.252   0.117 -1.4539 -2.3543  0.0781
 1636TIP3   OH226398   4.197   3.576   6.112  0.3762  0.1642 -0.0359
 1636TIP3    H126399   4.143   3.549   6.038 -0.1176 -2.2776  1.1221
 1636TIP3    H226400   4.166   3.523   6.185  1.6270  1.6638  1.6660
 1637TIP3   OH226401   5.379   1.179  15.728  0.1050 -0.0660 -0.8476
 1637TIP3    H126402   5.362   1.272  15.741 -1.1730 -0.2924 -0.7327
 1637TIP3    H226403   5.450   1.176  15.665 -1.2546  0.9969 -2.5279
 1638TIP3   OH226404   4.687   5.366  12.465  0.4134 -0.1522 -0.6477
 1638TIP3    H126405   4.592   5.380  12.461  0.4793  0.6200  0.3180
 1638TIP3    H226406   4.721   5.416  12.392  0.2758  1.5753  0.4211
 1639TIP3   OH226407   6.581   5.635  17.420  0.2831 -0.1124 -1.1059
 1639TIP3    H126408   6.604   5.554  17.465  0.7465  0.1251 -0.9111
 1639TIP3    H226409   6.505   5.612  17.367  0.6057 -0.7499 -1.2965
 1640TIP3   OH226410   4.146   4.919   0.850  0.2671 -0.0724  0.0399
 1640TIP3    H126411   4.234   4.881   0.852  0.2174 -0.1996 -0.1947
 1640TIP3    H226412   4.125   4.934   0.942  0.1370 -0.9598  0.1671
 1641TIP3   OH226413   3.838   1.623   0.626 -0.2831  0.0071 -1.2604
 1641TIP3    H126414   3.826   1.657   0.715 -0.1848  2.5422 -2.1271
 1641TIP3    H226415   3.749   1.619   0.590 -0.1642  1.1142 -1.7243
 1642TIP3   OH226416   2.251   2.467   5.142 -0.2489 -0.4383 -0.0051
 1642TIP3    H126417   2.295   2.431   5.220  0.2994 -2.4251 -1.1569
 1642TIP3    H226418   2.162   2.485   5.172  0.2157 -0.2371  1.3285
 1643TIP3   OH226419   3.040   0.020   2.942  0.1316  0.3418  0.5501
 1643TIP3    H126420   3.085   0.055   3.019 -0.0867 -1.5070  1.5757
 1643TIP3    H226421   3.102  -0.044   2.906 -1.1366 -1.3574  1.2733
 1644TIP3   OH226422   0.192   2.253  10.656 -0.1129  0.1495 -0.5564
 1644TIP3    H126423   0.228   2.247  10.568 -1.2728  1.6624 -1.1771
 1644TIP3    H226424   0.237   2.329  10.694  0.4291 -0.5291  0.2139
 1645TIP3   OH226425   4.886   4.058  12.997 -0.2357 -0.1295  0.3923
 1645TIP3    H126426   4.902   4.066  13.091 -0.4412 -1.0329  0.5127
 1645TIP3    H226427   4.966   4.021  12.962  0.8581  2.5671 -0.2201
 1646TIP3   OH226428   1.123   6.300   3.051 -0.7730 -0.4895 -0.4831
 1646TIP3    H126429   1.183   6.361   3.007 -0.4420  1.2178  2.0720
 1646TIP3    H226430   1.150   6.214   3.021  2.6543  0.2179  0.0447
 1647TIP3   OH226431   3.844   3.701   5.802  0.5949  0.0329 -0.2419
 1647TIP3    H126432   3.920   3.758   5.789 -0.2888  0.8378 -2.3233
 1647TIP3    H226433   3.775   3.760   5.832  0.9371 -0.8357  2.5089
 1648TIP3   OH226434   5.145   0.349  17.110 -0.1295  0.2044 -1.0487
 1648TIP3    H126435   5.177   0.407  17.040  1.6510 -1.2580 -1.5270
 1648TIP3    H226436   5.188   0.265  17.093  0.6926 -0.1105  2.0481
 1649TIP3   OH226437   3.213   0.915  14.676  0.0374  0.3263 -0.7099
 1649TIP3    H126438   3.123   0.885  14.692  0.3890 -0.9501 -1.1078
 1649TIP3    H226439   3.242   0.866  14.599  0.7134  1.5181 -1.2404
 1650TIP3   OH226440   1.590   4.411   6.719 -0.2046  0.0390 -0.4321
 1650TIP3    H126441   1.663   4.373   6.767 -1.8616 -2.9860 -0.1012
 1650TIP3    H226442   1.590   4.503   6.745  1.5586 -0.5438  1.9889
 1651TIP3   OH226443   0.204   2.049   0.299  0.0966 -0.1828 -0.2017
 1651TIP3    H126444   0.222   2.021   0.209  0.4884  2.6929 -1.1213
 1651TIP3    H226445   0.289   2.075   0.334 -0.3862  1.2139  0.0226
 1652TIP3   OH226446   1.980   2.750  14.349  0.0661 -0.4601 -0.0850
 1652TIP3    H126447   2.019   2.830  14.385 -1.0663 -0.3624  1.0058
 1652TIP3    H226448   1.940   2.707  14.425  2.3776 -3.1580 -0.1954
 1653TIP3   OH226449   4.112   4.830   3.432  0.2180  0.1125  0.0448
 1653TIP3    H126450   4.172   4.833   3.507  0.0602  0.2778  0.1662
 1653TIP3    H226451   4.148   4.763   3.375  0.5042  0.1964  0.1288
 1654TIP3   OH226452   2.770   0.754  14.389  0.3303 -0.2753  0.0521
 1654TIP3    H126453   2.689   0.704  14.401 -1.2330  1.6653 -1.6453
 1654TIP3    H226454   2.746   0.843  14.412  1.0751  0.9089 -3.2622
 1655TIP3   OH226455   0.859   6.622   2.029 -0.0996 -0.1885  0.4723
 1655TIP3    H126456   0.814   6.537   2.034  0.6120 -0.6153 -0.1650
 1655TIP3    H226457   0.819   6.666   1.954  0.0281 -0.2699  0.3541
 1656TIP3   OH226458   0.393   5.283  12.241 -0.5124 -0.4814  0.3536
 1656TIP3    H126459   0.405   5.292  12.335 -1.0459 -1.2596  0.5014
 1656TIP3    H226460   0.362   5.370  12.213  1.1233  0.2343  0.6273
 1657TIP3   OH226461   1.347   0.783   5.889  0.2624 -0.0407  0.5883
 1657TIP3    H126462   1.251   0.780   5.893  0.0680 -0.4718 -2.2608
 1657TIP3    H226463   1.368   0.876   5.889 -0.2230  0.0719  0.5176
 1658TIP3   OH226464   6.291   2.391  16.269  0.0282  0.1173 -0.0273
 1658TIP3    H126465   6.196   2.383  16.257 -0.1263 -0.6889  1.4918
 1658TIP3    H226466   6.314   2.317  16.325  1.6597 -0.0277 -0.8440
 1659TIP3   OH226467   5.437   6.737  15.721  0.0750  0.1693  0.1397
 1659TIP3    H126468   5.450   6.731  15.815  2.6818  1.2015 -0.0904
 1659TIP3    H226469   5.490   6.811  15.693 -1.4526  0.5657 -2.0338
 1660TIP3   OH226470   5.698   3.889   3.572  0.3210  0.2081 -0.5544
 1660TIP3    H126471   5.771   3.830   3.558  0.4567 -0.1158  1.2783
 1660TIP3    H226472   5.719   3.967   3.520  1.6747 -0.1084 -0.5077
 1661TIP3   OH226473   5.307   3.858   5.224  0.3217  0.7018  0.2703
 1661TIP3    H126474   5.373   3.877   5.291  0.5000  0.6049  0.1228
 1661TIP3    H226475   5.244   3.801   5.268  1.4324 -0.9283 -0.1698
 1662TIP3   OH226476   2.389   2.721  12.697  0.0336  0.0405  0.2482
 1662TIP3    H126477   2.356   2.782  12.631 -0.5882  1.4073  1.7414
 1662TIP3    H226478   2.351   2.637  12.673  0.6939  0.2501 -1.7149
 1663TIP3   OH226479   1.905   1.313   4.725 -0.1986  0.2676 -0.4488
 1663TIP3    H126480   1.935   1.283   4.810 -2.8054 -2.3230 -0.2647
 1663TIP3    H226481   1.980   1.303   4.667  1.1142  0.4044  1.1816
 1664TIP3   OH226482   3.305   4.933  15.637  0.3279  0.2185  0.1435
 1664TIP3    H126483   3.270   4.850  15.603 -0.6409  1.0159 -0.8873
 1664TIP3    H226484   3.336   4.979  15.559  1.5148  0.5403  0.7905
 1665TIP3   OH226485   2.220   1.591   4.375  0.6887  0.3017  0.1820
 1665TIP3    H126486   2.305   1.603   4.334  0.9273  1.7817  1.0426
 1665TIP3    H226487   2.240   1.562   4.464  0.2195 -1.0691 -0.1290
 1666TIP3   OH226488   4.284   0.014  14.708  0.2729  0.4826 -0.1636
 1666TIP3    H126489   4.357   0.070  14.680 -0.4129  1.1730 -0.5975
 1666TIP3    H226490   4.208   0.072  14.707 -0.4120 -0.4078 -0.3876
 1667TIP3   OH226491   3.863   1.544  12.606 -0.2429 -0.7417 -0.0021
 1667TIP3    H126492   3.954   1.570  12.593 -0.6290  0.1697 -1.1525
 1667TIP3    H226493   3.828   1.534  12.517 -1.3323 -0.8101  0.4084
 1668TIP3   OH226494   2.885   3.595   2.586 -0.0534  0.2055  0.1003
 1668TIP3    H126495   2.836   3.522   2.625  0.7664 -1.0093 -1.0546
 1668TIP3    H226496   2.916   3.646   2.661 -0.2679 -0.8802  0.9544
 1669TIP3   OH226497   0.960   5.574   4.150 -0.0958 -0.1397 -0.3227
 1669TIP3    H126498   0.983   5.563   4.243 -0.8199 -0.3725 -0.1592
 1669TIP3    H226499   0.871   5.609   4.152  0.2643  0.8305 -0.9279
 1670TIP3   OH226500   1.981   4.582  13.408 -0.2331  0.0233  0.2742
 1670TIP3    H126501   2.024   4.498  13.395  0.3772  0.4462 -0.4807
 1670TIP3    H226502   1.960   4.613  13.320 -0.2870  0.7497  0.5298
 1671TIP3   OH226503   4.640   1.777   0.576 -0.2982  0.1049  0.1088
 1671TIP3    H126504   4.659   1.684   0.559  0.6119  0.6136 -2.0207
 1671TIP3    H226505   4.545   1.783   0.572 -0.4703 -0.9390  1.6516
 1672TIP3   OH226506   6.480   2.119   3.747 -0.5653  0.1459  0.3933
 1672TIP3    H126507   6.443   2.112   3.659 -2.8461  1.6587  1.1411
 1672TIP3    H226508   6.566   2.159   3.733  0.5852 -2.5890 -1.3336
 1673TIP3   OH226509   3.125   3.414   3.058  0.6181  0.4183 -0.4153
 1673TIP3    H126510   3.194   3.437   2.996  1.7671 -1.3256  0.1676
 1673TIP3    H226511   3.050   3.391   3.003  1.3651 -0.3176 -1.1489
 1674TIP3   OH226512   4.884   0.862   1.079  0.0493 -0.3199  0.1476
 1674TIP3    H126513   4.788   0.853   1.079 -0.1527  1.4176 -0.1538
 1674TIP3    H226514   4.907   0.871   1.171  0.2110 -2.8723  0.4224
 1675TIP3   OH226515   6.543   2.424  15.669  0.6509  0.1396  0.2825
 1675TIP3    H126516   6.532   2.449  15.761 -0.8941 -0.3992  0.2796
 1675TIP3    H226517   6.453   2.415  15.637  1.1211  2.0231 -1.7674
 1676TIP3   OH226518   1.097   0.373  16.871 -0.4425  0.3025  0.1569
 1676TIP3    H126519   1.064   0.289  16.903  1.3540 -0.2595  0.6637
 1676TIP3    H226520   1.033   0.401  16.806 -0.3836 -2.1903 -1.0971
 1677TIP3   OH226521   6.422   3.267  14.540  0.2142 -0.2940  0.2530
 1677TIP3    H126522   6.371   3.199  14.583  0.7064 -0.0092  1.3187
 1677TIP3    H226523   6.506   3.267  14.586  0.3185  0.8530  0.0837
 1678TIP3   OH226524   0.688   4.627   3.521  0.3020  0.7108  0.0436
 1678TIP3    H126525   0.607   4.577   3.512 -0.3081  1.6508  0.1676
 1678TIP3    H226526   0.757   4.566   3.494 -0.5292  0.2059 -1.0427
 1679TIP3   OH226527   4.318   0.338   1.537  0.0086 -0.1019 -0.4600
 1679TIP3    H126528   4.249   0.403   1.550 -1.7794 -1.4891 -2.2524
 1679TIP3    H226529   4.399   0.384   1.558 -1.3558  1.9340  0.6764
 1680TIP3   OH226530   5.066   6.054   6.126  0.1253  0.2815 -0.5165
 1680TIP3    H126531   5.046   6.135   6.079  1.0128  0.8021 -0.0178
 1680TIP3    H226532   5.081   5.990   6.057  1.0534  0.9492 -0.9669
 1681TIP3   OH226533   6.364   4.742   1.442  0.7128 -0.5019 -0.0678
 1681TIP3    H126534   6.358   4.766   1.535 -0.8635 -0.8991 -0.0374
 1681TIP3    H226535   6.310   4.806   1.397  1.3042 -0.4409 -0.6970
 1682TIP3   OH226536   4.453   6.277  16.455  0.1584  0.1046  0.3830
 1682TIP3    H126537   4.542   6.312  16.461  1.0994 -1.3574 -2.9576
 1682TIP3    H226538   4.465   6.184  16.439 -2.0507 -0.2557  0.5352
 1683TIP3   OH226539   1.338   4.196   0.782  0.2501  0.2932  0.4213
 1683TIP3    H126540   1.318   4.200   0.875  0.9839  2.7577  0.5464
 1683TIP3    H226541   1.354   4.103   0.765 -0.1247 -0.2516  2.6813
 1684TIP3   OH226542   0.569   3.207  12.647 -0.2589  0.4449 -0.4297
 1684TIP3    H126543   0.586   3.150  12.722 -0.6633  2.0391  0.9544
 1684TIP3    H226544   0.621   3.170  12.576 -3.2596 -3.8025 -0.8082
 1685TIP3   OH226545   2.366   0.359  11.378 -0.4682  0.4529  0.2519
 1685TIP3    H126546   2.318   0.390  11.455  0.5101 -0.7485  1.4091
 1685TIP3    H226547   2.323   0.400  11.304 -2.0595  0.9036  1.3818
 1686TIP3   OH226548   1.821   1.487   0.793  0.0955 -0.1431  0.0153
 1686TIP3    H126549   1.835   1.563   0.850 -0.5630  1.1162 -1.4134
 1686TIP3    H226550   1.908   1.466   0.760  0.3219 -0.1905  0.6237
 1687TIP3   OH226551   3.811   1.339  13.545  0.4822 -0.1339 -0.5136
 1687TIP3    H126552   3.903   1.346  13.571  0.1995 -0.2364  0.5285
 1687TIP3    H226553   3.797   1.414  13.488  1.2467 -0.1910 -0.7927
 1688TIP3   OH226554   4.923   0.285   5.644 -0.3891  0.4229  0.0073
 1688TIP3    H126555   4.893   0.197   5.619 -0.4648 -0.0631  1.6184
 1688TIP3    H226556   4.986   0.269   5.715 -0.4877  1.6721  0.4030
 1689TIP3   OH226557   2.233   3.830  12.843 -0.0166 -0.3148  0.2145
 1689TIP3    H126558   2.190   3.867  12.920  0.7843  0.0870  0.4846
 1689TIP3    H226559   2.167   3.835  12.774 -0.3994  0.2987  0.6135
 1690TIP3   OH226560   6.345   1.456   2.069 -0.3806 -0.2929 -0.2158
 1690TIP3    H126561   6.292   1.377   2.058 -1.0500  0.3489 -1.7698
 1690TIP3    H226562   6.372   1.480   1.981  0.5278  0.7462  0.3221
 1691TIP3   OH226563   3.373   0.592  13.586  0.4833  0.2841 -0.1777
 1691TIP3    H126564   3.299   0.638  13.625 -0.1275 -0.7122 -0.1562
 1691TIP3    H226565   3.391   0.519  13.646 -0.4210 -1.2334 -1.6834
 1692TIP3   OH226566   4.153   2.980   4.780  0.7846 -0.2940 -0.3818
 1692TIP3    H126567   4.234   2.937   4.808  0.4649  0.1995  1.4162
 1692TIP3    H226568   4.085   2.915   4.797  0.6782 -0.3265 -0.9179
 1693TIP3   OH226569   3.108   3.916  11.743  0.5186  0.1005  0.2899
 1693TIP3    H126570   3.173   3.970  11.789 -0.3723  0.8181  0.7372
 1693TIP3    H226571   3.056   3.979  11.693 -0.2331 -0.3934  0.4379
 1694TIP3   OH226572   1.026   2.172  14.019 -0.1580 -0.4644  0.3330
 1694TIP3    H126573   0.969   2.228  13.967  0.0542  1.1157  1.7465
 1694TIP3    H226574   1.030   2.213  14.105  2.3108 -1.0490  0.6017
 1695TIP3   OH226575   5.929   6.553   6.201  0.1657  0.5343  0.1720
 1695TIP3    H126576   5.937   6.622   6.267  1.1210 -0.8748  1.5823
 1695TIP3    H226577   5.991   6.579   6.132  1.6452  0.3705  1.3822
 1696TIP3   OH226578   4.422   1.032  13.086 -0.0405 -0.8171  0.4220
 1696TIP3    H126579   4.409   1.023  12.992 -1.9062  1.1581  0.4167
 1696TIP3    H226580   4.439   1.126  13.099  0.0523 -1.0287  2.0722
 1697TIP3   OH226581   3.250   0.624  14.816 -0.1539  1.0434  0.6732
 1697TIP3    H126582   3.184   0.638  14.884 -1.1000  1.8396 -0.3810
 1697TIP3    H226583   3.332   0.653  14.855 -0.4973  0.5128  1.8260
 1698TIP3   OH226584   1.692   5.753   5.247  0.0071 -0.2627 -0.2521
 1698TIP3    H126585   1.697   5.835   5.296 -3.0780  0.3551 -0.7419
 1698TIP3    H226586   1.688   5.780   5.156  0.3544 -1.0528 -0.5047
 1699TIP3   OH226587   2.249   0.600   3.925  0.2464  0.1671 -0.1259
 1699TIP3    H126588   2.193   0.654   3.870  0.8305  1.1343  0.1971
 1699TIP3    H226589   2.334   0.598   3.880  0.3350 -0.1750  0.0486
 1700TIP3   OH226590   1.681   3.501   0.169 -0.1673 -0.2609  0.1371
 1700TIP3    H126591   1.667   3.432   0.105  3.9739 -0.0008 -1.3433
 1700TIP3    H226592   1.723   3.458   0.243  1.9918  0.4548 -0.5902
 1701TIP3   OH226593   0.858   4.764   0.922  0.3998 -0.1148 -0.3538
 1701TIP3    H126594   0.769   4.785   0.952  0.2368  0.7149 -1.3574
 1701TIP3    H226595   0.866   4.809   0.838  1.4956 -0.8494 -0.6590
 1702TIP3   OH226596   2.828   4.789   2.880 -0.3981 -0.0955  0.5991
 1702TIP3    H126597   2.860   4.791   2.970 -0.1081  1.6682  0.4830
 1702TIP3    H226598   2.745   4.836   2.882 -0.9466 -1.0099  0.1274
 1703TIP3   OH226599   0.793   6.076   5.803 -0.7149  0.1804 -0.2936
 1703TIP3    H126600   0.824   6.143   5.865  0.0311 -0.0977 -0.3612
 1703TIP3    H226601   0.793   6.121   5.718 -0.2880  0.1226 -0.3273
 1704TIP3   OH226602   2.202   6.713   3.790 -0.1096 -0.1180  0.1413
 1704TIP3    H126603   2.204   6.684   3.882  0.7231  0.4787  0.3287
 1704TIP3    H226604   2.126   6.669   3.753 -0.7636  0.0291  1.2494
 1705TIP3   OH226605   3.028   2.552   3.508 -0.0071  0.3208 -0.4519
 1705TIP3    H126606   3.079   2.629   3.482  0.0164  1.0805  1.6059
 1705TIP3    H226607   3.068   2.524   3.591 -3.1683  1.3162  1.6081
 1706TIP3   OH226608   4.266   5.115   5.303  0.3398 -0.1084  0.4273
 1706TIP3    H126609   4.319   5.065   5.242 -0.9476 -0.6529 -0.2858
 1706TIP3    H226610   4.178   5.078   5.295 -0.4167  1.5015  0.7241
 1707TIP3   OH226611   2.804   3.663   4.371 -0.4105 -0.1186 -0.3550
 1707TIP3    H126612   2.843   3.581   4.401 -0.2805 -0.1631 -0.6466
 1707TIP3    H226613   2.877   3.725   4.368 -0.8360  0.6125  1.9244
 1708TIP3   OH226614   3.117   5.334   3.957 -0.0311  0.3734 -0.1286
 1708TIP3    H126615   3.168   5.341   3.877  1.5382 -0.2895  0.7738
 1708TIP3    H226616   3.170   5.279   4.015 -1.6761 -0.1659  0.9377
 1709TIP3   OH226617   4.618   0.532  17.520 -1.0130 -0.1546 -0.1329
 1709TIP3    H126618   4.610   0.610  17.465 -0.9918 -0.7707 -1.0198
 1709TIP3    H226619   4.529   0.516  17.552 -0.9473  0.4550  0.3688
 1710TIP3   OH226620   2.209   3.117  14.815  0.4815  0.0945  0.0851
 1710TIP3    H126621   2.276   3.085  14.754  0.8996  0.2135  0.4750
 1710TIP3    H226622   2.144   3.159  14.759  0.1999 -0.9301 -0.3986
 1711TIP3   OH226623   3.658   5.783  11.416  0.1133 -0.2085 -0.1659
 1711TIP3    H126624   3.735   5.751  11.461 -0.9149 -0.1837  1.6879
 1711TIP3    H226625   3.584   5.743  11.461 -1.0523  1.4179 -0.5046
 1712TIP3   OH226626   4.539   1.406  14.972  0.1092 -0.1521 -0.1671
 1712TIP3    H126627   4.627   1.430  14.943 -0.0296 -0.0231 -0.4784
 1712TIP3    H226628   4.485   1.483  14.952  0.2418  0.4216  1.5179
 1713TIP3   OH226629   4.267   1.557   1.326 -0.0295  0.9406  0.4427
 1713TIP3    H126630   4.335   1.544   1.261 -0.3043  0.8992  0.1638
 1713TIP3    H226631   4.231   1.644   1.306  1.6586  2.1226  2.1589
 1714TIP3   OH226632   2.696   0.957   3.324  0.3500  0.1622 -0.4906
 1714TIP3    H126633   2.620   0.935   3.270 -0.7880 -0.2277  1.1755
 1714TIP3    H226634   2.659   1.003   3.399  2.0114  1.8817 -0.6465
 1715TIP3   OH226635   3.207   2.464   5.346  0.2363 -0.1726 -0.0294
 1715TIP3    H126636   3.301   2.468   5.331  0.3652  0.6069  0.8910
 1715TIP3    H226637   3.171   2.534   5.293  0.3708  0.6348  0.9205
 1716TIP3   OH226638   0.399   2.110   4.994 -0.0624 -1.3099  0.1005
 1716TIP3    H126639   0.486   2.073   4.987  0.4251  0.0605 -2.1609
 1716TIP3    H226640   0.343   2.053   4.941 -0.3128 -1.5422  0.6081
 1717TIP3   OH226641   6.709   4.857   3.901  0.1738  0.4926 -0.9892
 1717TIP3    H126642   6.638   4.832   3.842 -0.6985 -0.1022  0.2734
 1717TIP3    H226643   6.705   4.794   3.973  1.2962  1.1105 -0.3512
 1718TIP3   OH226644   5.070   1.201   4.683  0.2870  0.2101  0.2773
 1718TIP3    H126645   4.992   1.234   4.639  1.2767  2.8442  0.3585
 1718TIP3    H226646   5.141   1.218   4.622  0.8684 -2.3859  0.0962
 1719TIP3   OH226647   3.479   5.139   4.399 -0.6680 -0.4232  0.0753
 1719TIP3    H126648   3.564   5.125   4.357 -0.2067  0.8392  0.5549
 1719TIP3    H226649   3.452   5.052   4.428 -1.2946 -1.4927 -3.3162
 1720TIP3   OH226650   4.008   6.576   1.082 -0.0312  0.1268 -0.4823
 1720TIP3    H126651   3.928   6.583   1.030 -0.0738 -0.2798 -0.4746
 1720TIP3    H226652   4.004   6.650   1.143 -0.3461  0.1723 -0.5588
 1721TIP3   OH226653   1.152   4.565   4.880  0.1030  0.0544 -0.5610
 1721TIP3    H126654   1.123   4.527   4.797 -1.0900  0.5086 -0.3753
 1721TIP3    H226655   1.150   4.660   4.864  2.5413  0.1368 -0.8590
 1722TIP3   OH226656   5.898   3.732  13.488  0.4241  0.1659  0.4810
 1722TIP3    H126657   5.813   3.699  13.519  1.0475 -0.4731  1.6149
 1722TIP3    H226658   5.940   3.766  13.567  1.2113  0.4974 -0.0713
 1723TIP3   OH226659   3.098   0.248   0.623 -0.5222 -0.8158  0.4601
 1723TIP3    H126660   3.048   0.329   0.616 -2.4288 -2.0059 -0.3991
 1723TIP3    H226661   3.152   0.246   0.544 -0.5977 -0.4793  0.3993
 1724TIP3   OH226662   2.097   0.616  14.195 -0.3638 -0.3454 -0.5530
 1724TIP3    H126663   2.007   0.604  14.167 -1.0788  0.6081  1.1976
 1724TIP3    H226664   2.133   0.681  14.134 -0.6644 -1.1290 -1.5880
 1725TIP3   OH226665   5.333   4.982   0.421 -0.0513  0.4615  0.2576
 1725TIP3    H126666   5.397   4.982   0.492 -0.4470 -1.3044  0.6717
 1725TIP3    H226667   5.384   4.999   0.342  0.8391 -0.2531  0.6615
 1726TIP3   OH226668   5.126   5.864  14.208  0.0057  0.1602 -0.2572
 1726TIP3    H126669   5.075   5.942  14.229 -1.7414 -1.0944  0.3592
 1726TIP3    H226670   5.193   5.895  14.147 -0.3977  2.1961  0.2703
 1727TIP3   OH226671   1.133   6.270  11.177  0.4629 -0.5395  0.2614
 1727TIP3    H126672   1.063   6.218  11.138 -1.2227  0.6708  1.5218
 1727TIP3    H226673   1.199   6.278  11.108 -1.7990  0.4592 -1.9376
 1728TIP3   OH226674   6.742   6.526   5.493 -0.2875  0.0955 -0.5421
 1728TIP3    H126675   6.670   6.558   5.438  2.1731  0.6500 -3.7527
 1728TIP3    H226676   6.791   6.605   5.517  0.8673 -0.4776 -0.9251
 1729TIP3   OH226677   0.873   5.410   0.632 -0.3065  0.1203  0.4774
 1729TIP3    H126678   0.955   5.407   0.581 -0.6127 -0.4834 -0.0007
 1729TIP3    H226679   0.804   5.418   0.566 -0.6211  0.8850  0.8938
 1730TIP3   OH226680   5.552   5.261   1.328  0.4953 -0.5526 -0.1290
 1730TIP3    H126681   5.496   5.327   1.368  0.6021 -1.7572  2.1499
 1730TIP3    H226682   5.500   5.181   1.329  2.1414 -1.7166  2.0947
 1731TIP3   OH226683   2.077   5.228  15.930 -0.2055 -0.1606  0.1942
 1731TIP3    H126684   2.139   5.161  15.901 -0.2479  0.3565 -1.1843
 1731TIP3    H226685   2.056   5.277  15.850 -1.7377  0.2119  0.7898
 1732TIP3   OH226686   2.034   0.871   4.447 -0.2175  0.1394  0.1974
 1732TIP3    H126687   1.989   0.819   4.380 -0.6696  0.9135 -0.1130
 1732TIP3    H226688   2.013   0.827   4.530  1.8739 -1.9483 -0.2548
 1733TIP3   OH226689   2.219   6.446  13.031 -0.8093 -0.0354  0.4061
 1733TIP3    H126690   2.289   6.427  13.093 -0.7465  2.5027  1.2610
 1733TIP3    H226691   2.142   6.402  13.067 -0.1041 -1.1438  0.5834
 1734TIP3   OH226692   2.618   4.294  15.630  0.2209 -0.4616 -0.2171
 1734TIP3    H126693   2.613   4.215  15.575  0.8199 -0.2042 -0.6623
 1734TIP3    H226694   2.624   4.366  15.567 -0.1803 -0.0711  0.1884
 1735TIP3   OH226695   4.747   4.703   3.903  0.5245  0.0253  0.9397
 1735TIP3    H126696   4.682   4.772   3.917  1.4881  0.7280  2.1357
 1735TIP3    H226697   4.816   4.746   3.852  1.3338  0.0879  2.0637
 1736TIP3   OH226698   1.456   5.898   4.958 -0.4772  0.1803 -0.0099
 1736TIP3    H126699   1.493   5.967   5.013 -1.5108 -0.8342  2.0621
 1736TIP3    H226700   1.532   5.851   4.924  0.2139  1.6447 -0.5715
 1737TIP3   OH226701   4.726   1.951  12.858 -0.1662  0.7376 -0.2339
 1737TIP3    H126702   4.685   1.898  12.926  1.3683 -0.2860 -0.0510
 1737TIP3    H226703   4.814   1.916  12.850 -0.3352  0.7041 -2.8880
 1738TIP3   OH226704   3.354   6.563  15.578  0.1734 -0.3252  0.3690
 1738TIP3    H126705   3.304   6.482  15.591 -0.2364 -0.0510  0.5565
 1738TIP3    H226706   3.289   6.626  15.547  0.5167 -0.1047  0.0977
 1739TIP3   OH226707   0.454   1.314  16.724 -0.1756  0.0061 -0.5179
 1739TIP3    H126708   0.368   1.353  16.710  0.3449  1.9239  1.1728
 1739TIP3    H226709   0.441   1.252  16.796 -0.2735 -0.3077 -0.7993
 1740TIP3   OH226710   1.883   4.644  13.114  0.6951  0.4810 -0.1770
 1740TIP3    H126711   1.964   4.688  13.085  0.8174  0.5353  0.2384
 1740TIP3    H226712   1.899   4.551  13.097  1.0401  0.4388  0.3479
 1741TIP3   OH226713   1.053   0.094  13.640 -0.3634  0.4625 -0.1676
 1741TIP3    H126714   0.986   0.085  13.707  0.6511 -0.1781  0.7980
 1741TIP3    H226715   1.133   0.061  13.681  0.9795  2.9179 -0.6244
 1742TIP3   OH226716   5.487   3.310   4.364 -0.4923 -0.1070 -0.1510
 1742TIP3    H126717   5.442   3.247   4.309 -0.0601  0.6046 -1.3507
 1742TIP3    H226718   5.457   3.290   4.453 -0.5153 -1.8471 -0.5191
 1743TIP3   OH226719   3.041   0.689   3.575 -0.2457 -0.3842 -0.0155
 1743TIP3    H126720   3.116   0.746   3.559 -0.0279 -0.2337  1.4292
 1743TIP3    H226721   2.965   0.739   3.544 -0.1559  1.0953  1.9301
 1744TIP3   OH226722   0.856   6.639   3.666  0.3054  0.0861 -0.0698
 1744TIP3    H126723   0.873   6.560   3.717  2.7835  1.2624  1.1153
 1744TIP3    H226724   0.902   6.625   3.583  0.4877  0.1431  0.0203
 1745TIP3   OH226725   3.217   2.784   3.174 -0.0764  0.0171  0.0024
 1745TIP3    H126726   3.286   2.737   3.126 -0.3908 -0.3768 -0.0621
 1745TIP3    H226727   3.245   2.875   3.171  0.4787 -0.1477  0.0275
 1746TIP3   OH226728   1.813   2.102   6.316  1.0635  0.5446 -0.6658
 1746TIP3    H126729   1.724   2.089   6.285  0.8409 -1.7520  0.6721
 1746TIP3    H226730   1.804   2.148   6.399  1.2505  1.4421 -1.1255
 1747TIP3   OH226731   1.882   1.984  16.275  0.9547  0.6998  0.4793
 1747TIP3    H126732   1.929   2.057  16.314 -0.2438  0.9919  1.4507
 1747TIP3    H226733   1.845   1.937  16.350  1.1961 -0.5503 -0.1626
 1748TIP3   OH226734   2.907   2.476   2.656 -0.5625 -0.1295  0.4177
 1748TIP3    H126735   2.985   2.527   2.676 -0.6059 -0.6472  1.9989
 1748TIP3    H226736   2.940   2.395   2.617 -0.4573  0.6839 -1.2721
 1749TIP3   OH226737   2.251   2.295  12.807  0.1889  0.2227  0.0659
 1749TIP3    H126738   2.291   2.282  12.893  1.7467 -0.9877 -0.7868
 1749TIP3    H226739   2.305   2.363  12.766 -0.8877  1.2012  0.2138
 1750TIP3   OH226740   2.887   4.037   0.611  0.3116 -0.0540 -0.1521
 1750TIP3    H126741   2.836   4.060   0.534  0.6801  2.8193  0.3621
 1750TIP3    H226742   2.825   3.991   0.668 -1.2488  1.6717 -0.3534
 1751TIP3   OH226743   2.038   3.759   1.258 -0.4590  0.4533 -0.0534
 1751TIP3    H126744   1.956   3.728   1.295 -0.4684  1.1603  0.5347
 1751TIP3    H226745   2.037   3.854   1.272 -0.3349  0.7077 -1.6214
 1752TIP3   OH226746   5.406   3.459   6.661 -0.0553  0.3043  0.2880
 1752TIP3    H126747   5.420   3.478   6.754 -0.3882  0.4305  0.3131
 1752TIP3    H226748   5.326   3.507   6.638 -0.8798 -0.9919  0.3324
 1753TIP3   OH226749   6.308   5.814   0.704  0.3327  0.0009 -0.5595
 1753TIP3    H126750   6.216   5.798   0.684  0.3291  0.3951 -0.8622
 1753TIP3    H226751   6.336   5.736   0.753 -0.4114  0.3056  0.3823
 1754TIP3   OH226752   2.525   5.246  11.368  0.0324  0.0188  0.0752
 1754TIP3    H126753   2.479   5.330  11.363  1.4550  0.8731  0.8249
 1754TIP3    H226754   2.617   5.268  11.351  0.4736 -1.3345  0.6018
 1755TIP3   OH226755   6.574   1.027   5.625 -0.1160 -0.8264  0.3442
 1755TIP3    H126756   6.569   1.084   5.702 -1.0478  0.4156 -0.5974
 1755TIP3    H226757   6.487   0.989   5.617 -0.4917  0.2215 -0.9236
 1756TIP3   OH226758   3.989   0.278   3.612  0.7267 -0.2463  0.4930
 1756TIP3    H126759   3.906   0.322   3.591  0.2841 -1.0596  0.5025
 1756TIP3    H226760   3.990   0.274   3.708  0.7761 -0.2365  0.4928
 1757TIP3   OH226761   2.614   5.958  14.953 -0.0699  0.0195  0.1199
 1757TIP3    H126762   2.579   5.965  14.864 -1.1244 -0.4448  0.4803
 1757TIP3    H226763   2.575   6.031  15.000  0.5741  0.3315  0.1895
 1758TIP3   OH226764   2.663   3.175   0.665 -0.0878  0.1800 -0.2495
 1758TIP3    H126765   2.749   3.143   0.693 -0.1246  1.0410  0.9499
 1758TIP3    H226766   2.616   3.097   0.638  1.1138 -0.2912 -1.0970
 1759TIP3   OH226767   3.057   0.702   1.976 -0.4353  0.6020  0.2159
 1759TIP3    H126768   3.051   0.607   1.985 -0.6524  0.7506  2.3049
 1759TIP3    H226769   2.988   0.725   1.915  0.6950 -0.7020 -1.6478
 1760TIP3   OH226770   4.130   6.589   0.242 -0.0995  0.0346  0.2193
 1760TIP3    H126771   4.047   6.603   0.287  0.4649  1.0361  0.9942
 1760TIP3    H226772   4.186   6.662   0.271  0.6333  0.1141 -1.2825
 1761TIP3   OH226773   5.957   0.123  14.666  0.3186 -0.1018  0.2624
 1761TIP3    H126774   5.990   0.124  14.756 -1.3588  1.6489  0.9189
 1761TIP3    H226775   6.034   0.104  14.612  2.1726  2.4485  1.7994
 1762TIP3   OH226776   6.762   0.492  12.366  0.1869 -0.2716 -0.1216
 1762TIP3    H126777   6.807   0.526  12.288 -0.3308 -0.2352 -0.4077
 1762TIP3    H226778   6.701   0.561  12.390  0.6867 -0.0761  0.6173
 1763TIP3   OH226779   2.193   2.833  11.441 -0.1990  0.4854 -0.1050
 1763TIP3    H126780   2.230   2.796  11.361 -1.0215  1.0118 -0.7456
 1763TIP3    H226781   2.244   2.913  11.456  0.1240  0.2506  0.0334
 1764TIP3   OH226782   2.857   5.612   0.009  0.1079  0.1873 -0.2413
 1764TIP3    H126783   2.859   5.522   0.041  1.5723  0.9257  2.0053
 1764TIP3    H226784   2.888   5.606  -0.081  5.1806 -1.1869  1.2388
 1765TIP3   OH226785   1.377   5.076  16.895  0.4741  0.0165  0.0373
 1765TIP3    H126786   1.410   4.986  16.891  0.7463  0.1298 -0.2750
 1765TIP3    H226787   1.453   5.130  16.873  0.6330  0.3858  1.4074
 1766TIP3   OH226788   5.685   1.983  15.453 -0.0470  0.1017 -0.4603
 1766TIP3    H126789   5.651   1.950  15.370  0.8566  0.2745 -0.9037
 1766TIP3    H226790   5.751   1.919  15.479  0.7711  0.8583 -0.6552
 1767TIP3   OH226791   2.768   6.497   1.019  0.7618 -0.2341  0.1094
 1767TIP3    H126792   2.764   6.409   1.057  0.2857  0.3331  1.4709
 1767TIP3    H226793   2.696   6.500   0.957  0.3478 -0.5849  0.5681
 1768TIP3   OH226794   4.749   6.720   3.182 -0.1885  0.2564  0.0774
 1768TIP3    H126795   4.825   6.682   3.225  0.1016  0.7763  0.0350
 1768TIP3    H226796   4.691   6.646   3.166  0.9392 -0.3958 -1.2009
 1769TIP3   OH226797   3.081   3.517   4.617 -0.3748  0.2382 -0.2698
 1769TIP3    H126798   3.010   3.559   4.664 -0.6635  0.0161 -0.5007
 1769TIP3    H226799   3.060   3.531   4.524 -0.8327 -0.9660 -0.3751
 1770TIP3   OH226800   2.316   4.057   4.830 -0.1381 -0.0848 -0.4840
 1770TIP3    H126801   2.253   4.063   4.902  1.5488 -0.3545  1.0881
 1770TIP3    H226802   2.328   4.147   4.801  0.4225  0.2517  0.7390
 1771TIP3   OH226803   4.662   4.759   0.809  0.0813  0.0887  0.6914
 1771TIP3    H126804   4.737   4.820   0.807  0.6988 -0.6722  0.1290
 1771TIP3    H226805   4.676   4.702   0.734 -1.4720  0.3880  0.1541
 1772TIP3   OH226806   2.922   3.707   0.017  0.2738  0.8190 -0.1250
 1772TIP3    H126807   2.828   3.690   0.020  0.4668 -0.1691  1.3117
 1772TIP3    H226808   2.961   3.623  -0.008  0.9808  0.0733  3.0249
 1773TIP3   OH226809   4.703   0.018  17.451  0.0933  0.2254  0.3255
 1773TIP3    H126810   4.789   0.041  17.417 -0.2875  0.8645 -0.2254
 1773TIP3    H226811   4.658   0.101  17.462 -1.9870 -0.1437 -3.4756
 1774TIP3   OH226812   2.349   3.748  13.135  0.9285  0.6409 -0.0903
 1774TIP3    H126813   2.420   3.797  13.177  2.1893 -1.4530  0.3686
 1774TIP3    H226814   2.391   3.706  13.060  0.5389 -1.6864  0.9304
 1775TIP3   OH226815   4.621   6.757  15.837  0.2031  0.0235 -0.0937
 1775TIP3    H126816   4.676   6.797  15.770  1.0874  0.7857  1.0436
 1775TIP3    H226817   4.677   6.692  15.879 -0.0148  0.2587  0.5700
 1776TIP3   OH226818   2.317   4.995  15.445  0.1962 -0.1707 -0.0472
 1776TIP3    H126819   2.234   4.973  15.402  0.7340 -0.9281 -0.7310
 1776TIP3    H226820   2.326   4.930  15.515  1.0137 -1.2003 -1.0589
 1777TIP3   OH226821   5.989   6.626   1.475 -0.1377 -0.2997  0.0876
 1777TIP3    H126822   6.005   6.718   1.453  0.3299 -0.4355 -0.1468
 1777TIP3    H226823   5.894   6.620   1.486 -0.2116  0.1269 -0.2888
 1778TIP3   OH226824   0.892   5.456  16.437 -0.6646  0.1834  0.6018
 1778TIP3    H126825   0.797   5.453  16.432 -0.9121 -1.8868  3.5847
 1778TIP3    H226826   0.911   5.515  16.510  0.2353 -0.1935  0.7006
 1779TIP3   OH226827   6.740   3.043   1.319 -0.5502 -0.1813  0.4510
 1779TIP3    H126828   6.678   3.014   1.386  1.1286 -2.2139  1.2315
 1779TIP3    H226829   6.778   3.123   1.355 -1.4386  0.1154  0.7581
 1780TIP3   OH226830   0.210   6.023   6.020  0.0118 -0.2942 -1.1207
 1780TIP3    H126831   0.165   6.019   6.105 -0.3721  2.2106 -1.1374
 1780TIP3    H226832   0.301   6.044   6.041  0.0213 -0.1399 -1.3141
 1781TIP3   OH226833   2.131   4.135   6.585 -0.5689  0.2088  0.0377
 1781TIP3    H126834   2.092   4.120   6.499  2.1067  1.6224 -1.5807
 1781TIP3    H226835   2.198   4.067   6.593  0.9036  1.5663 -0.2127
 1782TIP3   OH226836   2.707   2.886   5.055 -0.5227 -0.5464 -0.1826
 1782TIP3    H126837   2.632   2.872   5.112  0.4827  0.5662  1.4875
 1782TIP3    H226838   2.670   2.925   4.976 -1.5351  2.6220  1.6571
 1783TIP3   OH226839   6.505   4.239   0.061 -0.0026 -0.1398  0.0873
 1783TIP3    H126840   6.550   4.261   0.142 -0.2015 -0.9398  0.4305
 1783TIP3    H226841   6.573   4.238  -0.005  0.0083  1.5133  0.0346
 1784TIP3   OH226842   2.554   3.004   4.836 -0.4271 -0.2915 -0.0362
 1784TIP3    H126843   2.488   2.950   4.792  0.8270 -0.1026 -2.3062
 1784TIP3    H226844   2.590   3.059   4.766  2.1910 -0.4703  1.0852
 1785TIP3   OH226845   4.351   2.110   4.607  0.4806 -0.0234 -0.5033
 1785TIP3    H126846   4.392   2.044   4.662 -0.0395 -0.2723 -0.4142
 1785TIP3    H226847   4.387   2.193   4.639  0.4130 -0.1884  0.0108
 1786TIP3   OH226848   0.089   4.839  13.239  1.0232  0.0944 -0.5497
 1786TIP3    H126849   0.034   4.779  13.290  1.0266 -0.7052 -1.4581
 1786TIP3    H226850   0.150   4.876  13.302 -0.5978  1.0716  0.5065
 1787TIP3   OH226851   4.068   6.676  15.589 -0.4537 -0.1850 -0.1497
 1787TIP3    H126852   4.031   6.719  15.666 -1.2306  0.1949 -0.7270
 1787TIP3    H226853   4.013   6.599  15.575  0.3627 -0.8813  0.3199
 1788TIP3   OH226854   4.955   4.027   6.257  0.8453 -0.5348  0.2982
 1788TIP3    H126855   4.883   4.022   6.320  0.2586  0.1150 -0.3069
 1788TIP3    H226856   4.974   4.121   6.249  1.6401 -0.6865  0.3111
 1789TIP3   OH226857   2.272   1.033  12.749 -0.4138 -0.4247 -0.1620
 1789TIP3    H126858   2.186   1.033  12.789 -1.0896  3.7233 -1.1178
 1789TIP3    H226859   2.266   1.099  12.679  3.5375  0.1423 -0.1994
 1790TIP3   OH226860   4.449   3.920   1.433 -0.1444 -0.6799  0.0217
 1790TIP3    H126861   4.491   3.889   1.352  1.2329 -2.6392  1.3880
 1790TIP3    H226862   4.502   3.883   1.503 -1.3729  0.8482  1.8640
 1791TIP3   OH226863   2.334   1.295   2.237  0.2962 -0.0059 -0.3817
 1791TIP3    H126864   2.366   1.210   2.207 -0.3991 -0.6040  0.5028
 1791TIP3    H226865   2.344   1.291   2.332  0.4055  0.9759 -0.3449
 1792TIP3   OH226866   4.835   4.866  10.700  0.0023 -0.8607 -0.6975
 1792TIP3    H126867   4.749   4.837  10.731 -0.4308 -0.2819 -1.3424
 1792TIP3    H226868   4.823   4.882  10.607  0.6825 -0.2981 -0.6949
 1793TIP3   OH226869   1.892   5.826   3.870  0.0137  0.0081 -0.1781
 1793TIP3    H126870   1.952   5.769   3.823  0.7368  0.3881  0.2711
 1793TIP3    H226871   1.816   5.771   3.888 -0.4707 -0.0434 -2.1220
 1794TIP3   OH226872   2.352   2.186  17.206 -0.0930  0.0136  0.0823
 1794TIP3    H126873   2.334   2.223  17.293  1.2148 -2.2431  1.4111
 1794TIP3    H226874   2.361   2.092  17.222  3.1261 -0.1759 -1.9631
 1795TIP3   OH226875   6.177   1.562   1.668 -0.4511  0.0145  0.3569
 1795TIP3    H126876   6.185   1.497   1.738 -1.1468 -0.5409 -0.0764
 1795TIP3    H226877   6.267   1.593   1.654 -0.1263 -0.7824  0.6294
 1796TIP3   OH226878   3.439   3.585   2.198 -0.0966  0.2173  0.8137
 1796TIP3    H126879   3.405   3.628   2.119 -0.4081 -1.1861  0.1519
 1796TIP3    H226880   3.392   3.627   2.270 -1.6052 -0.1267  0.0814
 1797TIP3   OH226881   2.865   2.290  17.453 -0.2155 -0.1649  0.4061
 1797TIP3    H126882   2.946   2.288  17.402  1.3383 -0.3109  2.7287
 1797TIP3    H226883   2.848   2.383  17.467 -0.4968 -0.1325 -0.1322
 1798TIP3   OH226884   1.882   4.580   2.690  0.3789  0.3706  0.1163
 1798TIP3    H126885   1.978   4.581   2.691  0.4687 -1.5953  2.5906
 1798TIP3    H226886   1.857   4.672   2.701  1.9388  0.9127 -0.5126
 1799TIP3   OH226887   5.314   3.739   1.683 -0.2535 -0.1303 -0.4230
 1799TIP3    H126888   5.399   3.697   1.671 -0.0224  0.1627  0.1503
 1799TIP3    H226889   5.257   3.670   1.717 -0.4352 -0.5015 -1.4539
 1800TIP3   OH226890   6.451   1.029   2.214  0.3621 -0.2346  0.2000
 1800TIP3    H126891   6.490   1.109   2.249 -1.7904  0.1678  1.9083
 1800TIP3    H226892   6.375   1.014   2.270 -1.1192 -1.7086 -2.0880
 1801TIP3   OH226893   1.154   3.625   4.251 -0.1554  0.0857 -0.2782
 1801TIP3    H126894   1.066   3.610   4.218  0.2672 -0.3477 -1.2458
 1801TIP3    H226895   1.212   3.590   4.183  0.7587  0.0431  0.4917
 1802TIP3   OH226896   4.486   4.312   2.552 -0.0551 -0.5380  0.1977
 1802TIP3    H126897   4.561   4.307   2.611  0.0127  1.5449  0.3632
 1802TIP3    H226898   4.491   4.399   2.513 -1.2378 -1.1220 -1.3806
 1803TIP3   OH226899   1.542   3.566   4.332  0.0421 -0.0177 -0.2329
 1803TIP3    H126900   1.514   3.568   4.423 -3.6251  0.1567 -1.2199
 1803TIP3    H226901   1.506   3.483   4.298 -0.9223  1.0910 -2.0787
 1804TIP3   OH226902   0.618   0.754  15.615  0.2328 -0.0199  0.1271
 1804TIP3    H126903   0.558   0.810  15.664  1.5763 -0.2919  2.1763
 1804TIP3    H226904   0.657   0.813  15.550  0.7951  1.1855  1.5068
 1805TIP3   OH226905   1.749   0.125  13.993  0.2331  0.1214  0.4194
 1805TIP3    H126906   1.697   0.048  14.018  0.6227 -0.2863  0.0028
 1805TIP3    H226907   1.837   0.105  14.027  0.3778  0.2999  0.1458
 1806TIP3   OH226908   1.777   2.669  13.072 -0.4310  0.0880 -0.1689
 1806TIP3    H126909   1.855   2.718  13.045 -0.6600  1.1828  0.9960
 1806TIP3    H226910   1.792   2.580  13.041  1.5313  0.1453  0.4421
 1807TIP3   OH226911   5.156   5.108  15.864 -0.3413  0.2239 -0.1183
 1807TIP3    H126912   5.178   5.062  15.783  1.2374  2.0568 -0.7891
 1807TIP3    H226913   5.230   5.089  15.922 -0.2654  0.9345  0.0183
 1808TIP3   OH226914   3.090   6.100  12.187  0.9566  0.7774  0.0980
 1808TIP3    H126915   3.081   6.005  12.190 -0.7843  0.8061 -1.9841
 1808TIP3    H226916   3.133   6.122  12.270 -1.1584 -1.5623  1.9982
 1809TIP3   OH226917   3.917   1.220   1.664  0.0244  0.0484  0.3630
 1809TIP3    H126918   3.961   1.244   1.582  2.3576  1.1276  1.8509
 1809TIP3    H226919   3.979   1.162   1.708 -2.1284 -2.3821  0.4752
 1810TIP3   OH226920   3.587   0.691   6.486 -0.3012 -0.3022 -0.1067
 1810TIP3    H126921   3.617   0.612   6.531  1.9911  1.5064  1.6911
 1810TIP3    H226922   3.664   0.723   6.439 -0.2465  2.5642  1.7687
 1811TIP3   OH226923   1.431   3.559  13.760  0.3841 -0.0528 -0.0530
 1811TIP3    H126924   1.500   3.495  13.778  0.5263  0.3002  0.7327
 1811TIP3    H226925   1.474   3.644  13.775  0.6195  0.3204 -2.5134
 1812TIP3   OH226926   5.169   6.200  12.226  0.0396  0.6743  0.3079
 1812TIP3    H126927   5.263   6.213  12.215  0.2211 -0.0347  0.9284
 1812TIP3    H226928   5.132   6.209  12.138  1.1638 -2.8253 -0.6559
 1813TIP3   OH226929   4.420   5.333  12.397  0.2078 -0.0472 -0.0012
 1813TIP3    H126930   4.395   5.278  12.471 -2.5244  0.0157 -0.7488
 1813TIP3    H226931   4.412   5.275  12.321 -1.6159  1.0130 -0.6763
 1814TIP3   OH226932   2.419   1.184   3.245 -0.1564  0.2228  0.0388
 1814TIP3    H126933   2.430   1.273   3.277 -1.4586  0.3199  0.2539
 1814TIP3    H226934   2.384   1.136   3.320 -0.6763 -0.1714 -0.4527
 1815TIP3   OH226935   4.859   5.050   1.020  0.4885  0.5525  0.3977
 1815TIP3    H126936   4.910   5.131   1.012  1.1550  0.3699  2.3591
 1815TIP3    H226937   4.824   5.035   0.932  1.7337  2.0511 -0.3958
 1816TIP3   OH226938   5.004   3.525  16.451  0.2753  0.0732  0.5978
 1816TIP3    H126939   5.052   3.607  16.436  0.1321 -0.0025 -0.3311
 1816TIP3    H226940   4.966   3.536  16.538  0.1064  1.0749  0.4123
 1817TIP3   OH226941   6.024   0.743  17.394 -0.9064  0.7580  0.3671
 1817TIP3    H126942   6.035   0.831  17.430 -1.7987  1.9288 -1.9968
 1817TIP3    H226943   5.955   0.752  17.328 -0.7334 -1.6303 -0.2528
 1818TIP3   OH226944   3.254   6.512   5.028  0.4422 -0.0935  0.4809
 1818TIP3    H126945   3.259   6.417   5.019 -1.3193 -0.0632 -1.2841
 1818TIP3    H226946   3.322   6.545   4.970 -0.0132 -0.2495 -0.1454
 1819TIP3   OH226947   5.788   0.779   0.525  0.2148  0.2568 -0.2888
 1819TIP3    H126948   5.743   0.864   0.528  0.4349  0.3586  0.1629
 1819TIP3    H226949   5.718   0.716   0.509  0.1139  0.5706 -1.1390
 1820TIP3   OH226950   4.990   1.968  12.344 -0.2799 -0.1118 -0.3136
 1820TIP3    H126951   5.013   1.909  12.416  0.9341  0.5495 -0.1220
 1820TIP3    H226952   5.066   1.965  12.286 -0.7964  0.1964 -1.0188
 1821TIP3   OH226953   3.170   0.228  17.344 -0.0875  0.0690  0.4397
 1821TIP3    H126954   3.143   0.276  17.266  0.0261  1.0159  0.9672
 1821TIP3    H226955   3.227   0.288  17.391  1.2323 -1.1045  0.4146
 1822TIP3   OH226956   6.442   2.616  17.351  0.2194 -0.0656  0.3663
 1822TIP3    H126957   6.468   2.540  17.300  1.7676  0.0464  0.9257
 1822TIP3    H226958   6.457   2.690  17.293  2.1623  0.0779  0.9925
 1823TIP3   OH226959   1.413   5.449  12.214  0.0827  0.6652  0.1707
 1823TIP3    H126960   1.465   5.394  12.155  0.5347  1.8554 -0.5795
 1823TIP3    H226961   1.336   5.474  12.163 -1.4545 -1.3532  1.3869
 1824TIP3   OH226962   5.213   5.608   5.549  0.1892  0.2017  0.1314
 1824TIP3    H126963   5.122   5.633   5.563 -0.0921 -0.9892  0.4848
 1824TIP3    H226964   5.218   5.517   5.577  1.2905 -0.0160 -0.7153
 1825TIP3   OH226965   4.159   1.541   5.646  0.4444 -0.5760  0.1251
 1825TIP3    H126966   4.123   1.505   5.564  2.7161 -2.5597 -0.1297
 1825TIP3    H226967   4.182   1.631   5.625 -0.2807 -0.6317 -0.9980
 1826TIP3   OH226968   1.869   4.939   6.261 -0.1524  0.4013  0.7097
 1826TIP3    H126969   1.830   4.867   6.312  0.4486  0.0622  0.6908
 1826TIP3    H226970   1.952   4.905   6.229 -0.9731  0.2388 -1.4108
 1827TIP3   OH226971   2.782   3.794   3.006  0.3506  0.5653 -0.8797
 1827TIP3    H126972   2.777   3.704   3.039 -0.7084  0.6830 -0.6528
 1827TIP3    H226973   2.693   3.811   2.974 -0.1499  2.3074  1.2013
 1828TIP3   OH226974   4.567   3.740   4.682 -0.4422 -0.3548 -0.5779
 1828TIP3    H126975   4.622   3.797   4.735  0.6226 -0.7505 -1.2418
 1828TIP3    H226976   4.577   3.653   4.722 -0.5444 -0.4405 -0.7371
 1829TIP3   OH226977   6.148   6.599  10.423 -0.4080 -0.2392 -0.6523
 1829TIP3    H126978   6.128   6.673  10.479 -0.5998  0.2641 -1.3830
 1829TIP3    H226979   6.163   6.526  10.484  1.7767  0.8383  0.2007
 1830TIP3   OH226980   2.616   4.721   6.085 -0.4556 -0.2286  0.0619
 1830TIP3    H126981   2.626   4.795   6.145  0.1705 -0.8565  0.7443
 1830TIP3    H226982   2.705   4.704   6.053 -0.7467 -0.0563 -0.8591
 1831TIP3   OH226983   3.456   0.174  15.893 -0.3328  0.2714  0.3004
 1831TIP3    H126984   3.398   0.101  15.871  2.1439 -2.1142  1.1253
 1831TIP3    H226985   3.533   0.161  15.838  0.5462  1.7374  1.1315
 1832TIP3   OH226986   1.389   3.219   0.526  0.1859 -0.5065 -0.1476
 1832TIP3    H126987   1.322   3.280   0.497  0.2137 -0.2706  0.2703
 1832TIP3    H226988   1.343   3.137   0.540 -0.2482 -0.0771  1.1742
 1833TIP3   OH226989   0.733   2.073   3.563  0.4150  0.0507 -0.1599
 1833TIP3    H126990   0.689   2.032   3.638  1.0221  0.4351  0.4149
 1833TIP3    H226991   0.819   2.098   3.597 -0.5388  3.4735  0.1025
 1834TIP3   OH226992   5.330   2.857   1.734 -0.0332  0.1564 -0.1363
 1834TIP3    H126993   5.248   2.808   1.731  0.2971 -0.3567 -1.0705
 1834TIP3    H226994   5.397   2.790   1.747  0.1550  0.6911  2.0931
 1835TIP3   OH226995   1.581   6.690  12.577  0.0099  0.3231 -0.4133
 1835TIP3    H126996   1.522   6.646  12.638 -0.7561  1.2125 -0.4811
 1835TIP3    H226997   1.661   6.706  12.627  0.3380 -1.1581 -0.4056
 1836TIP3   OH226998   2.819   4.315   6.047 -0.6876  0.1212  0.4429
 1836TIP3    H126999   2.822   4.223   6.076  0.6443 -0.2001 -0.6326
 1836TIP3    H227000   2.731   4.325   6.009 -0.3457 -1.1449 -0.7583
 1837TIP3   OH227001   0.571   4.438  11.095  0.5206  0.1829 -0.5045
 1837TIP3    H127002   0.590   4.488  11.016  1.0963 -0.3129 -0.6870
 1837TIP3    H227003   0.502   4.377  11.068 -0.1970  0.8776 -0.2751
 1838TIP3   OH227004   5.250   3.210   5.739 -0.1806  0.4410  0.1896
 1838TIP3    H127005   5.258   3.284   5.800  2.3435  3.3275 -3.2155
 1838TIP3    H227006   5.319   3.149   5.767  0.2866  1.2243  0.8043
 1839TIP3   OH227007   3.699   4.859  14.915  0.2075  0.0272 -0.2553
 1839TIP3    H127008   3.615   4.902  14.932  0.0685 -0.2983 -0.1249
 1839TIP3    H227009   3.761   4.932  14.905 -0.1985  0.2904 -0.9698
 1840TIP3   OH227010   1.233   3.500  14.532  0.0751  0.0726  0.0943
 1840TIP3    H127011   1.231   3.569  14.466  1.3875  1.0470  1.0014
 1840TIP3    H227012   1.300   3.439  14.501 -0.8319 -0.6323 -0.5270
 1841TIP3   OH227013   1.982   3.912   2.139 -0.5566  0.2581  0.1597
 1841TIP3    H127014   1.902   3.964   2.155 -1.4883 -1.3394  0.9310
 1841TIP3    H227015   1.953   3.821   2.148  1.0488 -0.4089 -1.0728
 1842TIP3   OH227016   2.917   4.205   0.363  0.0409 -0.4642  0.1386
 1842TIP3    H127017   2.851   4.261   0.320  0.6362  0.1320 -0.0189
 1842TIP3    H227018   2.987   4.266   0.387  0.2285 -0.9836  0.9206
 1843TIP3   OH227019   2.424   2.424  14.778 -0.1125  0.1513  0.8153
 1843TIP3    H127020   2.357   2.364  14.744  0.1685 -0.9362  2.0898
 1843TIP3    H227021   2.506   2.377  14.765  0.3998  1.2777 -0.3005
 1844TIP3   OH227022   4.142   5.635   5.822  0.2256  0.3001 -0.0307
 1844TIP3    H127023   4.228   5.595   5.809  0.0348 -0.6954  1.4959
 1844TIP3    H227024   4.123   5.622   5.915 -1.3410  0.9967 -0.2151
 1845TIP3   OH227025   4.073   0.929   0.589  0.7363 -0.4390 -0.5165
 1845TIP3    H127026   4.041   0.896   0.673  0.4609 -2.8682 -1.5026
 1845TIP3    H227027   4.122   1.008   0.611 -2.1401  0.9541  1.5619
 1846TIP3   OH227028   0.851   3.077   4.347  0.0804  0.0344  0.2195
 1846TIP3    H127029   0.895   3.034   4.273 -0.9430  1.2365 -1.1448
 1846TIP3    H227030   0.759   3.056   4.336 -0.1780  0.8691  0.7033
 1847TIP3   OH227031   5.458   0.794  14.004  0.7257  0.2219 -0.1253
 1847TIP3    H127032   5.465   0.698  14.008 -1.0597 -0.0340 -1.6685
 1847TIP3    H227033   5.503   0.824  14.083  2.2470 -1.8173 -0.1060
 1848TIP3   OH227034   4.098   1.152  13.998  0.3857  0.2747  0.0930
 1848TIP3    H127035   4.154   1.144  14.075 -1.1728 -1.8627  1.1238
 1848TIP3    H227036   4.016   1.189  14.031 -0.4775 -1.1166 -0.3832
 1849TIP3   OH227037   2.317   4.996   5.954  0.4021 -0.0895 -0.3463
 1849TIP3    H127038   2.288   5.032   6.038 -0.3364 -1.2235 -0.1052
 1849TIP3    H227039   2.268   4.915   5.943  1.1184 -0.4041 -1.4773
 1850TIP3   OH227040   3.854   0.661   3.995  0.2190  0.4922  0.0396
 1850TIP3    H127041   3.790   0.732   4.000  1.2456  1.3814  1.0953
 1850TIP3    H227042   3.806   0.588   3.956 -1.1059  1.4856 -0.2537
 1851TIP3   OH227043   2.740   0.237   4.975  0.5215  0.2500  0.3016
 1851TIP3    H127044   2.702   0.274   4.896 -1.7872  3.5365  2.6966
 1851TIP3    H227045   2.833   0.263   4.971  0.2149  1.2570 -0.8652
 1852TIP3   OH227046   3.301   4.656   3.874  0.1604  0.6505 -0.0991
 1852TIP3    H127047   3.382   4.707   3.883  0.8742 -0.5693  0.7768
 1852TIP3    H227048   3.243   4.691   3.941  1.3745 -0.9359  1.8979
 1853TIP3   OH227049   5.567   3.513  13.396 -0.5143  0.4069  0.3076
 1853TIP3    H127050   5.576   3.591  13.452 -1.3483  0.5698  0.2285
 1853TIP3    H227051   5.598   3.542  13.310  0.9586  0.0987  0.7159
 1854TIP3   OH227052   4.011   2.090  12.319 -0.5360  0.6467 -0.3135
 1854TIP3    H127053   4.096   2.090  12.362 -0.6361  1.0555 -0.1099
 1854TIP3    H227054   4.030   2.070  12.227 -0.2946  0.0573 -0.1351
 1855TIP3   OH227055   6.032   4.089   0.073 -0.1694  0.3786  0.3441
 1855TIP3    H127056   6.056   4.069  -0.017 -0.1635  0.6711  0.2802
 1855TIP3    H227057   5.938   4.109   0.069 -0.1624  0.4225  0.3991
 1856TIP3   OH227058   2.117   4.185  11.022 -0.8959  0.1302 -0.3992
 1856TIP3    H127059   2.024   4.191  10.999 -1.5742  1.2067  2.2412
 1856TIP3    H227060   2.125   4.103  11.070 -0.7105  0.4942  0.2044
 1857TIP3   OH227061   6.491   0.183   2.772 -0.8316 -0.4182  0.0786
 1857TIP3    H127062   6.475   0.275   2.752  1.4748 -0.2860 -1.5212
 1857TIP3    H227063   6.434   0.135   2.712 -0.9259 -0.0278 -0.1465
 1858TIP3   OH227064   4.800   3.692   2.195 -0.7757  0.1574 -0.4948
 1858TIP3    H127065   4.803   3.785   2.172  0.7914  1.0217  2.6179
 1858TIP3    H227066   4.834   3.648   2.117  1.4155  2.4857 -1.0101
 1859TIP3   OH227067   6.208   3.195  13.772 -0.2335 -0.4812 -0.8710
 1859TIP3    H127068   6.218   3.290  13.765  1.6031 -0.4868  0.8199
 1859TIP3    H227069   6.298   3.161  13.768 -0.3380 -1.7082  3.2796
 1860TIP3   OH227070   0.137   4.946   2.714  0.7166  0.4280  0.5982
 1860TIP3    H127071   0.116   4.856   2.689  3.2468 -0.5131  1.4985
 1860TIP3    H227072   0.125   4.997   2.634 -0.9051 -0.6508  0.1074
 1861TIP3   OH227073   4.346   4.932   6.232  0.1280  0.0436  0.5505
 1861TIP3    H127074   4.337   4.992   6.159  0.0147  0.0310  0.5546
 1861TIP3    H227075   4.264   4.939   6.281  0.3887  0.4103  0.9473
 1862TIP3   OH227076   2.076   1.611   2.851 -0.2808  0.1131 -0.2700
 1862TIP3    H127077   2.053   1.648   2.936 -1.2055  1.6181 -1.1289
 1862TIP3    H227078   2.150   1.553   2.869 -0.1491  0.7671  1.4791
 1863TIP3   OH227079   3.403   1.114   3.746 -0.6188  0.0016  0.5478
 1863TIP3    H127080   3.384   1.208   3.737  1.1279  0.4338  1.0271
 1863TIP3    H227081   3.472   1.097   3.682 -0.4730 -0.8100  0.9115
 1864TIP3   OH227082   4.833   0.336   5.022  0.4636  0.2305 -0.3564
 1864TIP3    H127083   4.793   0.275   4.960  1.1036 -0.8695  0.2755
 1864TIP3    H227084   4.901   0.380   4.971  0.4196 -0.0538 -0.6682
 1865TIP3   OH227085   3.590   2.643   5.437  0.0589 -0.2189 -0.0104
 1865TIP3    H127086   3.684   2.633   5.456  0.0099  0.1497  0.4372
 1865TIP3    H227087   3.568   2.730   5.471 -0.7756 -0.8872  1.2109
 1866TIP3   OH227088   2.714   2.660   2.504 -0.3060 -0.6059  0.1546
 1866TIP3    H127089   2.658   2.605   2.559  0.3011  1.0971  2.6864
 1866TIP3    H227090   2.791   2.677   2.559  0.7704  0.4910 -1.6061
 1867TIP3   OH227091   0.350   3.190   2.766 -0.1015 -0.2962  0.2503
 1867TIP3    H127092   0.409   3.115   2.755  1.6906  1.2410 -1.3051
 1867TIP3    H227093   0.302   3.195   2.684 -0.8240 -0.2229  0.6708
 1868TIP3   OH227094   2.090   0.435   1.819 -0.1211  0.2961 -0.2193
 1868TIP3    H127095   2.126   0.422   1.907  1.3208  0.6566 -0.7217
 1868TIP3    H227096   2.083   0.347   1.783 -0.1619  0.1870  0.0522
 1869TIP3   OH227097   5.930   6.183  15.430 -0.4105 -0.2413  0.2532
 1869TIP3    H127098   5.881   6.249  15.381  1.9488 -0.1248 -2.1933
 1869TIP3    H227099   6.019   6.218  15.435  0.2385 -1.9385  1.5104
 1870TIP3   OH227100   6.365   3.855  16.447  0.1303 -0.1475  0.0869
 1870TIP3    H127101   6.441   3.837  16.393 -0.7177 -1.9694 -0.5697
 1870TIP3    H227102   6.394   3.837  16.536  1.0346  1.2183  0.1071
 1871TIP3   OH227103   4.155   6.483   5.617 -0.6605  0.1270  0.2307
 1871TIP3    H127104   4.214   6.413   5.590 -0.0510  0.1195  1.5078
 1871TIP3    H227105   4.172   6.554   5.555 -0.2772 -0.3588 -0.2286
 1872TIP3   OH227106   5.232   1.956   2.128 -0.1611 -0.5131  0.6613
 1872TIP3    H127107   5.305   1.924   2.075  1.0487 -0.1357  2.0429
 1872TIP3    H227108   5.173   1.880   2.134  0.6842 -1.2067  0.4950
 1873TIP3   OH227109   0.623   4.937   5.021 -0.1322  0.0584 -0.1416
 1873TIP3    H127110   0.717   4.920   5.025 -0.3448 -1.7651 -1.4167
 1873TIP3    H227111   0.592   4.925   5.111  0.6159 -1.1351 -0.0235
 1874TIP3   OH227112   2.134   6.135   4.685 -0.3409 -0.1348  0.0425
 1874TIP3    H127113   2.134   6.217   4.636 -0.7986  0.2428  0.6678
 1874TIP3    H227114   2.203   6.145   4.750  0.1500 -0.5691 -0.3994
 1875TIP3   OH227115   3.149   6.668   3.328  0.3487 -0.0204 -0.2480
 1875TIP3    H127116   3.149   6.729   3.254  0.8311 -0.0847 -0.3046
 1875TIP3    H227117   3.190   6.717   3.400  1.8999 -0.6806 -0.6468
 1876TIP3   OH227118   1.540   0.078  13.212  0.2787  0.2206  0.4721
 1876TIP3    H127119   1.482   0.145  13.177 -0.4201 -0.4687  0.2635
 1876TIP3    H227120   1.605   0.063  13.142  0.2183  0.4197  0.3741
 1877TIP3   OH227121   1.915   0.648  14.977 -0.2048 -0.4821 -0.5415
 1877TIP3    H127122   1.841   0.707  14.988  0.2234  0.1801 -1.1037
 1877TIP3    H227123   1.886   0.584  14.912 -0.1567  0.0130 -1.0626
 1878TIP3   OH227124   6.370   4.033   1.316  0.8704 -0.1442 -0.5155
 1878TIP3    H127125   6.327   3.955   1.284 -0.6245  1.2176 -2.0071
 1878TIP3    H227126   6.394   4.082   1.237  1.4222  1.0806  0.3696
 1879TIP3   OH227127   3.184   5.530  14.431  0.4638 -0.0880 -0.2471
 1879TIP3    H127128   3.235   5.459  14.392  0.6624  0.0769 -0.2864
 1879TIP3    H227129   3.199   5.521  14.525 -1.7027 -1.8292  0.0462
 1880TIP3   OH227130   6.184   4.493  14.780  0.2274  0.3629 -0.5386
 1880TIP3    H127131   6.149   4.406  14.763  2.2822 -0.6131 -0.0460
 1880TIP3    H227132   6.255   4.503  14.716  1.0426  1.0060  0.4449
 1881TIP3   OH227133   3.130   4.162  11.579 -0.5415 -0.1354 -0.1314
 1881TIP3    H127134   3.153   4.222  11.651  0.8982 -0.8539  0.0320
 1881TIP3    H227135   3.214   4.130  11.547 -1.1717  0.0505 -2.0653
 1882TIP3   OH227136   0.901   5.222   1.886 -0.1219  0.2229  0.2250
 1882TIP3    H127137   0.817   5.215   1.931  0.7644 -1.4003  1.7793
 1882TIP3    H227138   0.937   5.307   1.915  0.2708 -0.6247  2.4376
 1883TIP3   OH227139   2.399   6.213   0.589 -0.3427 -0.3461  0.3065
 1883TIP3    H127140   2.411   6.281   0.523 -1.0093  0.5723  1.1004
 1883TIP3    H227141   2.357   6.141   0.543  1.2996 -0.6615 -0.7839
 1884TIP3   OH227142   2.832   3.184  12.360  0.2404  0.4046  0.7469
 1884TIP3    H127143   2.871   3.098  12.371 -0.0513  0.5244  3.1662
 1884TIP3    H227144   2.898   3.245  12.393  0.1267  1.0772 -0.2103
 1885TIP3   OH227145   3.007   6.372  12.971  0.4681 -0.1168 -0.4829
 1885TIP3    H127146   2.963   6.350  12.889  1.7355 -0.6057 -1.0572
 1885TIP3    H227147   3.036   6.462  12.959  1.4494 -0.4830 -0.9531
 1886TIP3   OH227148   0.658   1.660   4.819 -0.2278  0.1867  0.2203
 1886TIP3    H127149   0.650   1.688   4.728  1.1578  0.1996  0.0731
 1886TIP3    H227150   0.584   1.601   4.832 -2.3904  2.6986  0.1136
 1887TIP3   OH227151   5.534   0.416   2.219  0.5831 -0.5004  0.1503
 1887TIP3    H127152   5.578   0.483   2.165 -0.8674  0.1035 -0.3288
 1887TIP3    H227153   5.574   0.334   2.192  0.1910 -0.1629 -1.5516
 1888TIP3   OH227154   3.134   6.695   1.741 -0.0534 -0.0630  0.4645
 1888TIP3    H127155   3.147   6.688   1.647  0.5821  1.7620  0.3958
 1888TIP3    H227156   3.184   6.622   1.778 -1.4476 -1.6624 -0.6458
 1889TIP3   OH227157   0.730   2.592   2.065  0.4651 -0.0770  0.3737
 1889TIP3    H127158   0.804   2.531   2.071 -0.2745 -1.3271 -1.8501
 1889TIP3    H227159   0.701   2.604   2.155  1.8222 -1.5105  1.0576
 1890TIP3   OH227160   4.767   4.357  14.686 -0.6726 -0.5851 -0.2880
 1890TIP3    H127161   4.767   4.266  14.656 -0.7554 -1.2586  1.6224
 1890TIP3    H227162   4.735   4.352  14.776  0.1285  1.2513  0.1310
 1891TIP3   OH227163   0.128   3.532   6.361  0.0824 -0.0802  0.1533
 1891TIP3    H127164   0.118   3.541   6.456 -1.0604 -1.3487  0.1934
 1891TIP3    H227165   0.111   3.439   6.344  1.4218 -0.1159 -1.1722
 1892TIP3   OH227166   2.122   4.701  13.597 -0.0811 -0.1417 -0.1458
 1892TIP3    H127167   2.209   4.732  13.572 -0.5836  1.0613 -0.5220
 1892TIP3    H227168   2.082   4.672  13.515 -0.1922 -0.2732 -0.0465
 1893TIP3   OH227169   0.539   2.462  11.840  0.2445 -0.2714  0.4291
 1893TIP3    H127170   0.548   2.471  11.935  0.7600  0.0754  0.3517
 1893TIP3    H227171   0.602   2.394  11.817  0.4733 -0.0118  0.2777
 1894TIP3   OH227172   2.058   4.398   4.652  0.2679 -0.3926  0.0747
 1894TIP3    H127173   1.970   4.424   4.625  0.6088 -0.3057 -1.0129
 1894TIP3    H227174   2.058   4.303   4.649 -0.1463 -0.4527  1.3146
 1895TIP3   OH227175   2.112   6.177  14.059 -0.2406  0.3898 -0.2760
 1895TIP3    H127176   2.091   6.222  14.140 -0.6131 -1.4911  0.7193
 1895TIP3    H227177   2.204   6.198  14.043 -0.3537  1.3328  0.2449
 1896TIP3   OH227178   3.330   0.218   5.506 -0.2404 -0.7419  0.5421
 1896TIP3    H127179   3.302   0.132   5.538  0.2656 -0.7977  0.8335
 1896TIP3    H227180   3.249   0.258   5.473 -0.5359 -1.1989  0.6960
 1897TIP3   OH227181   2.107   5.999  15.355 -0.3374  0.2915  0.1237
 1897TIP3    H127182   2.017   6.028  15.340 -0.6254  0.4428  1.9840
 1897TIP3    H227183   2.157   6.081  15.363 -0.1399  0.2108 -0.2671
 1898TIP3   OH227184   1.300   3.364   2.596  0.0734 -0.0382 -0.2168
 1898TIP3    H127185   1.226   3.387   2.539 -0.5202  2.4394  1.3646
 1898TIP3    H227186   1.260   3.316   2.669  0.5802 -1.7272 -1.0207
 1899TIP3   OH227187   3.395   1.868  13.137 -0.0402  0.5923 -0.5925
 1899TIP3    H127188   3.396   1.922  13.058  1.2121  1.7244  0.1546
 1899TIP3    H227189   3.303   1.846  13.150 -0.1810 -0.3526 -2.8284
 1900TIP3   OH227190   4.753   3.522  13.987  0.1806 -0.4761 -0.9965
 1900TIP3    H127191   4.829   3.521  13.929  0.1943 -0.6284 -0.9755
 1900TIP3    H227192   4.775   3.585  14.055 -0.7841  1.5215 -2.4385
 1901TIP3   OH227193   2.520   2.160   5.602  0.2837  0.4811  0.3567
 1901TIP3    H127194   2.441   2.149   5.549 -0.0189 -0.0512  0.9082
 1901TIP3    H227195   2.550   2.071   5.618 -0.2547  0.5666  2.0058
 1902TIP3   OH227196   5.394   5.659  12.222  0.1355  0.1614  1.1801
 1902TIP3    H127197   5.397   5.669  12.127  0.2438 -1.0031  1.0396
 1902TIP3    H227198   5.465   5.598  12.242  0.3818  0.7232  2.0624
 1903TIP3   OH227199   0.641   3.813  12.114  0.1152  0.2512  0.3610
 1903TIP3    H127200   0.646   3.874  12.188  0.6179 -0.1397  0.6506
 1903TIP3    H227201   0.550   3.784  12.114 -0.6638  2.4428 -0.9513
 1904TIP3   OH227202   5.086   4.570  13.236  0.4227 -0.0626  0.1181
 1904TIP3    H127203   5.175   4.601  13.223  0.8083 -0.4825  1.6662
 1904TIP3    H227204   5.090   4.476  13.220  0.0549  0.0416 -0.6669
 1905TIP3   OH227205   3.204   4.834   3.322 -0.3588 -0.1063 -0.1337
 1905TIP3    H127206   3.219   4.740   3.324 -0.8854 -0.1736  0.9425
 1905TIP3    H227207   3.207   4.862   3.413  1.1876  1.1695 -0.5186
 1906TIP3   OH227208   6.320   2.140   5.303  0.3586 -0.0169  0.2441
 1906TIP3    H127209   6.280   2.130   5.389  0.6993 -0.2175  0.3811
 1906TIP3    H227210   6.364   2.225   5.306  2.0452 -0.8730  0.9641
 1907TIP3   OH227211   0.073   2.375  15.795  0.3683 -0.2104  0.2877
 1907TIP3    H127212   0.029   2.351  15.713  0.5189 -0.9986  0.4322
 1907TIP3    H227213   0.142   2.309  15.805 -0.0403 -0.4932  1.3698
 1908TIP3   OH227214   0.144   3.595  13.575  0.5666  0.5421 -0.2183
 1908TIP3    H127215   0.137   3.524  13.511 -1.8513  2.0987 -1.8602
 1908TIP3    H227216   0.217   3.647  13.545  0.4114  0.4147 -0.8280
 1909TIP3   OH227217   0.907   1.743  12.633 -0.2762  0.8809  0.3543
 1909TIP3    H127218   1.001   1.736  12.653 -0.6540 -1.8283  1.6173
 1909TIP3    H227219   0.877   1.818  12.684  0.9938  1.0424  0.9071
 1910TIP3   OH227220   4.992   5.356  11.976  0.0840  0.2241 -0.0223
 1910TIP3    H127221   4.972   5.284  12.036 -0.5091  1.7794  1.7288
 1910TIP3    H227222   5.087   5.366  11.981  0.0367  0.3487  0.6796
 1911TIP3   OH227223   3.107   1.206   2.873  0.2501  0.0172 -0.0320
 1911TIP3    H127224   3.192   1.244   2.894  0.5788 -0.6793 -0.0658
 1911TIP3    H227225   3.111   1.117   2.910 -0.1884 -0.2677 -0.6542
 1912TIP3   OH227226   3.780   6.374   5.686  0.2047  0.0388 -0.0880
 1912TIP3    H127227   3.797   6.465   5.665  0.6303  0.1150  0.5432
 1912TIP3    H227228   3.846   6.352   5.751  1.0934 -1.1661 -1.3428
 1913TIP3   OH227229   6.373   6.717   2.648 -0.6958 -0.2433  0.1428
 1913TIP3    H127230   6.429   6.660   2.595 -0.9595 -0.2299 -0.1613
 1913TIP3    H227231   6.290   6.717   2.601 -0.5674  0.7363 -0.0971
 1914TIP3   OH227232   2.720   5.151  16.460 -0.6665  0.1898  0.3280
 1914TIP3    H127233   2.705   5.104  16.378 -2.7070  1.3435 -0.0332
 1914TIP3    H227234   2.657   5.114  16.521 -2.1998  2.2412  0.0841
 1915TIP3   OH227235   2.049   6.586   5.782 -0.1288  0.0136  0.0525
 1915TIP3    H127236   2.068   6.512   5.724 -0.7126  0.4846 -0.7561
 1915TIP3    H227237   1.955   6.582   5.796 -0.1386  0.5073  0.1325
 1916TIP3   OH227238   2.383   4.596  14.867  0.6483 -0.2887  0.7722
 1916TIP3    H127239   2.346   4.663  14.925  0.2720  0.5810 -0.4427
 1916TIP3    H227240   2.316   4.528  14.864  0.6726 -0.3451  1.3448
 1917TIP3   OH227241   1.383   4.304  12.366 -1.0819  0.5190  0.0967
 1917TIP3    H127242   1.318   4.317  12.435 -1.4492  0.7316 -0.2897
 1917TIP3    H227243   1.374   4.212  12.341 -0.0136  0.0603  1.2686
 1918TIP3   OH227244   4.269   4.556   1.922  0.3273 -0.2571  0.0124
 1918TIP3    H127245   4.292   4.481   1.868  0.5511 -0.9569  1.0561
 1918TIP3    H227246   4.272   4.523   2.012  2.6156  1.5215  0.6863
 1919TIP3   OH227247   5.857   5.351   0.134  0.1522  0.0992  0.7329
 1919TIP3    H127248   5.794   5.387   0.073  0.8225 -1.7800 -1.1986
 1919TIP3    H227249   5.941   5.387   0.107  0.4460 -0.6952  0.5461
 1920TIP3   OH227250   1.805   6.371   1.488 -0.1893 -0.2196  0.6705
 1920TIP3    H127251   1.887   6.348   1.531 -0.4525 -0.2222  1.1773
 1920TIP3    H227252   1.776   6.289   1.447  0.0234 -0.2365  0.5553
 1921TIP3   OH227253   3.038   6.065   2.387 -0.5186  0.0428  0.8600
 1921TIP3    H127254   2.948   6.076   2.418 -0.3019  0.7458  1.2508
 1921TIP3    H227255   3.067   5.982   2.426 -0.8896 -0.0253  0.9937
 1922TIP3   OH227256   1.543   2.244   4.995  0.2248  0.0654  0.2329
 1922TIP3    H127257   1.636   2.226   5.009  0.7311  2.0640 -0.1419
 1922TIP3    H227258   1.510   2.270   5.081  0.5686  1.3793  0.0000
 1923TIP3   OH227259   3.821   1.041   4.491  0.1902  0.2706 -0.2805
 1923TIP3    H127260   3.868   1.064   4.572  0.4545  0.9116 -0.6102
 1923TIP3    H227261   3.888   1.043   4.423 -0.4166  1.9674 -0.8995
 1924TIP3   OH227262   3.179   1.010  12.178 -0.1390  0.5571 -0.4357
 1924TIP3    H127263   3.133   0.926  12.179  0.6371  0.1220  1.2028
 1924TIP3    H227264   3.114   1.073  12.210 -0.0099  0.1536  0.6600
 1925TIP3   OH227265   0.561   4.415   3.969  0.0464 -0.3883  0.6315
 1925TIP3    H127266   0.656   4.401   3.970 -0.0377 -1.0947 -0.1416
 1925TIP3    H227267   0.524   4.330   3.946 -0.5551  0.6702 -2.9012
 1926TIP3   OH227268   1.697   2.698   3.100  0.0932 -0.2019  0.2445
 1926TIP3    H127269   1.705   2.748   3.182 -0.6605 -0.8860  0.7527
 1926TIP3    H227270   1.613   2.725   3.063  0.5332  0.2670 -0.4262
 1927TIP3   OH227271   3.801   3.300  16.138  0.4530  0.0893  0.1559
 1927TIP3    H127272   3.875   3.332  16.189 -0.7427  0.9896  1.3899
 1927TIP3    H227273   3.762   3.378  16.100 -0.0806 -0.3358 -0.1861
 1928TIP3   OH227274   2.167   3.214   3.834 -0.4064 -0.1096 -0.2703
 1928TIP3    H127275   2.196   3.180   3.919 -0.2278 -1.4665 -0.8515
 1928TIP3    H227276   2.160   3.309   3.847 -1.8865 -0.4251  1.7241
 1929TIP3   OH227277   1.500   2.596  15.393  0.4332  0.0536 -0.8263
 1929TIP3    H127278   1.457   2.540  15.458  1.8456 -0.1624 -0.0276
 1929TIP3    H227279   1.494   2.684  15.429 -3.7727  0.9357 -3.1226
 1930TIP3   OH227280   4.197   2.325  17.367 -0.2067  0.2992 -0.3797
 1930TIP3    H127281   4.109   2.335  17.333 -0.4833 -0.0841  0.2056
 1930TIP3    H227282   4.250   2.387  17.317 -1.0751  1.6179  0.2717
 1931TIP3   OH227283   6.110   5.406  15.715 -0.2286  0.3906  0.0531
 1931TIP3    H127284   6.023   5.444  15.716  0.0748  1.1387 -0.7423
 1931TIP3    H227285   6.156   5.453  15.645  0.3338 -1.0524 -0.5881
 1932TIP3   OH227286   1.610   2.360  16.177  0.2561 -0.1762  0.3822
 1932TIP3    H127287   1.644   2.444  16.148  0.0056 -0.4310 -0.6934
 1932TIP3    H227288   1.582   2.375  16.267  2.4159  0.2654  1.0533
 1933TIP3   OH227289   3.742   5.106   4.254  0.3936  0.4057  0.0780
 1933TIP3    H127290   3.777   5.153   4.178 -1.7300 -0.9123 -1.8782
 1933TIP3    H227291   3.773   5.016   4.243 -0.9180 -0.0662  0.0561
 1934TIP3   OH227292   3.329   2.637  17.515  0.6211  0.2144 -0.5659
 1934TIP3    H127293   3.300   2.559  17.563  1.0336  0.3477 -0.0991
 1934TIP3    H227294   3.248   2.672  17.476  0.7324 -1.7627 -2.7839
 1935TIP3   OH227295   2.347   5.819   5.812  0.1157  0.4497  0.1922
 1935TIP3    H127296   2.341   5.737   5.763  2.8488 -0.6437  1.4464
 1935TIP3    H227297   2.273   5.871   5.781 -1.9994 -2.6121 -0.3519
 1936TIP3   OH227298   0.079   3.251  10.841  0.2124  0.3066  0.2310
 1936TIP3    H127299   0.116   3.305  10.770  0.5626 -1.0287 -0.6414
 1936TIP3    H227300   0.147   3.252  10.909  1.8405 -1.8293 -1.2135
 1937TIP3   OH227301   1.504   5.714  12.930  0.5423  0.0211  0.5060
 1937TIP3    H127302   1.513   5.621  12.952  3.0606  0.0262 -0.1765
 1937TIP3    H227303   1.489   5.715  12.835 -2.5554  0.2801  0.8979
 1938TIP3   OH227304   6.280   3.397   0.934 -0.2110  0.1058  0.1389
 1938TIP3    H127305   6.330   3.395   1.016  0.6090  0.2435 -0.3388
 1938TIP3    H227306   6.194   3.364   0.957  0.3151 -0.8225  0.8584
 1939TIP3   OH227307   4.986   6.310  16.859 -0.0396 -0.3260  0.0210
 1939TIP3    H127308   5.041   6.233  16.846 -1.5073 -1.6293  1.0904
 1939TIP3    H227309   4.971   6.312  16.954 -1.8646 -0.0892 -0.2428
 1940TIP3   OH227310   1.397   0.245   4.049 -0.0593  0.2306 -0.1913
 1940TIP3    H127311   1.334   0.182   4.084  0.3859  0.0687  0.3232
 1940TIP3    H227312   1.372   0.328   4.090  1.5064 -0.2470  1.9568
 1941TIP3   OH227313   1.328   4.073  15.133 -0.3660 -0.1634 -0.2367
 1941TIP3    H127314   1.303   3.999  15.078 -0.0590 -0.6748  0.2962
 1941TIP3    H227315   1.288   4.054  15.218 -1.2631  0.8669 -0.3964
 1942TIP3   OH227316   0.991   4.873   3.762  0.1044  0.1983 -0.2742
 1942TIP3    H127317   0.901   4.840   3.768  0.0255  0.6042  1.2143
 1942TIP3    H227318   1.021   4.845   3.676 -0.5349 -2.2457  0.2288
 1943TIP3   OH227319   3.612   3.978  12.316  0.0028  0.8521 -0.3618
 1943TIP3    H127320   3.699   3.972  12.276  0.7861  0.0009  1.3695
 1943TIP3    H227321   3.566   3.899  12.286  0.5888  0.2145  0.3725
 1944TIP3   OH227322   3.567   2.668  13.312  1.1409  0.0536  0.4501
 1944TIP3    H127323   3.477   2.652  13.283  1.0818 -0.2172  0.7821
 1944TIP3    H227324   3.620   2.606  13.262  1.0438 -0.3822  0.8846
 1945TIP3   OH227325   2.238   2.863  12.225  0.1693  0.4527  0.0409
 1945TIP3    H127326   2.328   2.846  12.195  0.0447  1.4017 -0.9488
 1945TIP3    H227327   2.182   2.824  12.158 -0.1337  1.3772 -0.2575
 1946TIP3   OH227328   4.313   4.498  17.448 -0.1886  0.0853  0.9954
 1946TIP3    H127329   4.231   4.450  17.461  0.2623 -0.6693  1.0925
 1946TIP3    H227330   4.374   4.432  17.415  0.0809  0.8837 -0.1391
 1947TIP3   OH227331   3.749   3.667   5.026  0.4958 -0.4953 -0.2146
 1947TIP3    H127332   3.844   3.662   5.011  0.6392 -1.6331  0.9151
 1947TIP3    H227333   3.731   3.596   5.087 -1.1770 -0.5994 -0.7863
 1948TIP3   OH227334   6.612   5.998   3.782  0.3668  0.5017  0.0730
 1948TIP3    H127335   6.627   6.006   3.876  1.5378  0.6666 -0.1118
 1948TIP3    H227336   6.699   5.990   3.744 -0.1213 -0.3006 -0.9464
 1949TIP3   OH227337   0.486   4.507  15.211  0.5042 -0.4726  0.5418
 1949TIP3    H127338   0.538   4.468  15.280  1.2251 -2.4045 -0.9890
 1949TIP3    H227339   0.545   4.513  15.136 -0.5507  0.4612 -0.2615
 1950TIP3   OH227340   2.534   1.359   2.883 -0.8132  0.5014 -0.5773
 1950TIP3    H127341   2.497   1.271   2.893 -0.1711  0.2980  0.1831
 1950TIP3    H227342   2.628   1.343   2.871 -0.4738  1.1273  1.0329
 1951TIP3   OH227343   6.586   5.130  12.203  0.3581  0.1878  0.0745
 1951TIP3    H127344   6.560   5.213  12.244  0.3644 -0.4294  1.3796
 1951TIP3    H227345   6.514   5.070  12.224  1.3632 -0.7077  1.0562
 1952TIP3   OH227346   2.525   1.896  16.726 -0.0997 -0.3730  0.0692
 1952TIP3    H127347   2.532   1.977  16.675  1.3824  0.6780  1.8339
 1952TIP3    H227348   2.597   1.841  16.693 -0.7317 -0.7422 -0.7121
 1953TIP3   OH227349   3.852   1.971  11.224 -0.2587  0.5051  0.2817
 1953TIP3    H127350   3.756   1.974  11.232 -0.4820 -0.6012 -1.4297
 1953TIP3    H227351   3.872   2.039  11.160  0.0449  0.3532  0.2169
 1954TIP3   OH227352   1.509   2.512  15.133 -0.3097  0.0541  0.1058
 1954TIP3    H127353   1.540   2.563  15.208  0.3021  1.0118 -0.7658
 1954TIP3    H227354   1.521   2.421  15.159 -1.0123  0.3418  1.5288
 1955TIP3   OH227355   6.404   1.487  11.953 -0.0909 -0.7262  0.5406
 1955TIP3    H127356   6.345   1.545  11.904  0.8808 -0.6433 -0.5914
 1955TIP3    H227357   6.439   1.542  12.022  0.4516 -0.0876 -0.2284
 1956TIP3   OH227358   0.781   5.375   2.281 -0.1650  0.2234 -0.3113
 1956TIP3    H127359   0.841   5.434   2.325 -0.3406 -0.1941  0.5019
 1956TIP3    H227360   0.825   5.352   2.199  0.0545  1.1955 -0.4715
 1957TIP3   OH227361   0.939   0.352  11.576  0.4531  0.6534 -0.3612
 1957TIP3    H127362   0.920   0.301  11.498  1.1200  0.8439 -0.6540
 1957TIP3    H227363   0.969   0.287  11.641  2.1644  0.7312 -1.0091
 1958TIP3   OH227364   1.633   5.699  13.797  0.4166 -0.4034  0.5394
 1958TIP3    H127365   1.613   5.774  13.740 -1.1294  0.1792  1.7647
 1958TIP3    H227366   1.727   5.704  13.812  0.5605  0.4759 -0.5123
 1959TIP3   OH227367   1.722   1.593   1.231 -0.0633 -0.1790  0.0184
 1959TIP3    H127368   1.786   1.662   1.248  0.2947  0.2418 -2.5590
 1959TIP3    H227369   1.775   1.513   1.225 -0.4109 -0.6588  2.4485
 1960TIP3   OH227370   2.344   1.303   3.989 -0.1390 -0.6011 -0.1174
 1960TIP3    H127371   2.337   1.345   3.903 -0.7984  0.5699  0.4743
 1960TIP3    H227372   2.278   1.234   3.987 -1.3481  0.5096  0.0143
 1961TIP3   OH227373   1.254   6.732  14.160  0.1161  0.0024 -0.1991
 1961TIP3    H127374   1.239   6.653  14.211  0.2113  0.2313  0.1919
 1961TIP3    H227375   1.257   6.802  14.225  2.2058  0.0679 -0.3092
 1962TIP3   OH227376   1.321   0.120   2.828  0.3113 -0.1458  0.4140
 1962TIP3    H127377   1.394   0.160   2.876 -0.7806  1.5521  0.7545
 1962TIP3    H227378   1.256   0.190   2.821  0.0634 -0.5542 -2.8403
 1963TIP3   OH227379   1.660   3.752  12.859 -0.5513  0.8919  0.5958
 1963TIP3    H127380   1.585   3.705  12.822  0.9869 -1.0395 -0.2120
 1963TIP3    H227381   1.698   3.799  12.785 -1.8850  3.3232  1.3337
 1964TIP3   OH227382   6.468   3.790   2.232  0.1145 -0.4347  0.4686
 1964TIP3    H127383   6.375   3.779   2.253  0.6047 -3.1764  1.6462
 1964TIP3    H227384   6.468   3.842   2.151 -2.4026 -0.1007  0.5893
 1965TIP3   OH227385   6.716   5.092   2.075  0.3358  0.0958 -0.0152
 1965TIP3    H127386   6.696   5.185   2.065 -0.6310 -0.1643 -0.5788
 1965TIP3    H227387   6.785   5.089   2.141  0.5300  1.2294 -0.1545
 1966TIP3   OH227388   4.299   2.779   4.284 -0.0981  0.1554 -0.1279
 1966TIP3    H127389   4.254   2.802   4.366 -0.0596 -1.6298  0.4508
 1966TIP3    H227390   4.273   2.847   4.222 -3.3541 -0.5450  0.2645
 1967TIP3   OH227391   1.937   3.743  11.280 -1.1075 -0.2573 -0.0205
 1967TIP3    H127392   1.984   3.703  11.207 -1.8363 -0.3306 -0.4612
 1967TIP3    H227393   1.858   3.689  11.290 -1.9207  0.8277 -0.3836
 1968TIP3   OH227394   6.331   6.541  14.094  0.1264  0.0395 -0.2067
 1968TIP3    H127395   6.359   6.585  14.014 -0.0740 -0.4901 -0.5797
 1968TIP3    H227396   6.386   6.463  14.099 -1.7795 -1.4984 -1.4385
 1969TIP3   OH227397   0.747   2.764  11.546 -0.3290  0.3051 -0.2904
 1969TIP3    H127398   0.841   2.744  11.552 -0.4727 -0.6735 -1.0126
 1969TIP3    H227399   0.724   2.799  11.632 -0.4362 -4.3947  1.9137
 1970TIP3   OH227400   6.433   5.615   1.516  0.1424  0.1769  0.4071
 1970TIP3    H127401   6.362   5.671   1.546 -1.7629 -1.4255 -0.7849
 1970TIP3    H227402   6.463   5.569   1.594 -2.4179 -1.4673  0.5510
 1971TIP3   OH227403   4.923   0.195   1.680 -0.5104 -0.2953 -0.4790
 1971TIP3    H127404   5.018   0.191   1.686 -0.5171  0.4534  0.3869
 1971TIP3    H227405   4.900   0.280   1.716 -1.7459 -1.8516  2.8242
 1972TIP3   OH227406   1.203   2.161  11.766 -0.2296 -0.1415 -0.2789
 1972TIP3    H127407   1.115   2.151  11.728  0.0720  0.3829 -1.1446
 1972TIP3    H227408   1.243   2.074  11.755 -0.6445 -0.3848  0.1281
 1973TIP3   OH227409   0.278   3.965   2.613 -0.2568  0.4158  1.0182
 1973TIP3    H127410   0.315   4.040   2.659 -0.6540  0.6791  0.9144
 1973TIP3    H227411   0.331   3.890   2.642 -0.0351  0.6933  1.3320
 1974TIP3   OH227412   2.614   4.067   2.763  0.6990 -0.0530  0.3845
 1974TIP3    H127413   2.617   4.060   2.859 -2.8832  0.8850  0.7076
 1974TIP3    H227414   2.651   4.153   2.744 -0.0998  0.4924  1.1626
 1975TIP3   OH227415   2.385   1.445  15.055 -0.9668 -0.3994  0.4024
 1975TIP3    H127416   2.437   1.476  14.981 -1.5263  0.6108  0.4173
 1975TIP3    H227417   2.295   1.441  15.021 -1.3178  0.5904  1.1500
 1976TIP3   OH227418   5.848   3.324   1.510 -0.7230 -0.0175 -0.1216
 1976TIP3    H127419   5.858   3.378   1.588  1.2792 -0.0049 -0.3306
 1976TIP3    H227420   5.832   3.387   1.439 -0.6736  0.1252 -0.0075
 1977TIP3   OH227421   4.646   3.851  14.542  0.4119  0.3712  0.0182
 1977TIP3    H127422   4.680   3.767  14.511 -0.4530 -0.4417  1.2090
 1977TIP3    H227423   4.590   3.829  14.617 -2.3193  1.6838 -1.4932
 1978TIP3   OH227424   1.225   4.409   4.633 -0.1034 -0.5655 -0.7123
 1978TIP3    H127425   1.166   4.354   4.685  1.3148 -1.6030 -0.1640
 1978TIP3    H227426   1.235   4.362   4.550 -0.3267 -0.2020 -0.9494
 1979TIP3   OH227427   0.413   1.170   3.603 -0.0493 -0.1775  0.0939
 1979TIP3    H127428   0.430   1.142   3.514  0.8381  0.9058 -0.0927
 1979TIP3    H227429   0.349   1.241   3.595 -0.2667 -0.3374  0.3566
 1980TIP3   OH227430   0.714   0.791  17.148 -0.6821  0.0759  0.2230
 1980TIP3    H127431   0.762   0.710  17.132 -1.5189 -0.1928 -1.0822
 1980TIP3    H227432   0.633   0.763  17.190 -0.6464  0.3263  0.4668
 1981TIP3   OH227433   1.248   1.853   0.886 -0.1586 -0.6841  0.2957
 1981TIP3    H127434   1.294   1.795   0.947  1.2015 -1.0076 -0.9844
 1981TIP3    H227435   1.253   1.939   0.927 -0.6345 -1.1394  1.3685
 1982TIP3   OH227436   5.551   2.155   3.789 -0.6154  0.2887 -0.0558
 1982TIP3    H127437   5.499   2.194   3.719  1.4897  0.5780 -1.5533
 1982TIP3    H227438   5.585   2.230   3.839  0.5883  0.2717 -0.8049
 1983TIP3   OH227439   1.633   0.684  15.881  0.5470  0.2331  0.3079
 1983TIP3    H127440   1.561   0.627  15.909  0.4500 -0.0231 -0.4429
 1983TIP3    H227441   1.609   0.710  15.792  0.4923  1.6058  0.6985
 1984TIP3   OH227442   2.847   3.089   0.359 -0.4489  0.4793  0.1039
 1984TIP3    H127443   2.844   3.035   0.438 -1.1014  1.6369  0.9026
 1984TIP3    H227444   2.880   3.030   0.291  0.5139 -0.4402  1.3147
 1985TIP3   OH227445   4.554   0.836  16.037 -0.0947  0.3724 -0.5440
 1985TIP3    H127446   4.484   0.848  15.973  0.6680 -2.1756 -2.0166
 1985TIP3    H227447   4.515   0.782  16.106  0.1876 -0.4903 -1.0391
 1986TIP3   OH227448   0.208   4.527   1.239 -0.1837  0.1727  0.4390
 1986TIP3    H127449   0.172   4.516   1.151  0.7029  0.3880  0.0318
 1986TIP3    H227450   0.302   4.510   1.228 -0.2783 -1.3003  1.6287
 1987TIP3   OH227451   5.563   1.986   1.065 -0.4844 -0.7345  0.2714
 1987TIP3    H127452   5.526   2.056   1.119  0.1673  0.6090 -0.9308
 1987TIP3    H227453   5.489   1.951   1.016 -0.6478 -0.1176  0.0698
 1988TIP3   OH227454   3.666   4.734   1.132 -0.0729 -0.5902  0.0263
 1988TIP3    H127455   3.662   4.640   1.151 -1.9361 -0.3387  1.0979
 1988TIP3    H227456   3.577   4.766   1.149  1.0033  1.7656  1.7831
 1989TIP3   OH227457   3.328   2.389   1.825  0.6108  0.9300  0.0471
 1989TIP3    H127458   3.233   2.383   1.829  0.6335  1.2439  1.5287
 1989TIP3    H227459   3.346   2.483   1.816  0.7767  0.7764 -1.6066
 1990TIP3   OH227460   3.560   5.448  17.455 -0.0593 -0.5017  0.3060
 1990TIP3    H127461   3.511   5.463  17.536  0.6936  0.7918  0.5594
 1990TIP3    H227462   3.626   5.383  17.478 -1.7611 -2.4768 -0.1145
 1991TIP3   OH227463   5.838   3.759   1.799  0.7604 -0.3414  0.3896
 1991TIP3    H127464   5.885   3.839   1.822  1.0936 -0.3877 -0.1117
 1991TIP3    H227465   5.871   3.736   1.712 -2.9563  1.7471 -1.8095
 1992TIP3   OH227466   1.030   2.066   5.173 -0.5379 -0.1491  0.2691
 1992TIP3    H127467   1.079   1.993   5.137 -0.9717  1.0360 -2.9912
 1992TIP3    H227468   0.945   2.028   5.197  0.5228 -1.4067  2.3263
 1993TIP3   OH227469   1.397   6.690  15.239 -0.0278 -0.4527 -0.1447
 1993TIP3    H127470   1.310   6.717  15.210  0.1297 -0.4540 -0.6223
 1993TIP3    H227471   1.424   6.757  15.302  0.7379  1.0239 -1.9653
 1994TIP3   OH227472   5.345   5.185   2.029  0.6571  0.2160 -0.5737
 1994TIP3    H127473   5.334   5.090   2.029  0.8680  0.1911 -0.0473
 1994TIP3    H227474   5.272   5.217   1.975 -1.3082 -0.0395  1.7721
 1995TIP3   OH227475   3.724   1.658   4.393  0.3090 -0.4348 -0.4729
 1995TIP3    H127476   3.765   1.676   4.478 -0.1032 -0.5124 -0.2567
 1995TIP3    H227477   3.797   1.629   4.337  1.0320  1.8826 -0.8454
 1996TIP3   OH227478   1.409   6.047   1.143  0.0508 -0.0859  0.4408
 1996TIP3    H127479   1.395   5.958   1.173  0.5223 -0.0335  0.8316
 1996TIP3    H227480   1.429   6.039   1.050 -1.0351 -0.2838  0.2113
 1997TIP3   OH227481   3.539   2.796  14.884 -0.2037  0.3777  0.0466
 1997TIP3    H127482   3.453   2.827  14.856  0.2875 -0.0655 -2.0924
 1997TIP3    H227483   3.521   2.711  14.925 -0.7143 -0.2035 -1.3166
 1998TIP3   OH227484   0.191   6.289  17.001 -0.4403 -0.6411 -0.5015
 1998TIP3    H127485   0.223   6.204  17.034  1.0814  0.7448  1.8984
 1998TIP3    H227486   0.269   6.335  16.972 -0.5081  1.4819  2.2077
 1999TIP3   OH227487   3.399   5.936  11.716  0.4064 -0.2792  0.2874
 1999TIP3    H127488   3.337   6.004  11.740  1.7418  1.4572 -0.9414
 1999TIP3    H227489   3.482   5.982  11.705  1.9725 -2.5073  1.8484
 2000TIP3   OH227490   3.798   0.319  16.900 -0.1341  0.3553 -0.1664
 2000TIP3    H127491   3.826   0.255  16.835  0.8327 -0.1714  0.7412
 2000TIP3    H227492   3.874   0.376  16.913 -0.3983  0.6148  0.3053
 2001TIP3   OH227493   4.976   1.605  16.024 -0.7196  0.0462 -0.1238
 2001TIP3    H127494   4.998   1.565  15.940 -0.7196  1.1955 -0.6852
 2001TIP3    H227495   5.005   1.541  16.089  2.2620  0.4814 -0.8825
 2002TIP3   OH227496   0.631   5.641  17.506  0.3817 -0.4173  0.2269
 2002TIP3    H127497   0.607   5.551  17.483 -0.6509  0.0268 -0.5044
 2002TIP3    H227498   0.577   5.696  17.449  1.8381  0.6721 -0.1512
 2003TIP3   OH227499   5.675   6.525  11.815 -0.2411 -0.4327  0.2957
 2003TIP3    H127500   5.743   6.590  11.832  0.1253 -0.8127  0.2790
 2003TIP3    H227501   5.602   6.552  11.872  0.3351 -0.6853  1.1826
 2004TIP3   OH227502   3.196   2.708  16.219  1.2444 -0.0436  0.0396
 2004TIP3    H127503   3.168   2.619  16.239  0.2499 -0.0905 -1.4458
 2004TIP3    H227504   3.149   2.763  16.282  0.5864 -0.4387 -0.0982
 2005TIP3   OH227505   2.175   0.385   6.164 -0.0659 -0.1432  0.4000
 2005TIP3    H127506   2.238   0.378   6.236  0.3848  0.8960  0.1263
 2005TIP3    H227507   2.184   0.475   6.133 -1.8025  0.0864  0.4400
 2006TIP3   OH227508   1.191   5.481   5.645  0.0799 -0.3539  0.6196
 2006TIP3    H127509   1.269   5.482   5.589 -0.2996 -2.3022 -0.0396
 2006TIP3    H227510   1.176   5.573   5.667  2.1079  0.1545  0.1496
 2007TIP3   OH227511   0.258   6.680   5.178  0.0362  0.8823  0.3967
 2007TIP3    H127512   0.203   6.744   5.223 -0.9969  1.3026 -1.3498
 2007TIP3    H227513   0.196   6.616   5.143  0.7372  0.7971 -0.7406
 2008TIP3   OH227514   2.158   4.910  16.957 -0.3359  0.6435 -0.9899
 2008TIP3    H127515   2.220   4.869  16.896  0.3945 -1.5230  1.0256
 2008TIP3    H227516   2.214   4.949  17.025 -1.0787 -0.8232  0.5483
 2009TIP3   OH227517   4.828   0.525   5.595 -0.0928 -0.1158 -0.0544
 2009TIP3    H127518   4.805   0.534   5.688 -0.6218 -0.2026 -0.1754
 2009TIP3    H227519   4.865   0.437   5.589 -2.5017 -1.1846 -0.4043
 2010TIP3   OH227520   3.401   1.605  12.646 -0.0033 -0.0511 -0.9992
 2010TIP3    H127521   3.307   1.610  12.627 -0.0532  1.0604 -0.5424
 2010TIP3    H227522   3.437   1.685  12.609  0.9390 -0.9047 -1.9952
 2011TIP3   OH227523   4.628   3.021   3.682 -0.7411  0.5187 -0.3505
 2011TIP3    H127524   4.561   2.956   3.660  0.9374 -1.0982 -0.9415
 2011TIP3    H227525   4.593   3.067   3.758 -1.7987 -1.4325  0.4291
 2012TIP3   OH227526   4.374   5.999  14.145 -0.0615 -0.4721  0.0200
 2012TIP3    H127527   4.369   6.092  14.166 -0.6283 -0.5880  0.3984
 2012TIP3    H227528   4.326   5.956  14.215 -2.0076 -0.8727 -1.4784
 2013TIP3   OH227529   5.304   6.339  13.558  0.0627 -0.7364  0.0442
 2013TIP3    H127530   5.356   6.301  13.629  1.4687 -1.6638 -1.3964
 2013TIP3    H227531   5.281   6.265  13.502  0.7061  0.1717 -1.5005
 2014TIP3   OH227532   3.385   4.708  17.376 -0.5139 -0.0096  0.6470
 2014TIP3    H127533   3.414   4.731  17.288  0.8768  2.2953  1.6232
 2014TIP3    H227534   3.308   4.762  17.392  0.5658  1.3137  1.6088
 2015TIP3   OH227535   6.686   5.578  12.644  0.7481  0.2285 -0.1738
 2015TIP3    H127536   6.730   5.629  12.576  0.2251 -0.3480 -0.9611
 2015TIP3    H227537   6.635   5.512  12.596 -1.3534  1.1437  0.6619
 2016TIP3   OH227538   0.333   1.861  15.355 -0.8314  0.3595  0.0487
 2016TIP3    H127539   0.299   1.823  15.274  0.3141  0.2400 -0.4002
 2016TIP3    H227540   0.373   1.787  15.401  1.4865  0.9530 -0.8656
 2017TIP3   OH227541   5.630   2.810  13.307 -0.1245 -0.9401 -0.2615
 2017TIP3    H127542   5.565   2.752  13.347  1.4165 -1.4231  1.7247
 2017TIP3    H227543   5.674   2.755  13.242 -0.9466 -0.9378 -0.8299
 2018TIP3   OH227544   6.616   2.763   1.813 -0.4947  0.1152  0.4245
 2018TIP3    H127545   6.699   2.805   1.790 -0.4064  0.4451  1.3142
 2018TIP3    H227546   6.550   2.828   1.793 -0.4864  0.0922  0.3217
 2019TIP3   OH227547   6.091   4.344  11.516  0.0642  0.3049 -0.1620
 2019TIP3    H127548   6.001   4.313  11.515  0.8346 -2.2411  1.0178
 2019TIP3    H227549   6.095   4.404  11.591 -0.4089 -0.4626  0.4939
 2020TIP3   OH227550   3.113   2.982   5.624  0.1281  0.1835  0.3794
 2020TIP3    H127551   3.061   3.003   5.547  0.8858 -2.4871 -1.0045
 2020TIP3    H227552   3.059   2.919   5.672  0.8768 -0.4190  0.4446
 2021TIP3   OH227553   6.369   0.731   1.816 -0.0925 -0.4038 -0.6565
 2021TIP3    H127554   6.377   0.755   1.908  2.0277  0.7456 -1.0961
 2021TIP3    H227555   6.430   0.658   1.805 -0.9222 -1.0622 -0.9997
 2022TIP3   OH227556   4.374   2.013  14.015 -0.7281  0.4057 -0.5966
 2022TIP3    H127557   4.377   1.973  13.929  1.3743 -0.4629 -0.1975
 2022TIP3    H227558   4.294   1.980  14.055 -0.3311 -1.4039 -1.2202
 2023TIP3   OH227559   4.487   0.554   4.974 -0.0766  0.3545 -0.2774
 2023TIP3    H127560   4.458   0.486   4.913  2.2057  0.1441 -1.2361
 2023TIP3    H227561   4.413   0.614   4.980 -2.0990 -1.9965  0.4101
 2024TIP3   OH227562   3.573   0.468  16.861 -0.1775 -0.1978  0.0714
 2024TIP3    H127563   3.502   0.432  16.915  0.4606  1.4860  2.1742
 2024TIP3    H227564   3.650   0.419  16.888  0.2299  0.9565  1.1422
 2025TIP3   OH227565   4.519   2.750   2.418 -0.7119 -0.2131  0.6523
 2025TIP3    H127566   4.535   2.837   2.383  0.4407 -0.8159 -0.4115
 2025TIP3    H227567   4.599   2.701   2.397 -1.4532 -1.6108  0.9709
 2026TIP3   OH227568   1.277   4.292  16.763 -0.9830 -1.1118  0.4602
 2026TIP3    H127569   1.301   4.325  16.850  0.0690 -0.8360  0.0724
 2026TIP3    H227570   1.319   4.352  16.702 -1.1922 -1.6719 -0.2507
 2027TIP3   OH227571   2.528   1.422   4.719 -0.2711  0.5150  0.1092
 2027TIP3    H127572   2.564   1.346   4.673  0.1000  0.2479  0.8108
 2027TIP3    H227573   2.460   1.385   4.775 -1.6301  1.0096 -1.1629
 2028TIP3   OH227574   1.671   6.054   3.801  0.3218  0.4819  0.0761
 2028TIP3    H127575   1.755   6.010   3.814  0.0924 -0.2914 -0.9188
 2028TIP3    H227576   1.633   6.011   3.725 -0.4894  1.5793 -0.1640
 2029TIP3   OH227577   4.151   0.038   3.634 -0.9719 -0.8421 -0.1083
 2029TIP3    H127578   4.128   0.126   3.604  0.6750 -0.6292 -0.8308
 2029TIP3    H227579   4.167  -0.012   3.554  0.4304 -1.1265  0.3238
 2030TIP3   OH227580   0.627   3.046  12.852  0.3641  0.0043 -0.3550
 2030TIP3    H127581   0.684   2.971  12.835  0.0665 -1.0059  2.5405
 2030TIP3    H227582   0.541   3.007  12.868  0.2742  0.9064  1.5176
 2031TIP3   OH227583   5.745   1.171   1.050  0.6564  0.6330 -0.3906
 2031TIP3    H127584   5.733   1.099   1.112 -0.2302  1.1089  0.0030
 2031TIP3    H227585   5.714   1.249   1.096  0.5888  1.0971 -1.1934
 2032TIP3   OH227586   4.702   2.061  16.192  0.7258  0.1796 -0.9451
 2032TIP3    H127587   4.656   2.145  16.194 -0.4236 -0.4172  1.1319
 2032TIP3    H227588   4.769   2.072  16.125 -1.4620  1.6256 -3.0629
 2033TIP3   OH227589   1.574   3.464   2.584 -0.0932  0.1067  0.0031
 2033TIP3    H127590   1.492   3.413   2.580 -0.7616  1.2296 -1.4987
 2033TIP3    H227591   1.640   3.400   2.613 -0.7507 -1.8763 -2.4365
 2034TIP3   OH227592   3.543   3.311   1.416 -0.0135 -0.3144  0.1658
 2034TIP3    H127593   3.512   3.297   1.327 -0.1698 -0.1582  0.1933
 2034TIP3    H227594   3.563   3.405   1.420 -0.0042 -0.3208  0.2913
 2035TIP3   OH227595   3.074   3.431   5.026  0.0824 -0.4835 -0.0708
 2035TIP3    H127596   3.089   3.382   5.106  0.7108 -0.8939 -0.4317
 2035TIP3    H227597   3.075   3.523   5.052  1.3482 -0.5703  0.2256
 2036TIP3   OH227598   2.823   5.871  16.272  0.3018  0.1424  0.4672
 2036TIP3    H127599   2.740   5.917  16.268 -0.2497 -0.8901 -1.0064
 2036TIP3    H227600   2.885   5.935  16.308 -0.5850  1.7506 -0.7518
 2037TIP3   OH227601   5.031   6.398   1.751 -0.0265 -0.3794  0.1714
 2037TIP3    H127602   5.092   6.354   1.810 -1.7335 -2.1312  0.7489
 2037TIP3    H227603   5.065   6.378   1.663  1.7546  1.0797  0.4786
 2038TIP3   OH227604   5.976   5.170   3.246 -0.1758  0.1033  0.3830
 2038TIP3    H127605   5.929   5.087   3.255  0.1369 -0.0869  0.2652
 2038TIP3    H227606   5.954   5.200   3.158 -0.6354  0.3600  0.5841
 2039TIP3   OH227607   5.230   1.236  14.074 -0.1538 -0.2867  0.0736
 2039TIP3    H127608   5.200   1.305  14.015  0.0516 -2.1028 -2.3121
 2039TIP3    H227609   5.287   1.181  14.019 -0.9533 -2.7873  1.6208
 2040TIP3   OH227610   6.376   0.322  15.359  0.3192  0.2653 -0.3934
 2040TIP3    H127611   6.338   0.374  15.288  0.3256 -0.7082 -1.1255
 2040TIP3    H227612   6.468   0.313  15.334  0.4225  0.3134 -0.0245
 2041TIP3   OH227613   5.666   1.900  10.593 -0.2970  0.2892  0.0741
 2041TIP3    H127614   5.756   1.934  10.588 -0.4430  0.6502 -0.1887
 2041TIP3    H227615   5.676   1.811  10.626  0.3506 -0.4188 -1.8808
 2042TIP3   OH227616   0.617   2.293   0.006  0.3241  0.2880  0.1358
 2042TIP3    H127617   0.666   2.351  -0.053 -0.3546  0.6682 -0.0590
 2042TIP3    H227618   0.684   2.259   0.066  0.8509  0.7114 -0.1946
 2043TIP3   OH227619   0.026   6.724  11.942  0.5228  0.2367 -0.5011
 2043TIP3    H127620  -0.026   6.664  11.888 -3.2376  0.3761  2.4988
 2043TIP3    H227621   0.059   6.669  12.013 -1.7670  1.2512  1.5025
 2044TIP3   OH227622   2.102   1.135   1.400 -0.2352 -0.3781 -0.2164
 2044TIP3    H127623   2.115   1.227   1.380  0.2415 -0.4804 -0.4085
 2044TIP3    H227624   2.012   1.117   1.373 -0.9725  0.4638  1.5622
 2045TIP3   OH227625   2.256   0.517  10.937 -0.2968  0.8835  0.8805
 2045TIP3    H127626   2.275   0.601  10.895 -0.0088  0.5406  0.3038
 2045TIP3    H227627   2.317   0.456  10.896 -0.5065  0.3900  1.2913
 2046TIP3   OH227628   4.251   5.125  11.912 -0.0617 -0.2647  0.4178
 2046TIP3    H127629   4.338   5.085  11.906  0.1150 -0.0652  1.4515
 2046TIP3    H227630   4.265   5.216  11.886  0.0603 -0.2070  0.6844
 2047TIP3   OH227631   0.799   2.293   2.766 -0.0094 -0.4336  0.0937
 2047TIP3    H127632   0.802   2.202   2.794 -0.1977 -0.1565  1.0691
 2047TIP3    H227633   0.745   2.293   2.687 -1.0799 -1.0023  0.8044
 2048TIP3   OH227634   0.698   3.007  16.749  0.9134 -0.3950 -0.4563
 2048TIP3    H127635   0.618   3.049  16.718  0.0420  0.1817  2.2781
 2048TIP3    H227636   0.675   2.915  16.758  0.2201 -0.0932  1.1487
 2049TIP3   OH227637   3.391   2.938   6.065 -0.3157 -0.1342 -0.0495
 2049TIP3    H127638   3.375   3.004   6.132 -2.3895 -0.6251  0.0281
 2049TIP3    H227639   3.303   2.909   6.039  0.4723 -1.0183 -1.9184
 2050TIP3   OH227640   0.634   3.486  12.519 -0.1088  0.0833  0.2439
 2050TIP3    H127641   0.645   3.505  12.426 -0.2646 -0.4850  0.1081
 2050TIP3    H227642   0.559   3.428  12.524 -0.8287  1.0367  0.8429
 2051TIP3   OH227643   3.336   6.283   3.573  0.5935 -0.4438  0.0630
 2051TIP3    H127644   3.271   6.238   3.626  0.5274  0.3773  0.7018
 2051TIP3    H227645   3.347   6.228   3.496  0.2592 -1.3609  0.6567
 2052TIP3   OH227646   4.668   1.437  13.608  0.3149 -0.6564  0.2032
 2052TIP3    H127647   4.752   1.398  13.585  2.4226  2.0210  2.5571
 2052TIP3    H227648   4.637   1.386  13.683  0.6575 -0.7510  0.2844
 2053TIP3   OH227649   0.273   1.958   4.331 -0.1391  0.1151  0.3540
 2053TIP3    H127650   0.294   1.987   4.243  0.1201  2.0673  1.0051
 2053TIP3    H227651   0.200   2.014   4.359 -1.5799 -1.8267  0.6867
 2054TIP3   OH227652   4.434   2.744  14.843 -0.0439 -0.1184  0.1179
 2054TIP3    H127653   4.361   2.805  14.830  0.6336  0.3561 -1.8365
 2054TIP3    H227654   4.512   2.798  14.833  0.6065 -1.3877 -2.9225
 2055TIP3   OH227655   3.545   3.787  16.943  0.1243  0.0904 -0.3416
 2055TIP3    H127656   3.562   3.708  16.994 -1.1477  0.2424  0.3761
 2055TIP3    H227657   3.615   3.791  16.879  0.3945 -1.4352 -0.1651
 2056TIP3   OH227658   4.912   1.784   5.013  0.1612  0.2462 -0.1657
 2056TIP3    H127659   4.918   1.756   5.104 -1.6454 -2.9029 -0.8650
 2056TIP3    H227660   4.848   1.855   5.014 -2.5610 -2.0671  0.7264
 2057TIP3   OH227661   3.126   4.537  14.862  0.4836 -0.1965  0.2513
 2057TIP3    H127662   3.184   4.579  14.925 -0.3867 -0.1049  1.0086
 2057TIP3    H227663   3.038   4.553  14.896 -0.1539  1.5188 -1.9556
 2058TIP3   OH227664   4.002   1.740   3.825  0.0396 -0.2569  0.5423
 2058TIP3    H127665   3.967   1.718   3.739  1.2873 -1.2703  0.2463
 2058TIP3    H227666   3.933   1.789   3.868 -1.8400 -2.3591  0.1074
 2059TIP3   OH227667   6.653   1.851  15.079  0.3296 -0.1023 -0.8640
 2059TIP3    H127668   6.748   1.845  15.081  0.3453 -0.0425 -1.3540
 2059TIP3    H227669   6.633   1.890  14.994 -0.1217  0.0730 -0.6817
 2060TIP3   OH227670   3.198   5.872   4.337  0.3741 -0.0307 -0.2975
 2060TIP3    H127671   3.170   5.809   4.404 -0.5685 -0.5528 -1.1336
 2060TIP3    H227672   3.265   5.825   4.287  0.2181 -0.0948 -0.4490
 2061TIP3   OH227673   1.456   6.160  14.458 -0.5498  0.8636 -0.2955
 2061TIP3    H127674   1.403   6.080  14.458  2.7628 -1.5479  0.6045
 2061TIP3    H227675   1.479   6.173  14.366 -1.1997  0.8784 -0.4627
 2062TIP3   OH227676   0.206   6.085  11.809  0.0719 -0.3061 -0.1581
 2062TIP3    H127677   0.201   6.129  11.724  0.6711  0.4043  0.1650
 2062TIP3    H227678   0.296   6.052  11.814  0.5619  1.0733  0.8696
 2063TIP3   OH227679   0.640   5.012  11.952  0.0951 -0.1499  0.3636
 2063TIP3    H127680   0.707   4.952  11.919  1.4208  0.6447  1.4925
 2063TIP3    H227681   0.666   5.029  12.043 -2.4928 -0.9841  1.3363
 2064TIP3   OH227682   5.875   6.390   2.642  0.2302  0.4843 -0.1471
 2064TIP3    H127683   5.957   6.439   2.655 -0.4615  1.1444  2.1571
 2064TIP3    H227684   5.880   6.318   2.704 -0.4034 -0.2573 -0.9232
 2065TIP3   OH227685   2.470   1.955   6.190 -0.1402  0.2491 -0.5470
 2065TIP3    H127686   2.518   1.904   6.125 -0.5427 -0.2759 -0.4421
 2065TIP3    H227687   2.382   1.917   6.190 -0.0310 -0.0398  0.5977
 2066TIP3   OH227688   4.119   1.258  16.262 -0.2817 -0.6531 -0.2648
 2066TIP3    H127689   4.093   1.189  16.200  3.0850 -2.6021  0.2486
 2066TIP3    H227690   4.159   1.211  16.335  0.3527  1.8146  1.0993
 2067TIP3   OH227691   5.876   0.735   5.806  0.2870  0.1530  0.0440
 2067TIP3    H127692   5.946   0.798   5.789  0.2654  0.0084 -0.5985
 2067TIP3    H227693   5.850   0.705   5.719  0.3046 -0.7526  0.3510
 2068TIP3   OH227694   6.357   4.283   2.913 -0.0413  0.0899  0.1960
 2068TIP3    H127695   6.390   4.193   2.913  0.2032  0.1429 -1.4841
 2068TIP3    H227696   6.262   4.275   2.919 -0.1267 -0.3703 -1.4257
 2069TIP3   OH227697   2.543   6.186  13.944  0.4639 -1.0121 -0.2153
 2069TIP3    H127698   2.502   6.219  13.864  0.9039  3.6398  1.1838
 2069TIP3    H227699   2.480   6.204  14.014  2.0420 -0.2554  1.0858
 2070TIP3   OH227700   6.306   3.439  16.095  0.2805  0.5883  0.6830
 2070TIP3    H127701   6.323   3.347  16.078  1.7052  0.5166  2.3370
 2070TIP3    H227702   6.214   3.442  16.124  0.2801 -0.3234  0.7821
 2071TIP3   OH227703   6.324   2.800  11.702  0.2696  0.2862 -0.2068
 2071TIP3    H127704   6.367   2.722  11.738 -1.0983 -0.7983 -0.8076
 2071TIP3    H227705   6.264   2.828  11.771 -0.2569 -0.0606 -0.5121
 2072TIP3   OH227706   4.421   4.937   4.309  0.0463 -0.4651 -0.3739
 2072TIP3    H127707   4.360   4.912   4.240  0.4581 -0.7108 -0.6530
 2072TIP3    H227708   4.433   5.031   4.296 -1.3073 -0.1379  0.5217
 2073TIP3   OH227709   3.398   0.575   6.792  0.2793  0.1131  0.1091
 2073TIP3    H127710   3.482   0.590   6.750 -0.0520  0.2721 -0.5176
 2073TIP3    H227711   3.344   0.535   6.723  0.4575 -1.9136  1.0751
 2074TIP3   OH227712   6.332   4.282   3.945  0.1511  0.8122 -0.1664
 2074TIP3    H127713   6.274   4.345   3.902  0.7346  1.4642 -0.0059
 2074TIP3    H227714   6.282   4.252   4.021  0.4002  2.1140  0.5295
 2075TIP3   OH227715   5.550   4.620  17.259  0.7133 -0.5897 -0.5120
 2075TIP3    H127716   5.577   4.528  17.271 -0.4223 -1.0142 -1.0900
 2075TIP3    H227717   5.629   4.664  17.227  1.1974 -1.4281 -0.5011
 2076TIP3   OH227718   1.992   2.037   1.783  0.0028  0.2421  0.3219
 2076TIP3    H127719   2.018   2.108   1.841  0.9910  1.8402 -1.9262
 2076TIP3    H227720   2.066   2.026   1.723 -0.8525 -1.4846 -0.5226
 2077TIP3   OH227721   6.539   1.674  12.083 -0.2685  0.2106 -0.3861
 2077TIP3    H127722   6.616   1.640  12.038  0.4502 -0.8631  1.5189
 2077TIP3    H227723   6.531   1.764  12.053  1.7707  0.3607 -0.5871
 2078TIP3   OH227724   5.257   0.840   6.030  0.2251 -0.4745 -0.5156
 2078TIP3    H127725   5.218   0.844   6.118  0.8446 -0.0595 -0.2511
 2078TIP3    H227726   5.203   0.897   5.977  0.2243 -0.2221 -0.2466
 2079TIP3   OH227727   0.850   5.098  16.795 -0.7904  0.0808  0.4780
 2079TIP3    H127728   0.790   5.058  16.733  0.5617  0.4524 -1.1591
 2079TIP3    H227729   0.916   5.030  16.812 -1.0695  0.0286  1.4344
 2080TIP3   OH227730   1.092   2.798   6.075 -0.1901  0.0820 -0.2874
 2080TIP3    H127731   1.026   2.778   6.142 -0.4884  0.6500 -0.4007
 2080TIP3    H227732   1.130   2.881   6.104  1.4440 -0.8802  0.5029
 2081TIP3   OH227733   2.199   5.580  16.505 -0.5492  0.2169  0.0566
 2081TIP3    H127734   2.174   5.662  16.548 -0.1927 -0.4086  1.4968
 2081TIP3    H227735   2.293   5.590  16.487 -0.8746  0.8316 -1.4304
 2082TIP3   OH227736   3.717   4.947  16.927 -0.4085 -0.5693  0.0264
 2082TIP3    H127737   3.792   4.939  16.867 -0.1314 -1.3257  0.4592
 2082TIP3    H227738   3.675   4.861  16.924 -1.4907 -0.0345 -0.4943
 2083TIP3   OH227739   2.166   1.328  12.868 -0.0336  0.0047  0.0234
 2083TIP3    H127740   2.087   1.360  12.825  0.4242  1.5080  0.2517
 2083TIP3    H227741   2.169   1.234  12.846 -0.9975  0.2614 -1.3346
 2084TIP3   OH227742   2.476   3.836  12.350  0.2078  0.0732 -0.5616
 2084TIP3    H127743   2.441   3.904  12.407  0.6810  2.2867 -2.7255
 2084TIP3    H227744   2.434   3.755  12.380 -1.5921  1.5444  1.1486
 2085TIP3   OH227745   5.405   1.587   3.293 -0.0480 -0.1061 -0.6069
 2085TIP3    H127746   5.323   1.536   3.297 -0.3217 -0.0073 -3.4845
 2085TIP3    H227747   5.459   1.542   3.229  1.1443  1.2850 -0.6360
 2086TIP3   OH227748   2.485   5.690   0.331  0.2023  0.0020  0.4650
 2086TIP3    H127749   2.504   5.603   0.296  2.8447  0.3290  0.8503
 2086TIP3    H227750   2.510   5.750   0.260 -0.4755  0.4992  0.6353
 2087TIP3   OH227751   1.331   5.844  16.791 -0.3942 -0.1643  0.4263
 2087TIP3    H127752   1.327   5.931  16.832  0.3997  0.4603 -0.7639
 2087TIP3    H227753   1.379   5.790  16.854 -3.0931 -0.5169  2.3932
 2088TIP3   OH227754   1.998   6.299  14.882  0.4208 -0.1924 -0.2029
 2088TIP3    H127755   2.044   6.335  14.806 -0.1452 -1.9919 -1.4609
 2088TIP3    H227756   2.040   6.340  14.958  1.1483  1.4881 -1.4621
 2089TIP3   OH227757   2.120   6.741   2.464 -0.2247  0.1393 -0.2446
 2089TIP3    H127758   2.090   6.650   2.459 -2.0378  0.5420  1.6404
 2089TIP3    H227759   2.181   6.743   2.538  1.9702 -0.0021 -1.9647
 2090TIP3   OH227760   0.004   3.998  16.864 -0.4186  0.2766 -0.2240
 2090TIP3    H127761  -0.023   4.085  16.895 -1.5268 -0.5270  1.1931
 2090TIP3    H227762   0.097   3.994  16.885  0.4615  2.2179 -3.0844
 2091TIP3   OH227763   6.085   3.152   1.889 -0.2747  0.4491 -0.3366
 2091TIP3    H127764   6.013   3.096   1.915  3.4216 -3.8846  1.9880
 2091TIP3    H227765   6.102   3.128   1.797 -0.6590  0.0785 -0.3127
 2092TIP3   OH227766   0.457   2.436   2.626 -0.3939 -0.2317 -0.5400
 2092TIP3    H127767   0.451   2.516   2.573 -0.4985 -0.6484 -1.1755
 2092TIP3    H227768   0.499   2.373   2.567 -1.4852 -1.0182 -0.4911
 2093TIP3   OH227769   4.021   3.632   1.163  0.0811 -0.8507  0.0562
 2093TIP3    H127770   4.074   3.578   1.223  1.5949  0.0382 -0.4288
 2093TIP3    H227771   4.014   3.716   1.208 -1.6005 -1.1698  0.4480
 2094TIP3   OH227772   4.073   2.361  12.325 -0.4195  0.4748 -0.3566
 2094TIP3    H127773   4.044   2.273  12.300  0.5487  0.5339 -1.8382
 2094TIP3    H227774   3.993   2.405  12.354 -0.9716 -0.7805  0.0960
 2095TIP3   OH227775   2.039   6.727  17.228  0.5305  0.2574 -0.7030
 2095TIP3    H127776   2.076   6.762  17.308  2.3914 -0.9361 -0.9873
 2095TIP3    H227777   1.961   6.781  17.212  1.1111  1.6624  0.9172
 2096TIP3   OH227778   0.196   4.859  12.712  0.9306  0.2602  0.2817
 2096TIP3    H127779   0.272   4.820  12.754  0.9119  0.3340  0.3885
 2096TIP3    H227780   0.152   4.906  12.784 -0.4553 -1.6325  0.7443
 2097TIP3   OH227781   5.482   1.442   5.576  0.0544 -0.4374 -0.0384
 2097TIP3    H127782   5.423   1.431   5.501 -0.8845  0.4353  0.5612
 2097TIP3    H227783   5.531   1.521   5.557  0.1659 -0.4856  0.0447
 2098TIP3   OH227784   4.120   6.649   4.641  0.2995 -0.1965 -0.0365
 2098TIP3    H127785   4.034   6.609   4.656 -0.2246  0.8956 -0.0628
 2098TIP3    H227786   4.116   6.681   4.551  0.8399 -0.3793 -0.1290
 2099TIP3   OH227787   4.826   4.490   5.820 -0.1173  0.4707  0.5461
 2099TIP3    H127788   4.877   4.568   5.841  1.7228 -0.2038 -1.1236
 2099TIP3    H227789   4.884   4.438   5.765 -2.7823 -0.1322 -1.9156
 2100TIP3   OH227790   0.131   4.577   2.182 -0.9412  0.0825 -0.1915
 2100TIP3    H127791   0.111   4.623   2.100 -2.3192 -0.5104 -0.2252
 2100TIP3    H227792   0.128   4.646   2.249 -0.9287  0.3865 -0.4986
 2101TIP3   OH227793   1.453   1.691  16.382  0.1559 -0.3025 -0.1688
 2101TIP3    H127794   1.413   1.693  16.295  0.9198 -2.2341 -0.6166
 2101TIP3    H227795   1.429   1.605  16.417 -1.9322  1.2187  2.4705
 2102TIP3   OH227796   2.797   4.936   4.722 -0.0869  0.1362  0.1187
 2102TIP3    H127797   2.837   4.881   4.654  2.4972  1.7932  0.1708
 2102TIP3    H227798   2.780   5.019   4.678 -0.1665  0.6185  1.0354
 2103TIP3   OH227799   5.505   2.518   1.610  0.0269 -0.2279  0.0930
 2103TIP3    H127800   5.422   2.489   1.650 -0.3772  0.7103 -0.0291
 2103TIP3    H227801   5.561   2.440   1.612 -0.7723 -0.8149  0.4042
 2104TIP3   OH227802   2.759   5.616  16.242  0.2015  0.2978 -0.4613
 2104TIP3    H127803   2.737   5.576  16.326  2.0466  1.4079  0.6227
 2104TIP3    H227804   2.786   5.705  16.264  0.6701  0.6434 -2.2479
 2105TIP3   OH227805   5.738   4.403  13.880 -0.4479 -0.0588 -0.3786
 2105TIP3    H127806   5.714   4.403  13.973 -0.1781 -1.0843 -0.2960
 2105TIP3    H227807   5.662   4.439  13.836 -0.0442  1.8140  0.3544
 2106TIP3   OH227808   6.728   5.764   4.538 -0.1417 -0.1888  0.3207
 2106TIP3    H127809   6.688   5.842   4.501  0.0568 -1.2868 -2.4519
 2106TIP3    H227810   6.820   5.787   4.549 -0.3263  0.3561  0.7806
 2107TIP3   OH227811   6.710   0.573   0.752  0.0483  0.5608  0.2616
 2107TIP3    H127812   6.697   0.655   0.799 -0.9834 -0.4017  1.7405
 2107TIP3    H227813   6.655   0.581   0.674  0.7160  1.6315 -0.1292
 2108TIP3   OH227814   1.766   0.462   1.568  0.2617  0.7473  0.0379
 2108TIP3    H127815   1.755   0.470   1.474 -0.5546 -0.9330 -0.0480
 2108TIP3    H227816   1.750   0.370   1.587  1.1520  0.8901  1.7335
 2109TIP3   OH227817   6.001   2.928  10.749  0.1818  0.3125 -0.2385
 2109TIP3    H127818   6.091   2.897  10.738  0.6542  1.5236  0.0891
 2109TIP3    H227819   6.005   2.987  10.825 -0.8377  0.5698 -0.3719
 2110TIP3   OH227820   2.967   0.684  14.216  0.1192  0.6849  0.4698
 2110TIP3    H127821   2.917   0.685  14.135 -0.3242  0.1414  0.7317
 2110TIP3    H227822   2.907   0.722  14.281  0.6242  1.5280  0.4658
 2111TIP3   OH227823   3.870   5.672   2.349 -0.2439  0.1319  0.2180
 2111TIP3    H127824   3.883   5.766   2.364  0.1134  0.1115  0.0516
 2111TIP3    H227825   3.924   5.630   2.416  0.7669  0.0440 -0.6289
 2112TIP3   OH227826   4.718   1.480   3.321  0.3174  0.2209 -0.0552
 2112TIP3    H127827   4.726   1.565   3.364  1.2792  0.1191 -0.0085
 2112TIP3    H227828   4.784   1.425   3.364  1.1838  0.0663 -1.5416
 2113TIP3   OH227829   4.188   1.962  12.759  0.3398 -0.3406  0.2401
 2113TIP3    H127830   4.146   1.886  12.801 -1.4113  0.0732 -0.6858
 2113TIP3    H227831   4.124   2.032  12.768  3.1624  2.1414  4.0432
 2114TIP3   OH227832   0.690   3.586  16.746  0.1216 -0.0072  0.6040
 2114TIP3    H127833   0.607   3.573  16.699  0.2928 -2.3547  0.8200
 2114TIP3    H227834   0.683   3.528  16.822  1.6508  0.3594  1.0541
 2115TIP3   OH227835   6.564   2.408  12.114  0.1381  0.4399 -0.2289
 2115TIP3    H127836   6.653   2.414  12.149  0.5770 -0.1282 -1.2029
 2115TIP3    H227837   6.575   2.419  12.019 -0.9902  1.7131 -0.2493
 2116TIP3   OH227838   1.399   4.598  12.918 -0.1056  0.2931  0.0688
 2116TIP3    H127839   1.331   4.533  12.938  0.6560 -0.5463  0.0069
 2116TIP3    H227840   1.352   4.669  12.874 -0.5875 -1.4356 -2.3933
 2117TIP3   OH227841   2.211   4.939   5.001  0.0902  0.5747  0.2265
 2117TIP3    H127842   2.218   4.845   4.988  0.6077  0.4672  1.1523
 2117TIP3    H227843   2.285   4.976   4.952  2.2058  0.1528  2.8136
 2118TIP3   OH227844   3.629   2.887  11.056  0.5312 -0.9023  0.4632
 2118TIP3    H127845   3.598   2.975  11.034  2.0895 -0.2391  0.7596
 2118TIP3    H227846   3.565   2.855  11.121  1.1822  0.9703  2.1311
 2119TIP3   OH227847   4.370   4.145  16.474 -0.0672 -0.4841 -0.1336
 2119TIP3    H127848   4.319   4.078  16.429  1.4156 -1.5009 -0.3680
 2119TIP3    H227849   4.397   4.205  16.404 -0.6495 -0.1270 -0.0583
 2120TIP3   OH227850   0.929   1.960  13.481 -0.0615  0.3983 -0.2114
 2120TIP3    H127851   0.901   2.023  13.415  1.4073  1.3953  0.0522
 2120TIP3    H227852   0.978   1.894  13.432 -3.6396 -2.0504 -0.8611
 2121TIP3   OH227853   4.654   3.323   5.823 -0.0596  0.6235 -0.0825
 2121TIP3    H127854   4.688   3.292   5.739  0.6543 -0.3459  0.5265
 2121TIP3    H227855   4.648   3.418   5.814  0.1937  0.5464 -1.1570
 2122TIP3   OH227856   1.989   5.032  16.277 -0.5515 -0.5721  0.1871
 2122TIP3    H127857   1.976   4.973  16.352  0.6566  0.6300  1.3920
 2122TIP3    H227858   1.919   5.096  16.286 -1.2570 -1.2122 -0.5532
 2123TIP3   OH227859   4.926   0.392  10.857  0.1798 -0.2431 -0.5724
 2123TIP3    H127860   5.018   0.397  10.885  0.0805  2.0446 -0.4844
 2123TIP3    H227861   4.918   0.460  10.790 -1.0790 -1.5329 -1.8129
 2124TIP3   OH227862   3.606   4.255   2.676  0.0688  0.3848 -0.4265
 2124TIP3    H127863   3.587   4.341   2.713  0.6212  0.7490 -0.9803
 2124TIP3    H227864   3.601   4.195   2.750 -1.0839  0.7702 -0.1665
 2125TIP3   OH227865   6.415   6.287  16.953 -0.4392 -0.4427  0.1407
 2125TIP3    H127866   6.391   6.347  16.883 -2.1861  0.0231  1.0722
 2125TIP3    H227867   6.486   6.234  16.917 -2.0582 -1.0468 -2.3951
 2126TIP3   OH227868   5.401   3.888  14.904  0.0071  0.2003 -0.3396
 2126TIP3    H127869   5.338   3.851  14.966  0.2232  2.0030  1.0118
 2126TIP3    H227870   5.368   3.976  14.886 -0.0226 -0.2508 -2.8014
 2127TIP3   OH227871   4.029   4.136  14.364 -0.0988 -0.0805 -0.4290
 2127TIP3    H127872   4.107   4.181  14.394 -0.0102  0.6368 -1.6914
 2127TIP3    H227873   4.061   4.055  14.324 -0.2729 -1.5270  2.0734
 2128TIP3   OH227874   6.659   3.044   4.018 -0.0436  0.2969  0.8154
 2128TIP3    H127875   6.573   3.009   4.041 -0.7267  1.5375  0.2232
 2128TIP3    H227876   6.642   3.107   3.948  1.5473 -0.6533 -0.5176
 2129TIP3   OH227877   0.269   2.128  11.094 -0.2839 -0.1114  0.6247
 2129TIP3    H127878   0.208   2.128  11.020  0.4804  0.7714 -0.0241
 2129TIP3    H227879   0.273   2.036  11.121  1.0476 -0.8499 -1.7910
 2130TIP3   OH227880   4.047   3.301   0.715  0.1013  0.4414 -0.0810
 2130TIP3    H127881   4.066   3.325   0.624  0.3600 -1.7754 -0.6701
 2130TIP3    H227882   4.013   3.382   0.754  1.9494  2.0414 -1.5423
 2131TIP3   OH227883   6.187   0.480  15.659 -0.1158  0.6919 -0.2713
 2131TIP3    H127884   6.188   0.394  15.617 -0.1394  0.1545  0.7747
 2131TIP3    H227885   6.264   0.526  15.623  1.6872 -0.8887  1.3110
 2132TIP3   OH227886   4.728   3.490   3.792  0.0052  0.0897  0.5261
 2132TIP3    H127887   4.750   3.539   3.713 -0.8517 -0.5961 -0.1528
 2132TIP3    H227888   4.737   3.553   3.863  4.9760 -0.2545  0.5225
 2133TIP3   OH227889   6.503   4.219  13.104 -0.4140 -0.1315  0.0515
 2133TIP3    H127890   6.563   4.154  13.067 -1.2260 -0.1249 -1.3565
 2133TIP3    H227891   6.554   4.301  13.102 -0.0143 -0.3727  0.1280
 2134TIP3   OH227892   3.374   1.664  13.776 -0.6949  0.3758  0.8720
 2134TIP3    H127893   3.379   1.602  13.849  2.8484 -0.0003  0.4725
 2134TIP3    H227894   3.298   1.635  13.725 -1.4626 -1.1693  2.7647
 2135TIP3   OH227895   1.346   0.597   1.394  0.0094 -0.3417  0.2390
 2135TIP3    H127896   1.254   0.609   1.418  0.0995 -1.3882  1.1762
 2135TIP3    H227897   1.350   0.509   1.356  0.8446 -0.8624  1.4788
 2136TIP3   OH227898   0.736   5.395  12.876  0.3147  0.2216 -0.0004
 2136TIP3    H127899   0.741   5.436  12.789 -1.1899  0.5282  0.0265
 2136TIP3    H227900   0.826   5.375  12.898  0.8853  1.5522 -0.9762
 2137TIP3   OH227901   2.796   3.660   6.007 -0.0565  0.4215 -0.1251
 2137TIP3    H127902   2.821   3.568   6.008  0.6878  0.6197  0.1330
 2137TIP3    H227903   2.702   3.660   6.027  0.0297 -0.2470  0.3002
 2138TIP3   OH227904   0.231   3.099  12.558  0.1909  0.5075  0.0810
 2138TIP3    H127905   0.177   3.154  12.615  0.4767  1.1790 -0.2859
 2138TIP3    H227906   0.183   3.016  12.552  1.0346 -0.2792  2.7797
 2139TIP3   OH227907   3.848   0.192   3.251  0.0312  0.3094  0.4741
 2139TIP3    H127908   3.781   0.172   3.317 -1.4129  1.8990 -0.4436
 2139TIP3    H227909   3.798   0.217   3.173  1.7046  0.9821 -0.4229
 2140TIP3   OH227910   6.429   3.769  12.630 -0.8624 -0.1194 -0.0502
 2140TIP3    H127911   6.341   3.777  12.594 -0.1081  0.2209 -1.9379
 2140TIP3    H227912   6.442   3.675  12.640 -0.5986 -0.3359 -2.0787
 2141TIP3   OH227913   0.108   5.120   5.228 -0.1556 -0.0892 -0.2688
 2141TIP3    H127914   0.079   5.029   5.232  2.4056 -0.9539  3.0471
 2141TIP3    H227915   0.040   5.169   5.275  0.4287 -1.0128  1.6098
 2142TIP3   OH227916   1.262   6.503  14.332  0.0259  0.0887 -0.2257
 2142TIP3    H127917   1.346   6.471  14.301  0.3969  2.4640 -2.0142
 2142TIP3    H227918   1.197   6.456  14.280  0.2963 -0.8585  0.2835
 2143TIP3   OH227919   6.760   1.887   4.225  0.3430 -0.3325  0.2843
 2143TIP3    H127920   6.669   1.873   4.198  0.3763 -1.0305  0.5203
 2143TIP3    H227921   6.758   1.967   4.277  0.0906  0.4231 -0.8279
 2144TIP3   OH227922   2.999   4.114  11.180  0.2618  0.4804  0.0067
 2144TIP3    H127923   3.070   4.107  11.116  0.1058  0.2728 -0.1444
 2144TIP3    H227924   2.989   4.024  11.213 -1.2888  0.0963 -1.4206
 2145TIP3   OH227925   0.358   3.574   0.469  0.3269  0.0056  0.2575
 2145TIP3    H127926   0.307   3.593   0.390 -0.4543  1.7268  1.1051
 2145TIP3    H227927   0.336   3.483   0.491  1.5167 -0.9253 -2.1356
 2146TIP3   OH227928   3.307   0.572   0.222 -0.4494 -0.5892  0.2666
 2146TIP3    H127929   3.237   0.542   0.165 -0.4552 -2.2746  1.0924
 2146TIP3    H227930   3.370   0.613   0.163 -1.4864 -0.2616 -0.6470
 2147TIP3   OH227931   1.471   0.296  14.628 -0.2838 -0.5045  0.2984
 2147TIP3    H127932   1.556   0.341  14.635 -0.8020  0.5244  0.1136
 2147TIP3    H227933   1.494   0.204  14.620  0.8091 -0.2814  0.6769
 2148TIP3   OH227934   3.212   5.784   0.631 -0.2072 -0.2898 -0.1280
 2148TIP3    H127935   3.233   5.756   0.542  0.7683 -1.1208  0.3427
 2148TIP3    H227936   3.131   5.835   0.622 -0.1336 -0.3817 -1.4754
 2149TIP3   OH227937   2.454   5.119  15.265 -0.2691  0.3176 -0.0940
 2149TIP3    H127938   2.403   5.101  15.344  1.2761  0.5707  0.9919
 2149TIP3    H227939   2.392   5.105  15.194 -1.1615 -2.0090  1.0260
 2150TIP3   OH227940   5.184   5.792  15.917  0.5336  0.2175  0.1021
 2150TIP3    H127941   5.098   5.824  15.889  0.5539 -0.5897 -0.9483
 2150TIP3    H227942   5.167   5.750  16.002  0.1536  1.2438  0.5463
 2151TIP3   OH227943   5.982   3.799  15.697  0.4466  0.2356  0.0638
 2151TIP3    H127944   6.023   3.745  15.765  0.9240  0.0915 -0.3302
 2151TIP3    H227945   6.049   3.864  15.675  2.2065 -2.4414 -3.4965
 2152TIP3   OH227946   5.058   6.741   5.700 -0.5697 -0.0157  0.5009
 2152TIP3    H127947   4.982   6.713   5.751 -1.0712  1.8986  0.8562
 2152TIP3    H227948   5.100   6.808   5.754  1.7076 -1.3513  0.5508
 2153TIP3   OH227949   5.824   1.103  13.189  0.1039  0.6196  1.0464
 2153TIP3    H127950   5.889   1.058  13.243 -0.1287  0.0622  0.8707
 2153TIP3    H227951   5.758   1.036  13.171  0.4826  0.6253 -0.4488
 2154TIP3   OH227952   6.743   1.188   4.590  0.4833 -0.4816 -0.2402
 2154TIP3    H127953   6.725   1.124   4.658  1.6481 -0.5207  0.0477
 2154TIP3    H227954   6.723   1.143   4.508 -0.7101 -0.5075  0.0471
 2155TIP3   OH227955   0.130   4.264  15.040  0.2254 -0.0867  0.3736
 2155TIP3    H127956   0.115   4.177  15.002 -1.2185  0.0941  0.4680
 2155TIP3    H227957   0.065   4.320  14.996  0.8497  0.8486  0.6248
 2156TIP3   OH227958   0.979   2.322  13.487  0.7967 -0.0194 -0.3737
 2156TIP3    H127959   0.938   2.250  13.440 -3.0658  1.2922  0.5420
 2156TIP3    H227960   0.954   2.400  13.437  0.6236  1.0032  1.2110
 2157TIP3   OH227961   2.294   0.045  13.231 -0.0630 -0.0784 -0.0627
 2157TIP3    H127962   2.215   0.056  13.178 -0.6208  2.5373  1.1583
 2157TIP3    H227963   2.366   0.056  13.169 -0.6622  0.1500 -0.7364
 2158TIP3   OH227964   5.707   3.087   3.979  0.1870 -0.1401  0.4532
 2158TIP3    H127965   5.793   3.046   3.987  0.2804 -0.1586 -0.5748
 2158TIP3    H227966   5.652   3.021   3.938 -0.4400 -0.2701  1.4675
 2159TIP3   OH227967   2.298   6.679   6.249 -0.7470 -0.0273 -0.6412
 2159TIP3    H127968   2.292   6.608   6.313 -0.7800  1.3304  0.9193
 2159TIP3    H227969   2.372   6.732   6.280 -1.0399  0.8937 -1.4853
 2160TIP3   OH227970   1.633   0.294  11.361  0.2850  0.1889 -0.3809
 2160TIP3    H127971   1.700   0.228  11.342  0.1270 -0.0274 -0.1895
 2160TIP3    H227972   1.569   0.248  11.416  0.1338  0.4794 -0.3151
 2161TIP3   OH227973   0.484   1.264   5.616 -0.1182  0.2104 -0.2135
 2161TIP3    H127974   0.465   1.356   5.599 -1.0861 -0.1039 -0.8837
 2161TIP3    H227975   0.470   1.221   5.532  1.4507 -0.3863 -0.2001
 2162TIP3   OH227976   2.859   4.313  16.048 -0.2574 -0.4157  0.7604
 2162TIP3    H127977   2.778   4.293  16.001  0.7047 -0.2603 -1.0606
 2162TIP3    H227978   2.928   4.277  15.993  1.2145  3.2255 -0.0471
 2163TIP3   OH227979   3.894   3.635  14.319  0.2925  0.2143 -0.7287
 2163TIP3    H127980   3.983   3.621  14.351  0.1600  0.7133 -0.1168
 2163TIP3    H227981   3.880   3.567  14.254  2.0991  1.7660 -2.8694
 2164TIP3   OH227982   4.421   1.513  15.259  0.0251 -0.2184 -0.3069
 2164TIP3    H127983   4.437   1.563  15.339 -0.1934  0.3360 -0.6037
 2164TIP3    H227984   4.504   1.471  15.239  0.3451  0.4092 -0.3079
 2165TIP3   OH227985   2.148   5.229   4.152  0.1162  0.0875 -0.9951
 2165TIP3    H127986   2.113   5.204   4.067 -0.6768  0.5483 -0.8177
 2165TIP3    H227987   2.072   5.233   4.210  0.5897  0.1645 -0.3575
 2166TIP3   OH227988   0.643   6.013  14.560  0.1174  0.4592 -0.6648
 2166TIP3    H127989   0.594   6.056  14.630 -2.2610 -2.6374 -0.1715
 2166TIP3    H227990   0.689   6.084  14.515 -1.8075  3.1477  1.2710
 2167TIP3   OH227991   5.695   4.913  12.773 -0.2119  0.3126 -0.6437
 2167TIP3    H127992   5.654   4.875  12.695 -1.1558 -1.0966  0.5112
 2167TIP3    H227993   5.726   4.838  12.823  2.8716  1.2580 -0.8928
 2168TIP3   OH227994   2.551   6.320  16.763  0.0425 -0.1986  0.4914
 2168TIP3    H127995   2.595   6.256  16.707  0.5822 -1.1869  1.9879
 2168TIP3    H227996   2.533   6.394  16.704  0.6739 -1.1341 -0.9489
 2169TIP3   OH227997   6.639   3.591  12.616 -0.1392 -0.1186 -0.1774
 2169TIP3    H127998   6.699   3.665  12.605  2.0435 -1.4907  1.5947
 2169TIP3    H227999   6.656   3.560  12.705 -0.9599 -2.7579 -0.8657
 2170TIP3   OH228000   3.070   5.353   0.173  0.0095 -0.4167 -0.2532
 2170TIP3    H128001   3.003   5.330   0.109 -0.9713  0.4025  0.4560
 2170TIP3    H228002   3.134   5.404   0.124 -1.3498  1.2728 -0.3647
 2171TIP3   OH228003   1.569   5.502   3.481 -0.3587 -0.1594 -0.0051
 2171TIP3    H128004   1.486   5.521   3.437 -0.5778  0.7172  0.7677
 2171TIP3    H228005   1.545   5.445   3.554 -0.2895  0.1268  0.2418
 2172TIP3   OH228006   1.028   0.913   2.445 -0.5500  1.2140  0.1018
 2172TIP3    H128007   1.107   0.965   2.426 -0.3200  0.7800 -0.1541
 2172TIP3    H228008   0.977   0.918   2.364  0.1943 -0.2190 -0.4915
 2173TIP3   OH228009   2.051   5.887  12.638  0.0915  0.5784 -0.0646
 2173TIP3    H128010   2.008   5.943  12.574 -2.8126 -1.4414 -0.0502
 2173TIP3    H228011   2.042   5.799  12.603 -0.0906 -0.4288  2.3098
 2174TIP3   OH228012   0.968   1.926   4.678 -0.0731 -0.3806  0.3139
 2174TIP3    H128013   1.025   1.983   4.730 -0.4067  0.0594  0.2026
 2174TIP3    H228014   0.880   1.950   4.705 -0.1942 -1.9068  1.3760
 2175TIP3   OH228015   1.215   5.324  12.745  0.0529  0.0372  0.1160
 2175TIP3    H128016   1.176   5.269  12.678  1.0404  0.4228 -0.8105
 2175TIP3    H228017   1.276   5.267  12.791 -0.0525 -0.0330  0.1682
 2176TIP3   OH228018   1.618   4.354   2.019  0.0453  0.2182  0.0672
 2176TIP3    H128019   1.595   4.262   2.031  0.9440  0.0177  0.2877
 2176TIP3    H228020   1.611   4.392   2.106  1.8268 -0.1542  0.4150
 2177TIP3   OH228021   3.315   1.948  13.451 -0.0236  0.2044 -0.0683
 2177TIP3    H128022   3.321   1.854  13.434  0.3223  0.2678 -0.3097
 2177TIP3    H228023   3.288   1.986  13.367  1.9715  0.5505 -0.6176
 2178TIP3   OH228024   3.766   6.147  17.124 -0.4619  0.4426 -0.1366
 2178TIP3    H128025   3.801   6.235  17.112 -0.0918  0.6339  1.9973
 2178TIP3    H228026   3.817   6.110  17.196 -1.0744 -1.2815 -0.5246
 2179TIP3   OH228027   5.798   4.607  15.123  0.2743 -0.5325 -0.2890
 2179TIP3    H128028   5.860   4.603  15.050  0.2105  0.6518 -0.4272
 2179TIP3    H228029   5.851   4.629  15.199  0.1722 -0.5916 -0.1998
 2180TIP3   OH228030   6.709   4.228  12.101 -0.5091  0.0815  0.3332
 2180TIP3    H128031   6.618   4.208  12.120 -0.2110 -1.7133  0.0671
 2180TIP3    H228032   6.732   4.169  12.029  0.9577  0.2735  0.6097
 2181TIP3   OH228033   2.817   2.403   3.733  0.4756  0.0024 -0.6989
 2181TIP3    H128034   2.752   2.399   3.802  0.5356  0.5674 -0.6000
 2181TIP3    H228035   2.785   2.472   3.674  1.7346  1.3999  0.1677
 2182TIP3   OH228036   4.970   2.919  14.544  0.3543 -0.2630 -0.9790
 2182TIP3    H128037   4.915   2.996  14.559 -1.0138 -1.5920  1.5106
 2182TIP3    H228038   4.938   2.883  14.461 -1.5003 -0.0946 -0.3931
 2183TIP3   OH228039   1.077   3.583  11.384 -0.2723 -0.0190  0.2428
 2183TIP3    H128040   1.141   3.516  11.362 -0.7735 -0.0519 -1.2029
 2183TIP3    H228041   1.082   3.646  11.312 -1.1889  0.4673  0.5845
 2184TIP3   OH228042   4.590   4.040   4.077 -0.1553  0.3274  0.7996
 2184TIP3    H128043   4.574   3.967   4.018  0.5661  1.4475 -0.8428
 2184TIP3    H228044   4.591   4.117   4.021  0.8228  1.4164  2.2256
 2185TIP3   OH228045   1.660   0.734   6.856 -0.0937 -0.3321  0.0681
 2185TIP3    H128046   1.615   0.675   6.795  0.3361 -0.1108 -0.4715
 2185TIP3    H228047   1.590   0.771   6.909 -0.5312 -0.1758 -0.6029
 2186TIP3   OH228048   4.800   5.914   4.787  0.2181 -0.0937  0.0210
 2186TIP3    H128049   4.773   5.956   4.705  2.2667  0.7009 -0.3032
 2186TIP3    H228050   4.746   5.835   4.791 -0.7018  0.3868 -1.5391
 2187TIP3   OH228051   5.857   2.416   3.019 -0.2067 -0.0265 -0.2661
 2187TIP3    H128052   5.796   2.350   3.052 -0.4323 -0.0225 -0.6724
 2187TIP3    H228053   5.936   2.368   2.997 -1.2900 -0.6718 -3.2435
 2188TIP3   OH228054   4.570   1.247   4.980 -0.1014 -0.4813  0.6139
 2188TIP3    H128055   4.642   1.205   5.028  0.1067 -1.5028 -0.5411
 2188TIP3    H228056   4.529   1.175   4.931 -0.4974  0.4722 -0.4907
 2189TIP3   OH228057   4.682   2.222   0.891 -0.2486 -0.5559  0.3420
 2189TIP3    H128058   4.725   2.189   0.812  1.7377 -0.0180  1.1180
 2189TIP3    H228059   4.666   2.314   0.874 -1.1571 -0.7676  0.0364
 2190TIP3   OH228060   2.858   6.437   0.316 -0.5920 -0.4747  0.0283
 2190TIP3    H128061   2.893   6.389   0.391 -0.5754 -1.1034 -0.3747
 2190TIP3    H228062   2.834   6.523   0.352  0.0583 -0.5231  0.6013
 2191TIP3   OH228063   3.487   0.992   2.317  0.2735  0.0824  0.4632
 2191TIP3    H128064   3.554   1.057   2.337 -0.2502  0.1088  2.3438
 2191TIP3    H228065   3.411   1.044   2.290  1.2161  0.0201 -2.5999
 2192TIP3   OH228066   0.479   0.515  16.503  0.7753  0.5029  0.2087
 2192TIP3    H128067   0.558   0.462  16.517  0.1102 -0.1555  1.6966
 2192TIP3    H228068   0.416   0.455  16.465  0.5163  0.6316  0.4329
 2193TIP3   OH228069   6.375   3.011   4.345 -0.3429 -0.8224  0.2609
 2193TIP3    H128070   6.306   2.946   4.351  0.1729 -1.3059  1.3099
 2193TIP3    H228071   6.446   2.976   4.398  0.6540 -0.2613 -0.6401
 2194TIP3   OH228072   4.527   2.754  11.566 -0.0340 -0.0680 -0.2518
 2194TIP3    H128073   4.543   2.766  11.472  0.2238  2.7384  0.0735
 2194TIP3    H228074   4.432   2.754  11.574 -0.0560  0.1225 -0.4856
 2195TIP3   OH228075   3.760   1.712  12.078  0.4098  0.1067 -0.6245
 2195TIP3    H128076   3.762   1.762  12.159 -0.2387 -1.2275  0.2455
 2195TIP3    H228077   3.839   1.657  12.082 -0.9769 -1.9586  0.4826
 2196TIP3   OH228078   3.595   0.958  14.953  0.5532 -0.5065  0.2019
 2196TIP3    H128079   3.621   0.964  14.861  0.4298 -1.4475  0.0931
 2196TIP3    H228080   3.664   1.005  15.001 -1.0307  2.8986 -0.5814
 2197TIP3   OH228081   3.939   4.827   5.964  0.0250  0.8003  0.1438
 2197TIP3    H128082   3.851   4.851   5.992  0.6187  1.9319  1.1358
 2197TIP3    H228083   3.929   4.800   5.872 -1.2302  1.6302  0.0198
 2198TIP3   OH228084   3.282   1.179  11.701  0.2201 -0.0901 -0.1713
 2198TIP3    H128085   3.233   1.256  11.671  0.2714 -0.9014 -2.5851
 2198TIP3    H228086   3.370   1.212  11.717 -0.4278  0.8871  1.7911
 2199TIP3   OH228087   4.467   2.443  15.499 -0.2782  0.1258 -0.3015
 2199TIP3    H128088   4.466   2.523  15.551  0.7689 -0.3501  0.4929
 2199TIP3    H228089   4.473   2.373  15.563  0.3290 -0.5157 -1.0392
 2200TIP3   OH228090   2.729   0.282   1.580  0.3235  0.3650  0.1025
 2200TIP3    H128091   2.774   0.366   1.579  2.6678 -0.7895  1.0568
 2200TIP3    H228092   2.772   0.233   1.650 -1.1376 -1.5542 -0.2633
 2201TIP3   OH228093   1.445   1.217   5.218  0.1161 -0.2167 -0.4262
 2201TIP3    H128094   1.471   1.201   5.127  1.2993  0.2902 -0.2044
 2201TIP3    H228095   1.360   1.259   5.212 -0.1151 -0.7945 -1.2728
 2202TIP3   OH228096   2.748   4.330   3.145  0.6359  0.3041  0.3452
 2202TIP3    H128097   2.748   4.425   3.154  1.0517  0.3725 -0.3298
 2202TIP3    H228098   2.832   4.303   3.182 -0.2194  0.0154  2.2010
 2203TIP3   OH228099   2.270   0.315  15.660 -0.2578  0.1504 -0.1229
 2203TIP3    H128100   2.329   0.390  15.665  0.6910 -0.4083 -2.0009
 2203TIP3    H228101   2.304   0.253  15.724 -0.4081  0.8733  0.6697
 2204TIP3   OH228102   5.433   5.225   0.726 -0.6331 -0.1634 -0.0796
 2204TIP3    H128103   5.378   5.160   0.770 -0.8086  1.4812  2.3094
 2204TIP3    H228104   5.520   5.214   0.766 -0.4044  0.3571 -0.4179
 2205TIP3   OH228105   4.361   2.095  11.510  0.3097 -0.0934 -0.6094
 2205TIP3    H128106   4.455   2.075  11.516  0.3621 -0.4535 -2.2372
 2205TIP3    H228107   4.319   2.020  11.552  0.7413  0.3111  0.5977
 2206TIP3   OH228108   2.720   2.901  13.529  0.3242 -0.0603  0.8755
 2206TIP3    H128109   2.755   2.834  13.470 -0.0008  0.0524  0.5543
 2206TIP3    H228110   2.667   2.852  13.592  2.2570 -0.4287  2.3174
 2207TIP3   OH228111   3.878   3.168  12.271 -0.2309 -0.6428  0.1557
 2207TIP3    H128112   3.822   3.200  12.342 -1.1166  0.4680 -0.9941
 2207TIP3    H228113   3.891   3.245  12.215  1.8184 -1.0732 -0.0336
 2208TIP3   OH228114   6.011   0.547   0.066  0.2456 -0.0860  0.0441
 2208TIP3    H128115   6.013   0.607   0.142 -0.9896 -0.5107  0.4293
 2208TIP3    H228116   6.049   0.599  -0.005  2.7017 -0.1000  1.2075
 2209TIP3   OH228117   5.676   0.778  17.090  0.0095  0.1502 -1.0566
 2209TIP3    H128118   5.700   0.816  17.175 -0.4085 -1.4586 -0.1760
 2209TIP3    H228119   5.581   0.765  17.096  0.0843 -0.6266 -1.4937
 2210TIP3   OH228120   0.663   2.652  15.925  0.6482  0.4262  0.4669
 2210TIP3    H128121   0.731   2.586  15.936  0.7535  0.5440  0.5373
 2210TIP3    H228122   0.699   2.712  15.859  0.1080 -0.1661 -0.3746
 2211TIP3   OH228123   4.295   6.438   4.748  0.0195 -0.3712  0.2866
 2211TIP3    H128124   4.343   6.371   4.698 -0.0763 -1.6121  1.7754
 2211TIP3    H228125   4.276   6.507   4.684  1.5011 -1.0458 -0.9351
 2212TIP3   OH228126   6.372   4.112  14.449  0.2538 -0.5229  0.6048
 2212TIP3    H128127   6.309   4.064  14.396  1.2446 -0.3751 -0.7828
 2212TIP3    H228128   6.419   4.045  14.497 -1.2838 -0.5977  2.0852
 2213TIP3   OH228129   5.787   3.347  17.006  0.2449  0.1311  0.3077
 2213TIP3    H128130   5.879   3.336  16.983 -0.0801 -1.7562 -0.2383
 2213TIP3    H228131   5.787   3.365  17.100  1.1476 -0.1004  0.3560
 2214TIP3   OH228132   5.280   1.380  16.571  0.2538  0.0800  0.2573
 2214TIP3    H128133   5.266   1.287  16.585 -0.2163  0.0069 -0.6100
 2214TIP3    H228134   5.192   1.419  16.579  0.4546  0.4593  0.6779
 2215TIP3   OH228135   4.528   4.943  14.612  0.1956  0.2972 -0.9343
 2215TIP3    H128136   4.525   5.022  14.666  1.2011  0.6647 -1.3821
 2215TIP3    H228137   4.447   4.896  14.633  0.3667  0.6286  0.5676
 2216TIP3   OH228138   5.884   4.196  14.450  0.3148 -0.3386  0.4393
 2216TIP3    H128139   5.851   4.150  14.527  3.1321 -1.0757  1.2968
 2216TIP3    H228140   5.845   4.148  14.376  0.6593 -2.1379  1.3553
 2217TIP3   OH228141   1.771   2.814  15.278  0.4492  0.5435  0.6048
 2217TIP3    H128142   1.786   2.893  15.330  0.5901  0.5803  0.5095
 2217TIP3    H228143   1.788   2.742  15.339 -1.3467  0.5649  1.1801
 2218TIP3   OH228144   6.719   3.822  17.199  0.4536 -0.4650  0.1051
 2218TIP3    H128145   6.680   3.754  17.255  1.9039 -2.3136 -0.9813
 2218TIP3    H228146   6.812   3.798  17.193  1.2997  2.3330  0.5814
 2219TIP3   OH228147   5.186   5.178  15.016 -0.5966 -0.3658 -0.2182
 2219TIP3    H128148   5.211   5.106  15.074 -2.2144 -0.9945 -0.2596
 2219TIP3    H228149   5.219   5.256  15.061 -1.9295 -0.8174  1.6689
 2220TIP3   OH228150   3.048   1.026  12.531 -0.1894  0.0640 -0.1415
 2220TIP3    H128151   3.126   1.038  12.586 -0.7270 -0.9147  0.8610
 2220TIP3    H228152   3.063   0.943  12.486  0.4469  1.0541 -1.8763
 2221TIP3   OH228153   2.936   2.899   0.192 -0.0106 -0.1167  0.3542
 2221TIP3    H128154   3.023   2.914   0.155 -0.5121  0.9051 -0.4657
 2221TIP3    H228155   2.891   2.847   0.125  0.1496 -1.1674  1.0446
 2222TIP3   OH228156   4.988   5.363   3.831 -0.3731 -0.2709 -0.2967
 2222TIP3    H128157   5.049   5.294   3.859 -0.1749 -0.0205 -0.1025
 2222TIP3    H228158   4.953   5.332   3.747  0.2988 -0.2525 -0.5919
 2223TIP3   OH228159   5.501   5.377  12.964  0.1602  0.3407 -0.2456
 2223TIP3    H128160   5.443   5.323  13.019  0.0478 -0.4906 -1.1456
 2223TIP3    H228161   5.558   5.422  13.026 -0.1194 -0.3921  0.5655
 2224TIP3   OH228162   2.130   1.698  15.241  0.4837  0.2208  0.2914
 2224TIP3    H128163   2.132   1.794  15.235 -0.3694  0.2074 -0.3527
 2224TIP3    H228164   2.218   1.671  15.216  0.7148  0.8312  0.4286
 2225TIP3   OH228165   4.319   2.618  15.064 -0.5340 -0.4900  0.1543
 2225TIP3    H128166   4.390   2.580  15.116  0.3102 -1.1998 -1.4644
 2225TIP3    H228167   4.362   2.677  15.002 -1.2733 -1.2730 -1.1539
 2226TIP3   OH228168   1.727   5.311   5.796 -0.4885  0.0757  0.2126
 2226TIP3    H128169   1.632   5.312   5.782 -0.2872 -0.9376 -1.4228
 2226TIP3    H228170   1.751   5.404   5.797 -1.0543  0.3956 -3.1620
 2227TIP3   OH228171   5.453   1.378   5.085 -0.4507 -0.4369 -0.5337
 2227TIP3    H128172   5.495   1.399   5.001 -1.1055 -1.2632 -1.0847
 2227TIP3    H228173   5.526   1.375   5.147  0.1500 -0.6158 -1.2272
 2228TIP3   OH228174   5.166   0.574   5.896  0.7111 -0.1245  0.8284
 2228TIP3    H128175   5.101   0.506   5.918  1.0066 -0.1913  1.5413
 2228TIP3    H228176   5.143   0.648   5.952 -0.0402  0.6420 -0.4550
 2229TIP3   OH228177   0.798   3.528   0.361 -0.0356 -0.2423 -0.4758
 2229TIP3    H128178   0.733   3.458   0.353 -2.6163  1.5748  2.2825
 2229TIP3    H228179   0.756   3.605   0.323  0.7671  0.8418  0.7328
 2230TIP3   OH228180   4.601   1.323   0.176  0.0817 -0.3006 -0.6665
 2230TIP3    H128181   4.554   1.250   0.216  1.8254 -0.6932  0.7949
 2230TIP3    H228182   4.537   1.394   0.172 -0.4016 -0.4518  2.2851
 2231TIP3   OH228183   0.966   4.267   2.803 -0.0967 -0.0547 -0.1508
 2231TIP3    H128184   0.985   4.219   2.884  0.6453  0.2376 -0.1460
 2231TIP3    H228185   0.941   4.198   2.740 -0.4887 -0.3007  0.2656
 2232TIP3   OH228186   3.327   2.931   4.091  0.1536  0.3471  0.2570
 2232TIP3    H128187   3.264   2.970   4.030  1.0274 -1.9643 -2.3176
 2232TIP3    H228188   3.400   2.993   4.093 -0.1548  0.7502 -0.5738
 2233TIP3   OH228189   0.362   2.634  16.399  0.2971  0.4153  0.2784
 2233TIP3    H128190   0.443   2.604  16.358 -0.2871  1.8215 -2.0919
 2233TIP3    H228191   0.293   2.598  16.343 -0.7511 -0.3518  1.9777
 2234TIP3   OH228192   6.417   3.379  17.439  0.0934 -0.1029 -0.1197
 2234TIP3    H128193   6.410   3.395  17.345 -2.4664  1.1308  0.1990
 2234TIP3    H228194   6.361   3.445  17.479  1.2903 -0.4576  2.3181
 2235TIP3   OH228195   2.269   3.629   5.191 -0.1417 -0.1591  0.5417
 2235TIP3    H128196   2.342   3.580   5.154  0.9658  1.0423  1.0679
 2235TIP3    H228197   2.226   3.669   5.115 -1.4404 -2.3378  0.0337
 2236TIP3   OH228198   1.858   1.832  14.657  0.9908 -0.5993  0.7682
 2236TIP3    H128199   1.772   1.830  14.700 -0.4509 -1.0722 -1.8879
 2236TIP3    H228200   1.862   1.920  14.617 -0.0199 -1.7582 -2.1783
 2237TIP3   OH228201   5.912   2.685  14.063  0.3916  0.3645 -0.0854
 2237TIP3    H128202   5.956   2.622  14.006  0.1254 -0.6032  0.7529
 2237TIP3    H228203   5.838   2.717  14.011  1.3237  1.0658 -1.0341
 2238TIP3   OH228204   0.293   3.054  14.896 -0.6567 -0.7864 -0.2860
 2238TIP3    H128205   0.334   2.967  14.897  2.0455  0.3938 -0.5031
 2238TIP3    H228206   0.256   3.062  14.984  2.5574 -0.7317  1.2392
 2239TIP3   OH228207   2.678   0.160  16.219  0.5222  0.0583  0.1074
 2239TIP3    H128208   2.656   0.251  16.242  0.8747  0.0016  0.6876
 2239TIP3    H228209   2.760   0.167  16.170  0.7530  0.0216  0.4872
 2240TIP3   OH228210   2.616   6.645   4.013 -0.4657 -0.6520  0.3235
 2240TIP3    H128211   2.595   6.553   4.032 -0.8533 -0.5957  0.1881
 2240TIP3    H228212   2.614   6.688   4.098 -0.0365 -0.8159  0.4184
 2241TIP3   OH228213   2.256   0.192  16.344  0.4239 -0.7174 -0.2733
 2241TIP3    H128214   2.270   0.098  16.334  1.1040 -0.4735 -1.8748
 2241TIP3    H228215   2.344   0.228  16.359  0.2394 -0.2777 -0.2249
 2242TIP3   OH228216   2.689   0.285  15.064 -0.8426  0.3372 -0.4289
 2242TIP3    H128217   2.691   0.367  15.112  0.9560 -0.0594  0.2661
 2242TIP3    H228218   2.672   0.310  14.973 -1.7774  1.3145 -0.0010
 2243TIP3   OH228219   1.134   2.994   3.265  0.2600  0.1230  0.2541
 2243TIP3    H128220   1.047   2.957   3.249 -0.5538  2.0154 -0.0105
 2243TIP3    H228221   1.172   2.939   3.333 -0.6338 -1.4997 -0.5099
 2244TIP3   OH228222   3.158   0.672   0.442  0.1513  0.0746 -0.0906
 2244TIP3    H128223   3.215   0.679   0.518  0.0442 -0.7512  0.0759
 2244TIP3    H228224   3.219   0.664   0.368  0.2743 -1.3752  0.1426
 2245TIP3   OH228225   5.166   3.500  13.388  0.3960 -0.2487  0.6863
 2245TIP3    H128226   5.165   3.467  13.478  2.4455 -0.9584  0.5200
 2245TIP3    H228227   5.136   3.425  13.335  2.0057 -0.8676  0.5800
 2246TIP3   OH228228   6.235   6.065  14.892 -0.1342 -0.1016  0.5531
 2246TIP3    H128229   6.208   6.148  14.853  0.7969  0.2421  0.6183
 2246TIP3    H228230   6.277   6.090  14.974  3.6775 -0.2208 -1.1422
 2247TIP3   OH228231   5.713   4.427   5.382 -0.4626  0.6004  0.2137
 2247TIP3    H128232   5.620   4.417   5.361  0.4567 -0.7259 -4.5857
 2247TIP3    H228233   5.747   4.338   5.385  0.6299  1.0157  2.8009
 2248TIP3   OH228234   5.647   0.904   4.508 -0.1612 -0.9993  0.5831
 2248TIP3    H128235   5.615   0.817   4.487 -0.7574 -0.5685 -0.3342
 2248TIP3    H228236   5.699   0.930   4.432 -0.0614 -0.5129  0.8133
 2249TIP3   OH228237   5.868   0.457   2.653 -0.3259  0.2090 -0.1387
 2249TIP3    H128238   5.780   0.465   2.690 -0.5732 -0.8777 -0.4404
 2249TIP3    H228239   5.900   0.372   2.685  1.6290  1.6260  2.0264
 2250TIP3   OH228240   6.002   5.935  10.993  0.5682  0.2041 -0.4826
 2250TIP3    H128241   5.989   5.951  10.900 -0.8831 -0.6464 -0.4525
 2250TIP3    H228242   6.019   5.841  11.000  2.2448  0.5049 -0.0182
 2251TIP3   OH228243   0.421   6.538   4.004 -0.4464 -0.1474  0.3496
 2251TIP3    H128244   0.487   6.504   3.945 -0.0947 -0.8621  1.1276
 2251TIP3    H228245   0.444   6.631   4.015  0.3612 -0.3574  0.5152
 2252TIP3   OH228246   2.562   2.198   6.259  0.1064 -0.5814 -0.1849
 2252TIP3    H128247   2.539   2.200   6.352  0.0043 -0.9309 -0.2009
 2252TIP3    H228248   2.527   2.115   6.227  1.7587 -1.3465 -0.1061
 2253TIP3   OH228249   3.681   0.503   2.368  0.2482  0.3279 -0.1935
 2253TIP3    H128250   3.777   0.505   2.370  0.2970 -1.1668  2.1038
 2253TIP3    H228251   3.655   0.595   2.378  1.4174  0.6999 -0.4049
 2254TIP3   OH228252   1.068   2.419   1.188 -0.5839  0.2148 -0.3488
 2254TIP3    H128253   0.985   2.448   1.150 -0.7075  0.7181  0.2867
 2254TIP3    H228254   1.083   2.333   1.149 -1.1830  0.3045 -0.8019
 2255TIP3   OH228255   1.919   2.536   6.698 -0.0588  0.1752 -0.3182
 2255TIP3    H128256   1.869   2.603   6.651 -1.1810 -0.6372 -0.2976
 2255TIP3    H228257   2.010   2.565   6.689 -0.4984  1.6120 -0.4561
 2256TIP3   OH228258   5.613   3.752  13.544  0.3893  0.2590 -0.4277
 2256TIP3    H128259   5.551   3.769  13.616  0.9523  0.9744 -0.1035
 2256TIP3    H228260   5.573   3.794  13.468  2.1066  4.0023  0.4985
 2257TIP3   OH228261   0.970   3.467   3.627 -0.3351 -0.6135 -0.0455
 2257TIP3    H128262   0.934   3.531   3.566 -0.3346  0.2345  0.8419
 2257TIP3    H228263   0.897   3.407   3.644 -0.7724  0.0044  0.2783
 2258TIP3   OH228264   4.673   3.163  13.324 -0.0620 -0.2945 -0.2310
 2258TIP3    H128265   4.698   3.088  13.378 -1.1592 -1.0911 -0.7837
 2258TIP3    H228266   4.580   3.149  13.305 -0.5712  1.7425  0.4909
 2259TIP3   OH228267   2.011   2.067   5.210  0.0052  0.5083 -0.1973
 2259TIP3    H128268   1.963   2.013   5.146 -2.3925  0.7331  1.2959
 2259TIP3    H228269   1.961   2.058   5.291  2.0399  1.5351  1.2633
 2260TIP3   OH228270   1.445   5.839   2.033  0.2946  0.2252  0.0703
 2260TIP3    H128271   1.456   5.812   1.942 -0.4976  0.6812 -0.1691
 2260TIP3    H228272   1.361   5.802   2.059  0.1736  0.7196  0.3892
 2261TIP3   OH228273   2.416   5.395   0.573 -0.1019 -0.0989 -0.6143
 2261TIP3    H128274   2.407   5.370   0.482 -0.1668  0.6061 -0.8103
 2261TIP3    H228275   2.327   5.407   0.604 -0.0723 -0.0163 -0.5579
 2262TIP3   OH228276   4.803   2.270   3.510  0.2091 -0.3517  0.2486
 2262TIP3    H128277   4.875   2.327   3.481 -0.7021  0.4564 -0.4760
 2262TIP3    H228278   4.728   2.329   3.519  0.2880 -0.5692  3.9303
 2263TIP3   OH228279   1.179   4.769   0.343  0.4423  0.4138  0.2382
 2263TIP3    H128280   1.236   4.802   0.274  0.1475  1.2114  0.3678
 2263TIP3    H228281   1.096   4.817   0.331 -0.0349 -0.3577  0.3638
 2264TIP3   OH228282   5.116   1.543  13.691  0.0156  0.1529 -0.7055
 2264TIP3    H128283   5.064   1.535  13.611  0.2777 -0.4938 -0.8182
 2264TIP3    H228284   5.196   1.588  13.663  0.0186  0.1098 -0.7669
 2265TIP3   OH228285   0.181   6.673  15.709  0.7302 -0.1427  0.4562
 2265TIP3    H128286   0.236   6.595  15.721  2.6358  0.6375 -2.2021
 2265TIP3    H228287   0.095   6.638  15.689  1.5801 -1.6397 -0.8119
 2266TIP3   OH228288   5.649   5.949   4.310 -0.4323 -0.4485 -0.0611
 2266TIP3    H128289   5.561   5.984   4.294  0.0606  1.3751  0.9833
 2266TIP3    H228290   5.634   5.859   4.338 -1.9134 -0.3870 -0.5631
 2267TIP3   OH228291   5.685   0.202   3.105  0.5935 -1.3749  0.3485
 2267TIP3    H128292   5.613   0.232   3.050  2.2380 -1.3405 -1.9273
 2267TIP3    H228293   5.704   0.114   3.075  2.0008 -1.0888  0.3113
 2268TIP3   OH228294   1.998   0.366   2.337  0.4975 -0.3796 -0.5718
 2268TIP3    H128295   2.075   0.389   2.388 -0.2682  2.3569 -0.4833
 2268TIP3    H228296   1.930   0.351   2.402  0.2759  0.0815 -0.6888
 2269TIP3   OH228297   5.887   2.248  15.835  0.1192  0.7258 -0.0764
 2269TIP3    H128298   5.879   2.154  15.852 -1.0205  0.4019 -2.1013
 2269TIP3    H228299   5.843   2.261  15.751  3.9217  2.3861 -2.0196
 2270TIP3   OH228300   0.236   5.883   3.975  0.2582 -0.0890  0.2247
 2270TIP3    H128301   0.318   5.931   3.973 -0.0581  0.4550 -1.6980
 2270TIP3    H228302   0.262   5.793   3.997  1.5892 -0.2565 -1.7761
 2271TIP3   OH228303   1.871   1.830   1.313  0.2749 -0.2634  0.4745
 2271TIP3    H128304   1.922   1.905   1.282 -2.7313  0.8949 -2.2146
 2271TIP3    H228305   1.787   1.867   1.340 -2.0916 -2.6710 -2.8191
 2272TIP3   OH228306   6.522   3.005  15.521 -0.8122 -0.3192  0.1884
 2272TIP3    H128307   6.505   3.098  15.509  1.3310  0.3855  1.8654
 2272TIP3    H228308   6.442   2.961  15.492 -2.0763  2.0614 -0.1228
 2273TIP3   OH228309   4.785   0.231   1.086 -0.1297  0.1325 -0.0452
 2273TIP3    H128310   4.718   0.298   1.095  0.1651  0.2094  1.9829
 2273TIP3    H228311   4.798   0.197   1.175  1.0738 -1.2948 -0.7110
 2274TIP3   OH228312   6.621   5.713  15.594  0.3753  0.9684 -0.9746
 2274TIP3    H128313   6.542   5.739  15.640  0.6061  0.5332 -0.3036
 2274TIP3    H228314   6.692   5.758  15.640  0.6345  0.3189 -0.7158
 2275TIP3   OH228315   2.303   1.379  14.188  0.3829 -0.0274  0.1347
 2275TIP3    H128316   2.212   1.398  14.164  1.0859  2.9499 -0.6172
 2275TIP3    H228317   2.344   1.353  14.105  0.6787  0.8675 -0.0143
 2276TIP3   OH228318   3.992   2.064   2.875  0.2155  0.2539  0.8073
 2276TIP3    H128319   3.935   2.098   2.945 -1.8577  0.6175 -0.9664
 2276TIP3    H228320   4.029   2.142   2.834 -1.1848  0.2466 -0.5498
 2277TIP3   OH228321   1.716   6.604   2.454 -0.7990 -0.7875 -0.7462
 2277TIP3    H128322   1.771   6.585   2.378 -0.6838  0.1383 -0.9069
 2277TIP3    H228323   1.636   6.641   2.418  0.1843  1.9078 -0.3765
 2278TIP3   OH228324   4.701   6.608  14.220  0.4111  0.0802  0.3121
 2278TIP3    H128325   4.702   6.694  14.177  0.5796 -0.4197 -0.7198
 2278TIP3    H228326   4.784   6.568  14.196 -0.4264 -1.1051 -0.7931
 2279TIP3   OH228327   0.465   6.003  12.800 -0.0187 -0.9405  0.4104
 2279TIP3    H128328   0.456   6.096  12.820  0.6728 -1.0988  1.5622
 2279TIP3    H228329   0.543   5.998  12.745 -1.4451 -0.5988 -1.7650
 2280TIP3   OH228330   2.213   4.444  14.588  0.0465  0.1501 -0.1359
 2280TIP3    H128331   2.296   4.412  14.553  0.1158  0.6033 -0.3947
 2280TIP3    H228332   2.224   4.539  14.592  0.1746  0.0877  1.4905
 2281TIP3   OH228333   3.110   4.379   6.905  0.6086 -0.1637  0.0570
 2281TIP3    H128334   3.015   4.379   6.900  0.6292  0.9674 -0.6067
 2281TIP3    H228335   3.138   4.450   6.847  1.8956 -1.0740 -0.4934
 2282TIP3   OH228336   1.719   4.241  14.385  0.2299  0.1317  0.0406
 2282TIP3    H128337   1.625   4.225  14.393  0.3339 -1.0001 -0.7230
 2282TIP3    H228338   1.732   4.329  14.421 -1.5134  1.3661 -2.0502
 2283TIP3   OH228339   0.961   3.426  13.032 -0.8550 -0.3444 -0.6588
 2283TIP3    H128340   0.876   3.414  12.990 -0.4329 -0.6120 -1.4434
 2283TIP3    H228341   1.019   3.364  12.988 -0.3717 -0.5545  0.2392
 2284TIP3   OH228342   5.909   3.615   0.854 -0.4792 -0.3853 -0.3258
 2284TIP3    H128343   5.836   3.553   0.849 -0.9188 -0.0808  1.6640
 2284TIP3    H228344   5.867   3.701   0.856  0.0200 -0.1277 -0.6014
 2285TIP3   OH228345   6.581   6.166  13.113 -0.1487  0.2407  0.5329
 2285TIP3    H128346   6.518   6.192  13.179  0.0363 -0.6585  1.0826
 2285TIP3    H228347   6.542   6.193  13.030 -0.4977  1.1495  0.9877
 2286TIP3   OH228348   4.849   6.468   5.101  0.4308 -0.1106  0.6697
 2286TIP3    H128349   4.906   6.445   5.174  2.2934  1.4101 -0.2156
 2286TIP3    H228350   4.809   6.551   5.128  0.9414  0.3350  0.0574
 2287TIP3   OH228351   6.068   1.644   4.345 -0.0038 -0.0972 -0.4718
 2287TIP3    H128352   6.154   1.663   4.383 -0.1860 -1.8760  0.9847
 2287TIP3    H228353   6.007   1.695   4.399  0.0189  0.1507 -0.6771
 2288TIP3   OH228354   4.107   2.010  15.430  0.0708 -1.0367  0.0450
 2288TIP3    H128355   4.055   1.956  15.489  0.8714 -0.4408  1.3431
 2288TIP3    H228356   4.156   2.069  15.488 -1.3736  1.6731 -1.3176
 2289TIP3   OH228357   3.037   3.943   5.641  0.0688 -0.0905  0.4288
 2289TIP3    H128358   3.049   4.020   5.697  0.8772  0.3440 -0.3199
 2289TIP3    H228359   3.042   3.869   5.701 -1.5998  0.4400  1.2968
 2290TIP3   OH228360   1.107   3.566  14.992 -0.2391 -0.0622 -0.5481
 2290TIP3    H128361   1.016   3.552  14.964 -0.1124  0.5703 -1.3155
 2290TIP3    H228362   1.139   3.478  15.014 -1.3309 -0.1817  0.7141
 2291TIP3   OH228363   0.661   1.895  15.297  0.2604  0.2916  0.7472
 2291TIP3    H128364   0.755   1.876  15.295  0.1576 -0.1528  0.1555
 2291TIP3    H228365   0.622   1.830  15.239 -0.2426  1.4518 -0.2544
 2292TIP3   OH228366   2.474   2.715  12.960 -0.2100  0.0388  0.0239
 2292TIP3    H128367   2.406   2.769  13.000  0.0402  0.2655  0.1387
 2292TIP3    H228368   2.441   2.696  12.872 -1.3042 -1.4161  0.6941
 2293TIP3   OH228369   5.838   2.425  12.212 -0.1667  0.2588 -0.3178
 2293TIP3    H128370   5.786   2.500  12.186  0.4276  0.5666 -0.6426
 2293TIP3    H228371   5.899   2.459  12.278  2.5252  0.9572 -2.9366
 2294TIP3   OH228372   0.223   2.633  11.438 -0.1488 -0.2917 -0.1908
 2294TIP3    H128373   0.194   2.568  11.374  0.7301 -0.3948 -0.4967
 2294TIP3    H228374   0.298   2.591  11.482 -0.7220 -0.2144  0.8891
 2295TIP3   OH228375   0.107   2.820   2.021 -0.3780  0.4240  0.0274
 2295TIP3    H128376   0.142   2.831   1.933 -0.5093 -1.0079 -0.2184
 2295TIP3    H228377   0.046   2.746   2.014 -1.1378  0.9155  1.1062
 2296TIP3   OH228378   5.363   1.419   3.769  0.3883  0.9230  0.7727
 2296TIP3    H128379   5.359   1.410   3.865  1.2980 -0.1495  0.7299
 2296TIP3    H228380   5.441   1.471   3.753 -0.1992  1.7855  0.6282
 2297TIP3   OH228381   5.021   5.842   1.497  0.0486  0.8910 -0.2068
 2297TIP3    H128382   4.973   5.805   1.423 -1.0009 -1.0175  1.3117
 2297TIP3    H228383   5.008   5.779   1.568  0.3540  2.9760  1.8470
 2298TIP3   OH228384   3.106   3.389   4.306 -0.2296  0.2724 -0.1329
 2298TIP3    H128385   3.098   3.336   4.227  1.2110 -2.4508  1.4099
 2298TIP3    H228386   3.170   3.456   4.284 -0.8823  0.4355 -1.6449
 2299TIP3   OH228387   5.882   4.075   6.731 -0.1665  0.1690 -0.4074
 2299TIP3    H128388   5.950   4.132   6.768 -1.1306 -0.0500  1.8259
 2299TIP3    H228389   5.836   4.132   6.668  0.6542  0.9861 -0.2964
 2300TIP3   OH228390   3.862   0.028  16.750 -0.5669 -0.1723  0.0830
 2300TIP3    H128391   3.950   0.033  16.787 -0.2221 -0.9457 -0.5998
 2300TIP3    H228392   3.859   0.097  16.684 -0.2268 -0.5578 -0.3506
 2301TIP3   OH228393   4.862   2.562  15.203  0.0932  0.4245  0.1650
 2301TIP3    H128394   4.887   2.487  15.258 -0.4781 -0.7483 -1.1158
 2301TIP3    H228395   4.841   2.523  15.118 -1.0177  1.9576 -0.2983
 2302TIP3   OH228396   1.122   2.647   4.038  0.1492 -0.5563 -0.0817
 2302TIP3    H128397   1.203   2.638   4.088  0.5092 -0.8889 -0.7087
 2302TIP3    H228398   1.136   2.594   3.960 -0.7746 -0.8280 -0.0782
 2303TIP3   OH228399   5.934   5.567   0.502 -0.1619  0.1702  0.0197
 2303TIP3    H128400   5.888   5.483   0.497 -0.1972  0.1677  0.3301
 2303TIP3    H228401   6.009   5.558   0.443 -0.5238  0.1512 -0.4382
 2304TIP3   OH228402   3.846   1.033  12.697 -0.1477 -0.2403 -0.4765
 2304TIP3    H128403   3.793   1.094  12.646  0.3642 -0.0121 -0.7439
 2304TIP3    H228404   3.935   1.067  12.690 -0.0302 -0.3428  0.3638
 2305TIP3   OH228405   5.921   4.530   6.404 -0.1675 -0.3955  0.3314
 2305TIP3    H128406   5.903   4.524   6.498  0.3294  0.1608  0.4723
 2305TIP3    H228407   5.854   4.589   6.370 -0.4481 -0.7262  0.3012
 2306TIP3   OH228408   1.030   0.174   0.563 -0.2872  0.3556 -0.3934
 2306TIP3    H128409   0.970   0.143   0.496  0.4220  0.9958 -1.3489
 2306TIP3    H228410   1.071   0.252   0.525  2.3271 -0.9322 -0.4735
 2307TIP3   OH228411   2.558   3.164   0.946  0.1774  0.1247  0.0369
 2307TIP3    H128412   2.552   3.201   0.858 -2.5710 -1.4126 -0.5327
 2307TIP3    H228413   2.566   3.070   0.932  0.6284 -0.0666  1.4457
 2308TIP3   OH228414   0.858   3.745  13.415 -0.1007 -0.1899 -0.3451
 2308TIP3    H128415   0.874   3.714  13.325 -0.8278 -1.3835 -0.0844
 2308TIP3    H228416   0.801   3.821  13.404  0.3996  0.1204 -0.9171
 2309TIP3   OH228417   0.437   4.735   3.344  0.0562  0.5779  0.4408
 2309TIP3    H128418   0.454   4.718   3.437  1.2014 -0.2487  0.1093
 2309TIP3    H228419   0.462   4.653   3.300  0.7212  1.3804 -0.7132
 2310TIP3   OH228420   1.682   2.566   6.102  0.8265 -0.0794 -0.1463
 2310TIP3    H128421   1.741   2.591   6.173 -0.6696  1.6438  0.5930
 2310TIP3    H228422   1.615   2.635   6.101 -2.5214 -3.0180  0.6112
 2311TIP3   OH228423   5.972   0.773  17.050 -0.0685  0.1788 -0.4173
 2311TIP3    H128424   5.956   0.685  17.082 -0.5419  0.5312  0.3535
 2311TIP3    H228425   5.888   0.818  17.062  0.6927  1.2947  1.0726
 2312TIP3   OH228426   6.421   5.219  11.503 -0.0666 -0.0546  0.1075
 2312TIP3    H128427   6.346   5.217  11.562 -1.2394  1.3088 -1.2230
 2312TIP3    H228428   6.438   5.127  11.482 -1.0665 -0.4116  0.7932
 2313TIP3   OH228429   5.565   0.236  17.089  0.2206 -0.6235  0.5986
 2313TIP3    H128430   5.504   0.191  17.146 -0.3049 -0.6411  0.0348
 2313TIP3    H228431   5.571   0.325  17.125 -0.2934 -0.5624  0.5465
 2314TIP3   OH228432   2.821   2.074  15.776 -0.3009  0.7574 -0.1609
 2314TIP3    H128433   2.813   2.035  15.689  3.0606 -3.0286  0.9006
 2314TIP3    H228434   2.739   2.050  15.820  0.4797 -3.3325 -0.4598
 2315TIP3   OH228435   2.252   2.553   4.846  0.0706 -0.2758  0.1368
 2315TIP3    H128436   2.181   2.557   4.911 -0.3621  0.3111 -0.3677
 2315TIP3    H228437   2.294   2.468   4.862 -0.1606 -0.2279  1.0481
 2316TIP3   OH228438   5.538   5.908  15.786  0.0559  0.3210 -0.7346
 2316TIP3    H128439   5.565   5.982  15.732  0.5772  0.3991 -0.3729
 2316TIP3    H228440   5.587   5.833  15.750  1.0070  0.5204  0.1179
 2317TIP3   OH228441   1.755   6.220  12.853  0.3637  0.2934 -0.4415
 2317TIP3    H128442   1.731   6.255  12.767 -0.9967  0.4419 -0.0359
 2317TIP3    H228443   1.700   6.141  12.862  0.7419  0.0910  0.1457
 2318TIP3   OH228444   6.701   5.286  13.956 -0.5123 -0.3467 -0.1126
 2318TIP3    H128445   6.788   5.278  13.996 -1.0502  1.2059  1.5135
 2318TIP3    H228446   6.692   5.207  13.903  0.8015 -1.9052  1.8175
 2319TIP3   OH228447   1.944   1.583   4.190  0.5832  0.2361  0.4448
 2319TIP3    H128448   1.849   1.590   4.182  0.6661  0.5344 -0.3384
 2319TIP3    H228449   1.970   1.661   4.239  0.4298  0.1547  0.6565
 2320TIP3   OH228450   4.591   2.877  13.953  0.4048 -0.1006 -0.0009
 2320TIP3    H128451   4.640   2.947  13.995  0.3439  1.2753 -2.0852
 2320TIP3    H228452   4.500   2.904  13.960  0.4575  0.7131 -1.8491
 2321TIP3   OH228453   5.369   4.072  16.512  0.3621  0.4725 -0.0503
 2321TIP3    H128454   5.332   4.020  16.583  0.7702  0.6521  0.2930
 2321TIP3    H228455   5.432   4.013  16.470  0.5655  0.5702  0.1180
 2322TIP3   OH228456   5.110   5.209  15.394  0.4548  0.0469 -0.3720
 2322TIP3    H128457   5.076   5.282  15.446  1.4927 -0.6316  1.3761
 2322TIP3    H228458   5.191   5.243  15.355  0.6433  0.0135 -0.0163
 2323TIP3   OH228459   6.281   2.495   2.889 -0.0425 -0.5670 -0.3951
 2323TIP3    H128460   6.343   2.483   2.818  0.5963 -0.4225  0.1341
 2323TIP3    H228461   6.333   2.530   2.961 -1.0872  1.5213 -0.5791
 2324TIP3   OH228462   3.281   3.963   3.041  1.3245  0.4741 -0.4774
 2324TIP3    H128463   3.239   4.004   2.965  1.5491  0.1496 -0.7769
 2324TIP3    H228464   3.232   3.997   3.116  1.3706  1.1205 -0.7362
 2325TIP3   OH228465   5.812   4.083  14.710  0.2666  0.2758 -0.4134
 2325TIP3    H128466   5.778   4.029  14.781 -0.2904  0.3467 -0.6183
 2325TIP3    H228467   5.897   4.114  14.741  0.4847 -0.5219 -0.1963
 2326TIP3   OH228468   1.583   5.025  16.538  0.1370  0.2912 -0.5815
 2326TIP3    H128469   1.565   5.117  16.558  0.0215  0.3949 -1.1392
 2326TIP3    H228470   1.600   5.024  16.444  0.4095 -0.2179 -0.5302
 2327TIP3   OH228471   0.824   5.999  11.934  0.2588 -0.3960 -0.0460
 2327TIP3    H128472   0.904   5.989  11.883  0.0179  0.7347 -0.6838
 2327TIP3    H228473   0.803   6.092  11.926  0.1864 -0.1866  2.0814
 2328TIP3   OH228474   0.227   3.771   4.376 -0.1106  0.4106  1.0195
 2328TIP3    H128475   0.220   3.677   4.360  0.4247  0.6179 -0.5605
 2328TIP3    H228476   0.308   3.780   4.427  0.2786  0.0823  0.4687
 2329TIP3   OH228477   1.703   4.536  13.473  0.6391 -0.2804  0.3115
 2329TIP3    H128478   1.784   4.583  13.453  0.4007  0.5028  1.1222
 2329TIP3    H228479   1.665   4.584  13.546  0.0739 -1.3863  0.7723
 2330TIP3   OH228480   4.961   3.972  14.301 -0.2493  0.4844 -0.4330
 2330TIP3    H128481   4.913   4.053  14.317 -0.0586  0.2992  1.3029
 2330TIP3    H228482   5.006   3.954  14.384 -1.4536 -2.1433 -0.2268
 2331TIP3   OH228483   3.620   3.783  11.267 -0.2021  0.1852 -0.0465
 2331TIP3    H128484   3.608   3.872  11.234  2.8214  0.3613 -0.9436
 2331TIP3    H228485   3.715   3.774  11.281 -0.3412 -2.9900 -0.2833
 2332TIP3   OH228486   1.131   1.356  15.461 -0.2176 -0.0077  0.5251
 2332TIP3    H128487   1.166   1.299  15.393  1.6183  0.5391  0.9608
 2332TIP3    H228488   1.111   1.438  15.416 -1.7971 -0.5646  0.1225
 2333TIP3   OH228489   5.068   3.208  11.395  0.0473  0.3172  0.1725
 2333TIP3    H128490   5.004   3.278  11.381 -0.4663  0.0121  0.9676
 2333TIP3    H228491   5.019   3.127  11.383  0.6175  0.0707 -0.6473
 2334TIP3   OH228492   0.236   0.192   1.092  0.1908  1.1941  0.2432
 2334TIP3    H128493   0.314   0.231   1.132  0.6736 -1.2311  1.8982
 2334TIP3    H228494   0.177   0.266   1.076  2.0965  2.8784  0.6159
 2335TIP3   OH228495   0.721   4.518  15.671  0.3462 -0.0299 -0.8633
 2335TIP3    H128496   0.794   4.477  15.718 -0.3060 -0.1507  0.0822
 2335TIP3    H228497   0.755   4.603  15.644  0.3088  0.7157  1.1873
 2336TIP3   OH228498   5.321   2.200  10.844 -0.3517 -0.0464 -0.4059
 2336TIP3    H128499   5.316   2.289  10.808  0.4991 -0.3671 -1.3639
 2336TIP3    H228500   5.319   2.143  10.767  0.9327 -0.7784  0.0734
 2337TIP3   OH228501   6.438   5.872   6.379  0.2827 -0.9866  0.0793
 2337TIP3    H128502   6.524   5.874   6.336 -0.6683 -2.2377 -2.0281
 2337TIP3    H228503   6.427   5.782   6.407  0.3918 -0.4327  2.1054
 2338TIP3   OH228504   4.987   3.519  14.917 -0.4798 -0.0094  0.1645
 2338TIP3    H128505   4.994   3.472  14.834 -0.1894 -1.6318  1.0613
 2338TIP3    H228506   4.996   3.612  14.893 -0.4782 -0.4250 -1.6028
 2339TIP3   OH228507   4.034   3.788  16.375 -0.0321  0.4330 -0.4598
 2339TIP3    H128508   4.114   3.820  16.333 -0.0668 -0.1508 -0.9843
 2339TIP3    H228509   4.017   3.704  16.333 -1.3808  0.9224 -0.9611
 2340TIP3   OH228510   5.967   2.021   1.670 -0.9392 -0.5721 -0.7229
 2340TIP3    H128511   6.011   2.040   1.587 -0.6202  0.5809 -0.3080
 2340TIP3    H228512   5.971   1.926   1.678  0.0742 -0.6060 -1.4521
 2341TIP3   OH228513   2.728   5.884   5.090  0.0504  0.3124 -0.0575
 2341TIP3    H128514   2.633   5.874   5.096 -0.3623  2.6221 -1.4504
 2341TIP3    H228515   2.744   5.911   4.999  1.9884  0.4381  0.2653
 2342TIP3   OH228516   1.719   5.347  10.954 -0.4354  0.3533 -0.3797
 2342TIP3    H128517   1.691   5.363  10.863 -0.9905  0.2708 -0.2259
 2342TIP3    H228518   1.655   5.393  11.007 -0.0464  0.4895 -0.0276
 2343TIP3   OH228519   4.938   0.307   3.450  0.5094  0.0225  0.4652
 2343TIP3    H128520   4.991   0.295   3.372  1.6502  0.4548  1.1549
 2343TIP3    H228521   4.847   0.301   3.419  0.9443  0.2214 -0.8836
 2344TIP3   OH228522   3.367   5.854  14.105  0.1089  0.0664  0.3608
 2344TIP3    H128523   3.340   5.821  14.190  1.3370 -1.1684  0.3000
 2344TIP3    H228524   3.373   5.777  14.049  1.7529  0.5211 -0.1609
 2345TIP3   OH228525   5.243   3.650   4.620  0.8218 -0.0284  0.1960
 2345TIP3    H128526   5.307   3.634   4.551 -1.3126 -1.1475 -1.6494
 2345TIP3    H228527   5.186   3.719   4.585  0.1971 -0.0189  1.1851
 2346TIP3   OH228528   4.596   5.881  15.654  0.3277  0.1294 -0.2575
 2346TIP3    H128529   4.663   5.836  15.604  0.0795  2.1735 -2.6317
 2346TIP3    H228530   4.644   5.945  15.707  0.3863  0.5982 -0.8599
 2347TIP3   OH228531   4.166   4.828  15.126  0.3847 -0.1687 -0.0057
 2347TIP3    H128532   4.081   4.871  15.121  1.1086  1.2227 -1.1557
 2347TIP3    H228533   4.205   4.862  15.206  0.1025 -0.3515  0.2117
 2348TIP3   OH228534   3.468   2.463   5.270 -0.2434  0.3218  0.2692
 2348TIP3    H128535   3.515   2.380   5.276 -0.1754  0.2611 -0.8089
 2348TIP3    H228536   3.523   2.526   5.316  0.2504 -0.0097  0.1322
 2349TIP3   OH228537   4.862   2.672  16.587 -0.0604  0.0853 -0.7829
 2349TIP3    H128538   4.891   2.582  16.568  0.8274 -0.0079  0.7838
 2349TIP3    H228539   4.912   2.696  16.665 -0.6923  1.7584 -0.8677
 2350TIP3   OH228540   1.359   1.714   6.286 -0.4211 -0.2014 -0.6318
 2350TIP3    H128541   1.452   1.691   6.282 -0.6925 -1.2700 -1.1053
 2350TIP3    H228542   1.357   1.808   6.271  0.5758 -0.1988 -0.7864
 2351TIP3   OH228543   6.063   3.658   2.114  0.1168 -0.2547 -0.0371
 2351TIP3    H128544   6.060   3.670   2.209 -1.7370 -1.1779  0.0620
 2351TIP3    H228545   6.070   3.747   2.079  0.1178  0.1420  0.9534
 2352TIP3   OH228546   0.515   6.356   0.622 -0.1781  0.2536  0.3558
 2352TIP3    H128547   0.554   6.344   0.709 -1.7095  0.3975  1.0873
 2352TIP3    H228548   0.448   6.288   0.616 -0.2904  0.4357 -0.6012
 2353TIP3   OH228549   6.072   2.054   3.657  0.3556 -0.0613  0.8968
 2353TIP3    H128550   6.073   2.129   3.717  1.5157  1.1009 -0.5105
 2353TIP3    H228551   6.150   2.003   3.681  1.1266  0.6961  0.0513
 2354TIP3   OH228552   6.510   2.335  16.673  0.2213 -0.2181  0.0292
 2354TIP3    H128553   6.530   2.422  16.639  0.6995 -0.3311  0.0268
 2354TIP3    H228554   6.551   2.275  16.612  0.4194 -0.4363  0.3765
 2355TIP3   OH228555   2.549   0.226  15.320  0.2126 -0.3174 -0.1733
 2355TIP3    H128556   2.550   0.136  15.288  2.6931 -0.9581  1.3965
 2355TIP3    H228557   2.617   0.271  15.269  0.3107  0.1432  0.3503
 2356TIP3   OH228558   3.231   6.516   3.694 -0.1571  0.1154 -0.4640
 2356TIP3    H128559   3.294   6.458   3.652  0.9954  0.1092  1.1782
 2356TIP3    H228560   3.246   6.602   3.653  1.1067  0.1626  0.0631
 2357TIP3   OH228561   0.772   6.538  13.206 -0.1021 -0.2103 -0.3567
 2357TIP3    H128562   0.766   6.622  13.160 -0.6131  0.7109  1.3112
 2357TIP3    H228563   0.683   6.522  13.237  0.3541 -0.4283  0.8944
 2358TIP3   OH228564   1.407   6.603   5.024  0.1409 -0.5592  0.5081
 2358TIP3    H128565   1.376   6.664   4.957 -0.3364 -1.6822 -0.3149
 2358TIP3    H228566   1.480   6.649   5.066  1.4707 -0.4290 -1.8084
 2359TIP3   OH228567   6.014   4.029  11.386 -1.0170 -0.1222 -0.4378
 2359TIP3    H128568   6.069   4.081  11.328 -0.2868 -0.3243  0.0454
 2359TIP3    H228569   6.016   4.077  11.469 -2.5774  0.5138 -0.7298
 2360TIP3   OH228570   2.150   3.599  13.275  0.2263  0.1733  0.1205
 2360TIP3    H128571   2.222   3.640  13.226  0.3306  0.6968  0.7115
 2360TIP3    H228572   2.185   3.585  13.363 -0.2384 -0.0157  0.2794
 2361TIP3   OH228573   0.440   3.177   6.070 -0.4558  0.3145 -0.3290
 2361TIP3    H128574   0.490   3.150   5.994 -0.5949  1.0738 -0.7015
 2361TIP3    H228575   0.448   3.104   6.132 -1.0687 -0.6931 -1.3956
 2362TIP3   OH228576   1.148   6.610  11.331  0.6385  0.2418  0.0491
 2362TIP3    H128577   1.101   6.587  11.252 -1.0781  1.0046  0.8068
 2362TIP3    H228578   1.080   6.628  11.396  1.9726  1.1982  1.2541
 2363TIP3   OH228579   1.026   3.368  15.678 -0.3311  0.0949  0.0183
 2363TIP3    H128580   1.099   3.358  15.739  0.4269 -2.1171 -1.1427
 2363TIP3    H228581   1.068   3.382  15.593 -1.2870  0.0914 -0.4656
 2364TIP3   OH228582   2.566   6.306  11.569 -0.1320 -0.6085  0.3517
 2364TIP3    H128583   2.564   6.239  11.637  0.2876  0.9172  1.9471
 2364TIP3    H228584   2.490   6.288  11.515 -2.1026 -0.3252  2.8461
 2365TIP3   OH228585   6.001   0.644   5.502 -0.1999 -0.5713 -0.0094
 2365TIP3    H128586   5.928   0.653   5.441 -0.9260 -0.3777  0.8678
 2365TIP3    H228587   5.973   0.576   5.564  0.0561 -0.0015  0.7504
 2366TIP3   OH228588   4.473   6.494   5.237 -0.2484 -0.7327 -0.3839
 2366TIP3    H128589   4.488   6.491   5.143 -1.6173 -0.1914 -0.6444
 2366TIP3    H228590   4.378   6.500   5.246 -0.0582  1.0707  0.9691
 2367TIP3   OH228591   3.748   2.990  17.117 -0.1137  0.0047  0.1608
 2367TIP3    H128592   3.716   2.901  17.131 -1.7842  0.7344  1.1881
 2367TIP3    H228593   3.717   3.013  17.029 -0.3643 -0.1328  0.2148
 2368TIP3   OH228594   1.796   0.790   6.207 -0.2959 -0.0305  0.2051
 2368TIP3    H128595   1.856   0.717   6.224 -1.2713 -0.7996  0.4339
 2368TIP3    H228596   1.800   0.843   6.287  0.2999  0.0805  0.1020
 2369TIP3   OH228597   1.487   2.080   0.389 -0.3842  0.0347 -0.0134
 2369TIP3    H128598   1.405   2.052   0.430 -0.0314 -0.4323  0.3900
 2369TIP3    H228599   1.460   2.139   0.318 -1.0276  0.3782  0.5119
 2370TIP3   OH228600   0.558   6.522  12.344 -0.2270  0.0493  0.1563
 2370TIP3    H128601   0.540   6.611  12.373 -0.1844  0.2190 -0.3234
 2370TIP3    H228602   0.547   6.525  12.249 -1.0692 -0.6600  0.2189
 2371TIP3   OH228603   4.289   4.208  14.881 -0.0443  0.2417 -0.5015
 2371TIP3    H128604   4.238   4.133  14.912  0.8623 -0.1197  0.1660
 2371TIP3    H228605   4.364   4.213  14.941 -0.2601  1.9005 -0.3266
 2372TIP3   OH228606   5.374   1.646   6.032  0.3708  0.0212  0.7112
 2372TIP3    H128607   5.322   1.725   6.015 -2.0049 -1.5608  0.1698
 2372TIP3    H228608   5.430   1.670   6.106  0.6121  2.5653 -0.1992
 2373TIP3   OH228609   3.214   4.086   1.535 -0.3485 -0.0956  0.0357
 2373TIP3    H128610   3.158   4.126   1.468 -0.1675  0.4467  0.2007
 2373TIP3    H228611   3.204   3.992   1.521 -0.8658  0.0011 -0.2960
 2374TIP3   OH228612   2.156   0.811   0.384  0.2582 -0.1427 -0.7037
 2374TIP3    H128613   2.201   0.772   0.458 -0.4736 -1.0734 -0.7322
 2374TIP3    H228614   2.064   0.815   0.411 -0.0416 -0.6201 -1.5937
 2375TIP3   OH228615   4.134   4.648   4.282 -0.1967  0.4980  0.4438
 2375TIP3    H128616   4.180   4.732   4.282  3.6601 -1.3943 -0.4217
 2375TIP3    H228617   4.079   4.651   4.204  3.6170  0.6110 -2.5333
 2376TIP3   OH228618   6.455   0.063  14.154  0.0085  0.0524  0.2854
 2376TIP3    H128619   6.434   0.055  14.061  0.0049 -0.9785  0.3633
 2376TIP3    H228620   6.459   0.157  14.170 -0.5142  0.2412 -0.6404
 2377TIP3   OH228621   1.137   3.833  12.197 -0.4759 -0.3133 -0.0768
 2377TIP3    H128622   1.181   3.880  12.268  0.4800 -1.0414 -0.1681
 2377TIP3    H228623   1.093   3.902  12.146  1.4611  0.5890 -0.6190
 2378TIP3   OH228624   0.172   3.702   1.171  0.4172 -0.3080 -0.1008
 2378TIP3    H128625   0.180   3.774   1.234 -2.7814  0.8713 -0.8397
 2378TIP3    H228626   0.184   3.744   1.085 -0.4354 -0.8212 -0.4871
 2379TIP3   OH228627   1.316   0.495  13.747  0.2234 -0.4229  0.6705
 2379TIP3    H128628   1.319   0.455  13.834 -0.3230 -1.1161  0.3803
 2379TIP3    H228629   1.246   0.448  13.701 -0.8271  1.2283  0.4911
 2380TIP3   OH228630   3.560   1.389  12.644  0.2748 -0.1005  0.2940
 2380TIP3    H128631   3.570   1.381  12.739  0.1487  0.2494  0.3378
 2380TIP3    H228632   3.517   1.473  12.632 -0.7329 -0.6432 -0.0079
 2381TIP3   OH228633   5.724   6.167  12.105 -0.3831  0.3249  0.6436
 2381TIP3    H128634   5.659   6.209  12.161  0.0414  0.0726  1.3345
 2381TIP3    H228635   5.678   6.153  12.022 -0.4132  2.5062  0.2450
 2382TIP3   OH228636   3.221   0.198  11.747 -0.2320  0.2140  0.2094
 2382TIP3    H128637   3.176   0.233  11.671  1.7576 -2.5243 -2.4575
 2382TIP3    H228638   3.236   0.106  11.727  2.6301 -0.0611  2.7875
 2383TIP3   OH228639   6.423   0.033  12.609  0.0871  0.1677 -0.4338
 2383TIP3    H128640   6.506  -0.001  12.576  0.6618  2.3162 -1.3668
 2383TIP3    H228641   6.358  -0.034  12.585  1.4737 -1.3820  0.0152
 2384TIP3   OH228642   4.301   5.708  10.845 -0.0364  0.6656  0.5153
 2384TIP3    H128643   4.332   5.662  10.767 -2.9210  1.1197 -1.0677
 2384TIP3    H228644   4.248   5.643  10.892 -1.7998  1.4917 -0.2376
 2385TIP3   OH228645   0.365   6.399   3.348  0.0344 -0.0212  0.0020
 2385TIP3    H128646   0.392   6.372   3.436  0.8966  0.9052  0.0459
 2385TIP3    H228647   0.360   6.318   3.297  0.1743 -0.4925  0.7315
 2386TIP3   OH228648   1.800   6.257  16.663  0.1585  0.2308  0.4951
 2386TIP3    H128649   1.887   6.265  16.624  1.5285 -1.4965  2.9177
 2386TIP3    H228650   1.791   6.337  16.715  0.3987  0.3031  0.4299
 2387TIP3   OH228651   6.186   1.765   3.327 -0.3999  0.3180  0.2870
 2387TIP3    H128652   6.131   1.835   3.361 -0.7444  1.7637 -2.8393
 2387TIP3    H228653   6.273   1.805   3.316  0.3956 -0.8845  1.8336
 2388TIP3   OH228654   4.162   6.533   1.312  1.0087  0.4526  0.1032
 2388TIP3    H128655   4.193   6.531   1.222  2.7784 -2.2897  0.6183
 2388TIP3    H228656   4.096   6.463   1.316  1.6347 -0.1142  1.0808
 2389TIP3   OH228657   6.472   0.813  14.590  0.3472 -0.0087 -0.6750
 2389TIP3    H128658   6.466   0.896  14.637 -0.3710 -0.2141 -0.3873
 2389TIP3    H228659   6.557   0.777  14.617  0.4548  0.4084 -0.4398
 2390TIP3   OH228660   2.786   5.348  11.429 -0.4761  0.1590 -0.5370
 2390TIP3    H128661   2.785   5.429  11.379  0.0019  0.6250  0.1975
 2390TIP3    H228662   2.865   5.303  11.400  0.2902  0.8513  0.4572
 2391TIP3   OH228663   6.156   0.217  10.694 -0.0939 -0.1580  0.2363
 2391TIP3    H128664   6.212   0.145  10.721 -0.2767  0.3534  2.1074
 2391TIP3    H228665   6.077   0.174  10.659 -0.6486 -0.9318  2.2821
 2392TIP3   OH228666   4.401   3.106   4.346  0.4923 -0.3171 -0.4523
 2392TIP3    H128667   4.419   3.053   4.423  1.9576 -0.5813 -0.9367
 2392TIP3    H228668   4.484   3.106   4.297  0.0611  1.1269 -1.2437
 2393TIP3   OH228669   4.303   2.422  16.902  0.4182 -0.5213 -0.2554
 2393TIP3    H128670   4.233   2.398  16.963  1.3394  0.6358  1.3677
 2393TIP3    H228671   4.382   2.385  16.942  0.8008 -1.4160 -1.8061
 2394TIP3   OH228672   4.617   5.686  12.325 -0.5924  0.3482 -0.1127
 2394TIP3    H128673   4.591   5.667  12.235 -0.7009 -0.2984  0.0484
 2394TIP3    H228674   4.543   5.656  12.378 -0.1701 -0.0898  0.2439
 2395TIP3   OH228675   1.627   6.766  12.933 -0.3121  0.2563  0.1003
 2395TIP3    H128676   1.553   6.781  12.875  0.5108  2.1863 -0.5394
 2395TIP3    H228677   1.623   6.673  12.954 -2.8035  0.2885 -0.0182
 2396TIP3   OH228678   3.132   3.362  16.598  0.1211 -0.7456  0.5062
 2396TIP3    H128679   3.124   3.268  16.612 -0.4819 -0.9657 -1.0942
 2396TIP3    H228680   3.045   3.390  16.570  0.9889 -0.3422 -2.1592
 2397TIP3   OH228681   6.572   6.281  13.944  0.1150 -0.6132  0.3225
 2397TIP3    H128682   6.560   6.240  13.858 -2.6485  0.1168  0.2657
 2397TIP3    H228683   6.592   6.372  13.924 -0.6603 -0.4134  0.4386
 2398TIP3   OH228684   1.808   5.153  15.641 -0.0936 -0.3214  0.1638
 2398TIP3    H128685   1.778   5.181  15.727 -0.4239  1.8729 -0.6036
 2398TIP3    H228686   1.892   5.110  15.658  0.3306  0.9606  1.4925
 2399TIP3   OH228687   1.187   6.499  12.082  0.0665 -0.3583 -0.3475
 2399TIP3    H128688   1.251   6.560  12.046  0.3854  0.1730  1.0788
 2399TIP3    H228689   1.239   6.430  12.123 -0.2462 -0.0147  0.6685
 2400TIP3   OH228690   0.933   5.679   5.221  0.0614  0.4678  0.1092
 2400TIP3    H128691   0.908   5.640   5.137 -0.9291 -0.0534  0.6201
 2400TIP3    H228692   1.009   5.733   5.201 -0.6652  1.0358 -1.2998
 2401TIP3   OH228693   5.189   1.813  16.949  0.9742 -0.3260  0.3428
 2401TIP3    H128694   5.200   1.818  17.044  0.5564 -0.4088  0.3994
 2401TIP3    H228695   5.107   1.765  16.937 -0.2147  1.6677  0.0051
 2402TIP3   OH228696   1.836   6.672  16.076 -0.0037  0.2155  0.4461
 2402TIP3    H128697   1.908   6.611  16.058 -0.6282 -0.1279 -1.0285
 2402TIP3    H228698   1.793   6.636  16.154 -0.7881 -1.6618 -0.7897
 2403TIP3   OH228699   1.801   4.918   4.603  0.0448  0.0773  0.1222
 2403TIP3    H128700   1.784   4.892   4.694  1.5811 -1.7053 -0.0430
 2403TIP3    H228701   1.758   5.004   4.594 -0.8827 -0.1016  2.2500
 2404TIP3   OH228702   1.694   5.404   5.256 -0.1907 -0.4428 -0.3665
 2404TIP3    H128703   1.769   5.353   5.285 -0.0761 -1.2630 -1.9670
 2404TIP3    H228704   1.618   5.355   5.288 -0.0612 -0.2245  0.2852
 2405TIP3   OH228705   0.661   4.184  12.300 -0.5084  0.2482  0.5963
 2405TIP3    H128706   0.743   4.136  12.311 -0.0772  0.4491 -1.3842
 2405TIP3    H228707   0.637   4.212  12.388 -0.2192 -2.6510  1.7080
 2406TIP3   OH228708   3.391   3.974   0.648  0.5973  0.0992 -0.3903
 2406TIP3    H128709   3.317   3.923   0.681  0.8985 -0.1476 -0.0822
 2406TIP3    H228710   3.383   3.970   0.553  1.0238 -1.1438 -0.3922
 2407TIP3   OH228711   0.787   0.120   2.139  0.1176  0.0470 -0.3647
 2407TIP3    H128712   0.784   0.035   2.183 -2.0630  0.7878  1.0582
 2407TIP3    H228713   0.854   0.169   2.186 -0.1673 -0.1473  0.2494
 2408TIP3   OH228714   1.792   1.234  12.887 -0.2049  0.2305  0.1471
 2408TIP3    H128715   1.788   1.202  12.977 -0.9441 -0.3296 -0.0707
 2408TIP3    H228716   1.770   1.327  12.893  0.7294  0.4308  0.6508
 2409TIP3   OH228717   0.332   0.499   1.144 -0.0876  0.1467 -0.3955
 2409TIP3    H128718   0.306   0.553   1.219 -0.6788 -0.6429 -0.0218
 2409TIP3    H228719   0.389   0.432   1.182 -0.3166 -0.1998 -0.6564
 2410TIP3   OH228720   3.234   6.497  12.530 -0.1591 -0.2872  0.5458
 2410TIP3    H128721   3.256   6.411  12.565 -2.4502 -0.9622  0.5111
 2410TIP3    H228722   3.221   6.552  12.607  2.6885  0.4998  0.5670
 2411TIP3   OH228723   1.200   5.311  13.930 -0.0074 -0.0737 -0.4307
 2411TIP3    H128724   1.179   5.354  13.848 -2.8698 -0.5407 -0.0483
 2411TIP3    H228725   1.295   5.309  13.933  0.1708  0.8850 -3.2151
 2412TIP3   OH228726   1.276   2.812   1.846  0.0731 -0.6263  0.4605
 2412TIP3    H128727   1.190   2.793   1.883 -1.0920  0.8119 -1.3313
 2412TIP3    H228728   1.316   2.726   1.833 -0.2118 -1.2729  3.1182
 2413TIP3   OH228729   0.999   4.746   2.058 -0.1047  0.2187 -0.0248
 2413TIP3    H128730   0.981   4.839   2.054  1.5732  0.5439 -1.0483
 2413TIP3    H228731   0.937   4.707   1.997 -0.5215  0.7165  0.0783
 2414TIP3   OH228732   2.287   4.941   0.539 -0.0455 -0.6111  0.2877
 2414TIP3    H128733   2.257   4.943   0.630 -3.8797 -1.1523 -0.8133
 2414TIP3    H228734   2.332   4.857   0.530  1.1311 -0.1833  1.8279
 2415TIP3   OH228735   2.377   2.937   3.954  0.1242 -0.4060 -0.2627
 2415TIP3    H128736   2.360   2.975   4.040  1.0178  1.4304 -0.8361
 2415TIP3    H228737   2.354   2.844   3.963 -0.0343 -0.2021  1.8579
 2416TIP3   OH228738   3.381   1.660   1.409  0.1818 -0.1586 -0.0057
 2416TIP3    H128739   3.304   1.716   1.415 -0.3928 -0.7122 -1.5758
 2416TIP3    H228740   3.453   1.714   1.442 -0.6449  0.8805  0.1560
 2417TIP3   OH228741   3.567   2.953   4.591  0.2985  0.4547 -0.4423
 2417TIP3    H128742   3.500   3.003   4.546  0.5535  0.6235 -0.6372
 2417TIP3    H228743   3.523   2.874   4.620  0.0371  0.5275 -0.6405
 2418TIP3   OH228744   3.686   3.755   1.964 -0.3261 -0.0559 -0.0058
 2418TIP3    H128745   3.655   3.670   1.996 -1.5235  0.4573  0.2723
 2418TIP3    H228746   3.757   3.778   2.024 -1.0655 -0.1309  0.9278
 2419TIP3   OH228747   4.662   4.517  11.758 -0.2115  0.2764 -0.4297
 2419TIP3    H128748   4.704   4.467  11.688  0.7405 -0.2622  0.5000
 2419TIP3    H228749   4.688   4.607  11.742  0.6817  0.0495 -0.3145
 2420TIP3   OH228750   3.139   2.511  12.959  0.0215  0.7388  0.3349
 2420TIP3    H128751   3.153   2.450  12.887 -0.5546  0.4239  0.4793
 2420TIP3    H228752   3.047   2.537  12.951  0.0312  0.9299  0.7807
 2421TIP3   OH228753   5.378   0.178  14.881 -0.0500  0.0009 -0.2909
 2421TIP3    H128754   5.308   0.186  14.815  0.2387 -0.7777 -0.7023
 2421TIP3    H228755   5.415   0.091  14.866  0.6016  0.1650  0.3336
 2422TIP3   OH228756   0.866   1.358  14.588 -0.4068  0.1924  0.2467
 2422TIP3    H128757   0.918   1.409  14.526  1.5792  0.1064  1.7386
 2422TIP3    H228758   0.865   1.270  14.552 -1.4228  0.6486 -0.9017
 2423TIP3   OH228759   5.769   6.007   6.528 -0.5476 -0.4999  0.0275
 2423TIP3    H128760   5.819   6.068   6.583  0.1331 -0.5175 -0.5561
 2423TIP3    H228761   5.733   6.062   6.458 -0.9420 -0.5683  0.1772
 2424TIP3   OH228762   6.739   1.147  11.124  0.3535 -0.0278 -0.1468
 2424TIP3    H128763   6.757   1.205  11.050  3.2389  0.5928  0.9059
 2424TIP3    H228764   6.690   1.075  11.087 -0.2628  1.3708 -2.2010
 2425TIP3   OH228765   6.150   0.848  11.035 -0.3722 -0.4383 -0.3760
 2425TIP3    H128766   6.218   0.908  11.005  0.1027 -1.0167 -0.4733
 2425TIP3    H228767   6.096   0.834  10.957 -2.6875  2.6835  0.4810
 2426TIP3   OH228768   1.639   6.581  15.568 -0.3498  0.4891 -0.5878
 2426TIP3    H128769   1.715   6.627  15.533 -0.1725  1.0140  0.4729
 2426TIP3    H228770   1.675   6.515  15.627 -0.6642 -0.2022 -1.1518
 2427TIP3   OH228771   4.577   6.386   2.785 -0.1558 -0.1974 -0.0524
 2427TIP3    H128772   4.656   6.406   2.836  0.5467  0.9285 -1.5340
 2427TIP3    H228773   4.564   6.292   2.799  1.2503 -0.3426  0.4895
 2428TIP3   OH228774   6.147   1.417   4.654  0.2057 -0.0010  0.4239
 2428TIP3    H128775   6.209   1.366   4.601  0.7220  1.5552 -0.5320
 2428TIP3    H228776   6.072   1.432   4.596  0.9890  2.1499 -0.1221
 2429TIP3   OH228777   4.226   5.933   0.354  0.3912 -0.1237 -0.3460
 2429TIP3    H128778   4.148   5.891   0.316  0.8189  0.1812 -1.6211
 2429TIP3    H228779   4.250   6.001   0.290  0.0189  1.7604  1.3908
 2430TIP3   OH228780   6.762   2.981   5.746  0.2759 -0.1585 -0.0348
 2430TIP3    H128781   6.718   2.905   5.709  2.2968 -1.8715  0.8848
 2430TIP3    H228782   6.820   3.012   5.676 -0.0350  0.1225 -0.1723
 2431TIP3   OH228783   6.000   5.120   5.858 -0.0518  0.0588 -0.0280
 2431TIP3    H128784   6.080   5.125   5.910  0.1877 -2.7878  0.0241
 2431TIP3    H228785   5.931   5.104   5.921 -0.3727  0.5617 -0.2473
 2432TIP3   OH228786   3.499   3.674   4.877  0.4811  0.2851 -0.0713
 2432TIP3    H128787   3.580   3.667   4.928  0.8682  1.0419 -0.5658
 2432TIP3    H228788   3.442   3.606   4.914  2.0399 -1.6751 -1.0431
 2433TIP3   OH228789   0.238   1.048  16.005  0.8446  0.4122  0.0020
 2433TIP3    H128790   0.178   1.015  16.072  0.3138  1.4258  0.0446
 2433TIP3    H228791   0.181   1.088  15.940  1.4008  0.0801 -0.7000
 2434TIP3   OH228792   4.840   5.131   4.729 -0.1733  0.5158  0.3258
 2434TIP3    H128793   4.745   5.133   4.739 -0.1215  1.0849  0.7830
 2434TIP3    H228794   4.867   5.222   4.743  0.3131  0.6184 -1.0613
 2435TIP3   OH228795   0.988   5.859  15.997 -0.2502  0.1495 -0.2588
 2435TIP3    H128796   0.997   5.848  15.902  1.7865  0.0511 -0.0858
 2435TIP3    H228797   0.893   5.854  16.012 -0.5073 -2.5947 -1.9735
 2436TIP3   OH228798   2.393   0.545  15.681 -0.1199  0.4856  0.4130
 2436TIP3    H128799   2.352   0.623  15.719 -0.6561 -0.6544  2.2687
 2436TIP3    H228800   2.484   0.549  15.711 -0.1308  0.4347  0.4523
 2437TIP3   OH228801   6.563   1.622   1.088 -0.5612  0.0621 -0.2923
 2437TIP3    H128802   6.596   1.533   1.077 -1.2076 -0.1682 -0.4212
 2437TIP3    H228803   6.603   1.653   1.169 -0.0519 -0.2144 -0.4354
 2438TIP3   OH228804   2.655   3.744  15.473 -0.1210 -0.4395 -0.4772
 2438TIP3    H128805   2.670   3.838  15.469 -1.4831 -0.2190 -0.8487
 2438TIP3    H228806   2.734   3.705  15.435  0.6067  0.5233  0.0126
 2439TIP3   OH228807   2.300   0.564   0.026  0.3470  0.1784 -0.2166
 2439TIP3    H128808   2.282   0.655   0.049  0.1839  0.3843 -1.1163
 2439TIP3    H228809   2.222   0.516   0.056 -0.5966  0.6793 -1.7559
 2440TIP3   OH228810   6.277   2.137  11.474 -0.1040  0.4614 -0.1008
 2440TIP3    H128811   6.251   2.189  11.398 -2.3203  0.2872  0.4557
 2440TIP3    H228812   6.195   2.125  11.523  0.6661 -2.0465  0.6933
 2441TIP3   OH228813   2.202   6.421  14.330 -0.4063  0.5589  0.2327
 2441TIP3    H128814   2.285   6.403  14.374  0.5855  0.0902 -1.7192
 2441TIP3    H228815   2.192   6.516  14.335 -0.5966  0.4889  1.8581
 2442TIP3   OH228816   3.580   0.424  16.064  0.0779 -0.0310  0.1812
 2442TIP3    H128817   3.570   0.333  16.090 -1.9041  0.4151  1.1845
 2442TIP3    H228818   3.504   0.469  16.103  0.9161  2.0164 -0.3966
 2443TIP3   OH228819   0.346   1.518   4.375 -0.3831 -0.1223 -0.0113
 2443TIP3    H128820   0.377   1.604   4.348 -1.6259  0.2886 -0.2001
 2443TIP3    H228821   0.281   1.536   4.443 -1.3249 -0.8568 -0.6865
 2444TIP3   OH228822   4.231   5.282  15.106  0.0740  0.1579 -0.1068
 2444TIP3    H128823   4.306   5.227  15.128 -0.9102 -1.4416 -0.5691
 2444TIP3    H228824   4.160   5.250  15.161 -1.1936 -0.8133 -2.1740
 2445TIP3   OH228825   4.742   2.001   4.944  0.0615 -0.6728  0.4365
 2445TIP3    H128826   4.650   2.008   4.919 -0.0898  0.2412  1.1947
 2445TIP3    H228827   4.774   2.091   4.946  1.0404 -0.9934 -0.0422
 2446TIP3   OH228828   2.145   0.547   3.469 -0.3492 -0.1486  0.0289
 2446TIP3    H128829   2.154   0.642   3.470 -2.4294  0.1910  3.8913
 2446TIP3    H228830   2.057   0.531   3.434 -0.5156 -0.5306  0.6032
 2447TIP3   OH228831   0.659   3.988   4.507 -0.2908  0.1415  0.1480
 2447TIP3    H128832   0.751   3.979   4.531 -0.3032 -0.4718 -0.0111
 2447TIP3    H228833   0.659   4.048   4.432  0.0500 -0.3708 -0.2679
 2448TIP3   OH228834   0.622   5.407   2.529 -0.2336  0.3982 -0.3368
 2448TIP3    H128835   0.668   5.367   2.602 -0.6458 -0.1504 -0.3711
 2448TIP3    H228836   0.664   5.370   2.451  1.3964  2.3204 -0.4276
 2449TIP3   OH228837   3.672   4.915   2.572  0.0198 -0.2006 -0.3951
 2449TIP3    H128838   3.734   4.848   2.545  0.9230 -0.0278  1.1273
 2449TIP3    H228839   3.627   4.877   2.647 -2.5470 -0.7412 -2.0635
 2450TIP3   OH228840   2.708   4.918  12.328 -0.5838 -0.4101  0.0793
 2450TIP3    H128841   2.652   4.995  12.335 -0.1837  0.0212 -1.1737
 2450TIP3    H228842   2.704   4.877  12.414  1.3146  2.4693  1.6849
 2451TIP3   OH228843   4.711   0.731   4.967 -0.6418 -0.3071  0.3696
 2451TIP3    H128844   4.778   0.720   4.900 -1.7956  1.5254 -1.1563
 2451TIP3    H228845   4.666   0.646   4.970  0.2240 -0.8035 -0.2585
 2452TIP3   OH228846   0.937   2.667   2.773  0.4386  0.1792  0.5123
 2452TIP3    H128847   1.030   2.686   2.758  0.7678 -1.5467  0.1541
 2452TIP3    H228848   0.936   2.607   2.847 -0.4756  0.7231  0.9674
 2453TIP3   OH228849   6.313   0.287  16.420 -0.5700 -0.0985  0.6294
 2453TIP3    H128850   6.221   0.263  16.413 -0.6457  0.4149 -0.2823
 2453TIP3    H228851   6.354   0.250  16.341  0.1107 -0.7473  1.2626
 2454TIP3   OH228852   5.115   2.526  11.804  0.1423  0.2184  0.0580
 2454TIP3    H128853   5.190   2.474  11.774  0.6037  1.3611 -0.8542
 2454TIP3    H228854   5.069   2.469  11.865 -0.1000 -1.7460 -1.8297
 2455TIP3   OH228855   2.884   1.452  12.410 -0.2966  0.8598 -0.2128
 2455TIP3    H128856   2.856   1.365  12.438  1.5297 -0.2576 -1.6067
 2455TIP3    H228857   2.957   1.474  12.468  1.1192  0.1228 -1.6160
 2456TIP3   OH228858   5.594   2.356   2.103  0.2342 -0.0689 -0.3734
 2456TIP3    H128859   5.547   2.365   2.186 -0.8790 -1.7074 -0.7747
 2456TIP3    H228860   5.609   2.446   2.074 -1.5786  0.5334  0.3895
 2457TIP3   OH228861   3.615   1.394   2.125  0.9016 -0.4566  0.2246
 2457TIP3    H128862   3.531   1.437   2.140  0.9243 -0.7685  1.3705
 2457TIP3    H228863   3.616   1.374   2.031 -0.3595 -0.5617  0.2129
 2458TIP3   OH228864   4.094   3.405   2.682 -0.6623 -0.0038 -0.3834
 2458TIP3    H128865   4.059   3.489   2.711 -1.3370  0.1772 -1.6357
 2458TIP3    H228866   4.175   3.428   2.636 -0.3362 -0.1468  0.1125
 2459TIP3   OH228867   6.327   1.825  13.693  0.5655  0.3482 -0.5723
 2459TIP3    H128868   6.421   1.807  13.686  0.7313 -0.0902  1.8056
 2459TIP3    H228869   6.316   1.912  13.654  2.0119  0.5216 -0.6521
 2460TIP3   OH228870   5.923   1.079  15.039 -0.0290 -0.0652 -0.0682
 2460TIP3    H128871   5.905   1.055  14.948 -0.3417 -1.2693  0.2926
 2460TIP3    H228872   5.847   1.047  15.087 -0.2921  1.3811  0.5091
 2461TIP3   OH228873   2.619   1.922   5.012  0.2389 -0.3937  0.1272
 2461TIP3    H128874   2.685   1.922   4.942  0.3863 -1.5047  0.2497
 2461TIP3    H228875   2.568   1.843   4.996 -0.1025 -0.3388  0.9378
 2462TIP3   OH228876   2.866   2.994  16.085 -0.2187 -0.4079  0.0333
 2462TIP3    H128877   2.892   2.947  16.164 -0.1085 -0.3142  0.0529
 2462TIP3    H228878   2.862   3.086  16.111 -0.3682 -0.3985 -0.0212
 2463TIP3   OH228879   6.560   6.725   6.086  0.3034 -0.3489  0.1345
 2463TIP3    H128880   6.496   6.704   6.018 -0.3898  0.7925  0.4114
 2463TIP3    H228881   6.567   6.644   6.138  0.4027 -1.0398 -0.9176
 2464TIP3   OH228882   6.697   5.081   3.391  0.0739 -0.4531  0.0566
 2464TIP3    H128883   6.698   5.049   3.301  1.2884 -1.2425  0.3299
 2464TIP3    H228884   6.711   5.175   3.383 -4.4018  0.3496 -0.8217
 2465TIP3   OH228885   0.010   0.917   2.999  0.4065 -0.1835 -0.1230
 2465TIP3    H128886  -0.064   0.978   3.000  1.6047  1.4707 -2.4437
 2465TIP3    H228887  -0.027   0.835   2.968 -0.8368  0.0033  0.8024
 2466TIP3   OH228888   5.279   3.390   4.732 -0.3218  0.4412 -0.2267
 2466TIP3    H128889   5.200   3.397   4.785  0.0876  1.3464  0.2957
 2466TIP3    H228890   5.279   3.470   4.679  0.9429  1.1724  0.8043
 2467TIP3   OH228891   2.248   6.229  15.433 -0.1720 -0.5774 -0.2495
 2467TIP3    H128892   2.213   6.308  15.391 -1.7770 -1.5129 -0.7638
 2467TIP3    H228893   2.254   6.252  15.526 -1.0625  0.0141 -0.3193
 2468TIP3   OH228894   3.874   1.221  11.585 -0.0159  0.4189 -0.4284
 2468TIP3    H128895   3.812   1.294  11.586 -2.4894 -1.5138 -0.8861
 2468TIP3    H228896   3.920   1.227  11.668 -0.4146  2.2589 -0.2914
 2469TIP3   OH228897   0.355   4.764   6.411 -0.3326  0.0856 -0.1581
 2469TIP3    H128898   0.370   4.679   6.452 -3.0745 -0.7233 -0.5963
 2469TIP3    H228899   0.436   4.783   6.365  1.6241 -0.5876  2.7257
 2470TIP3   OH228900   5.504   6.526   5.061 -0.1049 -0.0300  0.0548
 2470TIP3    H128901   5.497   6.464   5.134  0.6950  1.2968  1.3032
 2470TIP3    H228902   5.492   6.472   4.983  0.2787 -1.7076  1.1050
 2471TIP3   OH228903   5.468   0.475  14.494  0.1056 -0.0221 -0.4174
 2471TIP3    H128904   5.478   0.566  14.467  3.6402 -0.0890  0.2398
 2471TIP3    H228905   5.502   0.424  14.420  1.7649 -0.5638  0.6534
 2472TIP3   OH228906   2.502   2.818  12.122  0.0791  0.2605 -0.3573
 2472TIP3    H128907   2.518   2.803  12.029 -0.0181 -1.4581 -0.1218
 2472TIP3    H228908   2.559   2.892  12.144  1.1064 -0.1651 -1.4874
 2473TIP3   OH228909   6.753   5.547   4.230 -0.3238  0.2210  0.3033
 2473TIP3    H128910   6.760   5.641   4.246  0.8563  0.6642 -2.3500
 2473TIP3    H228911   6.843   5.517   4.224 -0.6969 -1.0144  0.6026
 2474TIP3   OH228912   0.415   1.203   3.340  0.0166  0.0256  0.1332
 2474TIP3    H128913   0.345   1.258   3.304 -0.6473 -1.2593 -0.5885
 2474TIP3    H228914   0.494   1.255   3.329 -0.3575  0.2337 -1.9755
 2475TIP3   OH228915   0.004   4.154  12.642 -0.3041  0.9558  0.5827
 2475TIP3    H128916  -0.071   4.095  12.645  1.6895 -1.7948  1.3476
 2475TIP3    H228917   0.058   4.120  12.571  1.9624  0.3285  2.4473
 2476TIP3   OH228918   5.704   5.170  16.778 -0.3797  0.2448 -0.3870
 2476TIP3    H128919   5.730   5.078  16.769 -0.0056  0.3655 -0.5225
 2476TIP3    H228920   5.741   5.213  16.701  0.1541  0.6712  0.1112
 2477TIP3   OH228921   5.243   2.088  17.252 -0.1499  0.0872 -0.3359
 2477TIP3    H128922   5.159   2.046  17.271  0.2890 -0.1664  1.1593
 2477TIP3    H228923   5.286   2.096  17.337 -0.0936  3.3842 -0.5557
 2478TIP3   OH228924   1.091   0.245   1.397  0.2628 -0.0990 -0.1181
 2478TIP3    H128925   1.007   0.271   1.435 -0.0328  1.5972 -1.7735
 2478TIP3    H228926   1.067   0.188   1.324  0.6525 -0.7079  0.2193
 2479TIP3   OH228927   4.619   5.662  17.396 -0.0705  0.2639  0.8301
 2479TIP3    H128928   4.707   5.700  17.391 -0.1141  0.2219 -0.9719
 2479TIP3    H228929   4.568   5.711  17.331 -0.7447 -1.2557  0.1625
 2480TIP3   OH228930   4.717   2.044   3.808 -0.6913 -0.3750 -0.1561
 2480TIP3    H128931   4.791   2.103   3.820 -0.2961 -0.3764 -2.3295
 2480TIP3    H228932   4.644   2.101   3.785 -0.6411 -0.6063 -0.9101
 2481TIP3   OH228933   0.889   2.162   0.453 -0.6658  0.3214  0.4555
 2481TIP3    H128934   0.886   2.088   0.513 -1.3132  0.3393  0.4516
 2481TIP3    H228935   0.896   2.239   0.509  1.8560  0.2055  0.4366
 2482TIP3   OH228936   2.019   4.808   3.818  0.7169 -0.5475  0.3070
 2482TIP3    H128937   1.967   4.758   3.881 -1.0941 -1.4436 -1.7648
 2482TIP3    H228938   2.043   4.744   3.751  0.0091  0.9263 -1.4211
 2483TIP3   OH228939   2.902   6.073   4.874 -0.6221  0.3203  0.0092
 2483TIP3    H128940   2.947   6.144   4.919 -0.5543  0.3697 -0.1358
 2483TIP3    H228941   2.961   6.048   4.802 -1.8061  1.9011 -1.5942
 2484TIP3   OH228942   5.287   3.126   2.812  0.2004 -0.6831 -0.0925
 2484TIP3    H128943   5.369   3.162   2.846  0.2938 -0.4352 -0.5815
 2484TIP3    H228944   5.314   3.060   2.748  0.0161  0.0639 -0.9462
 2485TIP3   OH228945   2.948   2.817   5.781  0.8058  0.1697 -0.0014
 2485TIP3    H128946   2.864   2.796   5.821  0.9390 -1.9843 -0.7306
 2485TIP3    H228947   2.995   2.733   5.776  2.5209  1.1005 -0.7028
 2486TIP3   OH228948   5.016   5.049   5.373  0.4522  0.0760  0.1227
 2486TIP3    H128949   4.992   4.988   5.303 -1.7322  0.6329  0.3200
 2486TIP3    H228950   4.936   5.099   5.390  1.5038  1.3387  1.6362
 2487TIP3   OH228951   1.280   3.451  11.841  0.3080  0.0824  0.4202
 2487TIP3    H128952   1.249   3.403  11.918 -1.1281  1.8621  1.0059
 2487TIP3    H228953   1.282   3.542  11.869 -0.3912  0.7971 -1.6907
 2488TIP3   OH228954   4.207   4.248   3.579  0.0007  0.4610  0.4211
 2488TIP3    H128955   4.221   4.238   3.485 -2.0809  0.6694  0.0245
 2488TIP3    H228956   4.177   4.162   3.608  1.5955  0.1069  1.1393
 2489TIP3   OH228957   4.114   4.985   6.368 -0.0434 -0.8580  0.2774
 2489TIP3    H128958   4.098   5.037   6.447  1.3938 -1.4867  1.0256
 2489TIP3    H228959   4.053   5.021   6.304  1.3590  2.3110  0.4967
 2490TIP3   OH228960   3.835   5.914  15.223 -0.5658 -0.3134 -0.1671
 2490TIP3    H128961   3.866   5.855  15.291 -1.1811 -0.2298  0.1974
 2490TIP3    H228962   3.799   5.989  15.271 -0.2637  0.1244 -0.6070
 2491TIP3   OH228963   4.888   3.218   6.005  0.0688  0.7115 -0.1734
 2491TIP3    H128964   4.797   3.246   6.018  0.3261  2.1669 -1.2442
 2491TIP3    H228965   4.883   3.123   6.004 -1.1397  0.6896  1.7433
 2492TIP3   OH228966   6.659   4.131   6.847 -0.1566  0.0083 -0.2258
 2492TIP3    H128967   6.634   4.044   6.878 -0.6200  0.2789  0.1668
 2492TIP3    H228968   6.661   4.122   6.752 -1.9534  0.0115 -0.2974
 2493TIP3   OH228969   3.242   2.816  16.974 -0.4538 -0.3244  0.3741
 2493TIP3    H128970   3.179   2.888  16.977  0.7577  0.7496  2.6129
 2493TIP3    H228971   3.203   2.753  16.914 -1.1447  2.5191 -2.4573
 2494TIP3   OH228972   6.131   0.358  16.103 -0.5310 -0.3000  0.4225
 2494TIP3    H128973   6.214   0.363  16.056  0.0336 -2.0071  1.1422
 2494TIP3    H228974   6.141   0.420  16.175  0.9179 -1.7664  1.5782
 2495TIP3   OH228975   0.191   1.175   5.161  0.0787 -0.0688  0.6017
 2495TIP3    H128976   0.218   1.218   5.241 -1.1685 -0.8996  1.5050
 2495TIP3    H228977   0.097   1.194   5.153 -0.2557 -1.5936  0.4204
 2496TIP3   OH228978   1.364   6.658   2.067 -0.3695 -0.0234  0.0476
 2496TIP3    H128979   1.304   6.599   2.022  1.2600 -0.4493 -1.7064
 2496TIP3    H228980   1.353   6.742   2.021  0.3382 -0.1009 -0.2696
 2497TIP3   OH228981   5.688   5.093   0.883 -0.2168  0.0370 -0.3029
 2497TIP3    H128982   5.756   5.026   0.894  0.4482  1.1101  4.1994
 2497TIP3    H228983   5.735   5.169   0.848 -0.0753 -0.5214 -1.3625
 2498TIP3   OH228984   2.428   0.349   4.347 -0.1238 -1.0615 -0.6692
 2498TIP3    H128985   2.503   0.297   4.319  0.1351  0.2930 -2.7755
 2498TIP3    H228986   2.465   0.417   4.403 -0.1653 -1.8553  0.3453
 2499TIP3   OH228987   4.331   5.343  14.736  0.8684 -0.1089  0.0187
 2499TIP3    H128988   4.254   5.357  14.791  1.6474  1.8523  0.6826
 2499TIP3    H228989   4.371   5.430  14.728  2.0282 -0.7499 -1.7994
 2500TIP3   OH228990   0.066   3.070  15.903 -0.3623  0.3887  0.3295
 2500TIP3    H128991   0.097   3.109  15.822  1.1146 -0.4740  0.4573
 2500TIP3    H228992   0.103   3.126  15.972 -0.8128  0.5502  0.4474
 2501TIP3   OH228993   5.622   0.559   0.447  0.4710  0.1554  0.8270
 2501TIP3    H128994   5.575   0.572   0.529 -1.2599 -1.0392  0.0941
 2501TIP3    H228995   5.559   0.515   0.390  1.0976  2.1736 -1.6313
 2502TIP3   OH228996   0.708   0.798   3.115  0.5163 -0.4609 -0.1979
 2502TIP3    H128997   0.776   0.733   3.129  1.2681  0.1832 -0.7985
 2502TIP3    H228998   0.755   0.880   3.100 -0.4115  0.2309  0.5216
 2503TIP3   OH228999   5.992   0.227  13.115  0.1890 -0.1934 -0.6836
 2503TIP3    H129000   5.963   0.240  13.205  2.1868  0.3363 -0.0811
 2503TIP3    H229001   6.061   0.161  13.120 -0.1465 -0.6816 -1.9344
 2504TIP3   OH229002   4.187   0.055  12.478 -0.4252 -0.0913  0.1665
 2504TIP3    H129003   4.221   0.144  12.490  0.9172 -0.7850  2.0307
 2504TIP3    H229004   4.135   0.038  12.557  0.0109 -1.2286  0.2331
 2505TIP3   OH229005   6.252   3.335  17.198 -0.3662 -0.1750 -0.5782
 2505TIP3    H129006   6.285   3.291  17.120  1.8598 -0.5090  0.4505
 2505TIP3    H229007   6.236   3.425  17.170  1.6415  0.0421 -1.1808
 2506TIP3   OH229008   1.545   2.098   0.002  0.6128  0.4874  0.7911
 2506TIP3    H129009   1.564   2.115  -0.091 -1.3925  0.6164  0.3567
 2506TIP3    H229010   1.549   2.003   0.011  2.4483  0.5598  0.9866
 2507TIP3   OH229011   6.070   2.751   1.604 -0.0646  0.2079 -0.1771
 2507TIP3    H129012   6.038   2.710   1.524 -2.5383  1.7877 -0.1216
 2507TIP3    H229013   5.995   2.802   1.636  1.3669  0.9653  2.2438
 2508TIP3   OH229014   6.664   0.309  14.791 -0.2464  0.0560  0.3736
 2508TIP3    H129015   6.692   0.221  14.818  0.1272  0.3923  1.1007
 2508TIP3    H229016   6.679   0.364  14.868  0.7211  1.0302 -0.4896
 2509TIP3   OH229017   5.112   4.126  13.939 -0.3256 -0.4266  0.2621
 2509TIP3    H129018   5.096   4.092  13.851  1.1118 -1.4765  0.3744
 2509TIP3    H229019   5.189   4.181  13.931 -0.4245 -0.2009  0.7996
 2510TIP3   OH229020   5.123   3.775  11.984 -0.0151 -0.1145 -0.1217
 2510TIP3    H129021   5.174   3.855  11.974  1.8526 -1.1452  0.5711
 2510TIP3    H229022   5.154   3.718  11.914 -0.5603 -0.6009  0.0279
 2511TIP3   OH229023   0.294   3.130  16.500  0.5373  0.0113 -0.7906
 2511TIP3    H129024   0.324   3.041  16.480 -1.0610 -0.5265 -0.9092
 2511TIP3    H229025   0.364   3.167  16.555  2.7652 -0.1463 -3.3306
 2512TIP3   OH229026   2.936   5.694  11.534  0.4216  0.0933 -0.5152
 2512TIP3    H129027   2.852   5.719  11.573  0.4382  0.7233 -0.8736
 2512TIP3    H229028   2.943   5.747  11.455  0.5785 -0.8835 -1.1769
 2513TIP3   OH229029   1.032   4.540  13.608  0.3339 -0.3209  0.5762
 2513TIP3    H129030   1.101   4.581  13.556  0.3292  0.6556  1.3121
 2513TIP3    H229031   0.960   4.526  13.547  0.5767  0.1866  0.1734
 2514TIP3   OH229032   1.084   6.461   1.526  0.4388 -0.2096 -0.6115
 2514TIP3    H129033   1.127   6.421   1.602  0.1200  0.7788  0.1158
 2514TIP3    H229034   1.142   6.441   1.452  1.5456  0.1065  0.1440
 2515TIP3   OH229035   3.286   2.773   4.325 -0.9039  0.0344  0.2662
 2515TIP3    H129036   3.316   2.829   4.253 -0.4797  2.3042  2.0844
 2515TIP3    H229037   3.365   2.729   4.356 -1.0459 -0.7600 -0.4678
 2516TIP3   OH229038   4.637   6.023  10.853  0.0633 -0.2731  0.4766
 2516TIP3    H129039   4.631   6.112  10.818  0.0932 -0.9249 -1.2828
 2516TIP3    H229040   4.721   6.020  10.898 -0.0729  0.6526  0.8316
 2517TIP3   OH229041   3.765   1.180   4.776 -0.3461  0.8882  0.4673
 2517TIP3    H129042   3.673   1.186   4.803 -0.2925  0.5955  0.7312
 2517TIP3    H229043   3.775   1.246   4.708 -1.3027 -0.5455 -1.1509
 2518TIP3   OH229044   1.717   2.689   5.571  0.6157 -0.1385 -0.5975
 2518TIP3    H129045   1.777   2.753   5.533  0.3583  0.4506 -0.0148
 2518TIP3    H229046   1.708   2.715   5.662 -0.1061 -0.5395 -0.5473
 2519TIP3   OH229047   0.469   2.870   5.980  0.2387 -0.0135 -0.2500
 2519TIP3    H129048   0.423   2.786   5.987  0.4851 -0.0357  1.8418
 2519TIP3    H229049   0.497   2.889   6.070  0.6768  2.0439 -0.7797
 2520TIP3   OH229050   1.502   5.227   5.384 -0.0510  0.2046 -0.2237
 2520TIP3    H129051   1.492   5.153   5.444  0.0840 -0.9385 -1.5563
 2520TIP3    H229052   1.414   5.264   5.376 -0.1059  0.2462  0.4965
 2521TIP3   OH229053   6.758   4.199   4.507 -0.3735  0.5857 -0.2096
 2521TIP3    H129054   6.754   4.128   4.443 -0.3834  0.3463  0.0578
 2521TIP3    H229055   6.668   4.209   4.537 -0.1346 -0.2782  0.8361
 2522TIP3   OH229056   0.397   5.014   1.216 -0.4539  0.3329 -0.3627
 2522TIP3    H129057   0.434   5.049   1.135 -0.9782  1.6542 -0.0443
 2522TIP3    H229058   0.350   5.087   1.256  1.1620  0.2060  1.9840
 2523TIP3   OH229059   0.285   6.504   0.791 -0.1283 -0.3767 -0.4587
 2523TIP3    H129060   0.248   6.497   0.703  0.2484  1.9849 -0.8735
 2523TIP3    H229061   0.211   6.487   0.849 -0.8152 -0.1236 -1.2410
 2524TIP3   OH229062   6.008   4.148   1.709  0.0865  0.2419 -0.0318
 2524TIP3    H129063   5.949   4.221   1.690 -0.5759 -0.2790  0.0019
 2524TIP3    H229064   5.974   4.110   1.789  0.3381 -0.2090 -0.1362
 2525TIP3   OH229065   0.126   4.213   6.070  0.1161 -0.3800  0.3440
 2525TIP3    H129066   0.206   4.160   6.076 -0.5432 -1.3250  1.1781
 2525TIP3    H229067   0.055   4.151   6.082 -0.8934  0.1061 -2.3841
 2526TIP3   OH229068   0.073   0.480   2.783  0.2282  0.5026 -1.0661
 2526TIP3    H129069   0.060   0.569   2.815 -0.2328 -0.2271  0.9081
 2526TIP3    H229070   0.004   0.468   2.717 -1.1158  0.8970  0.2234
 2527TIP3   OH229071   6.511   4.549  11.779 -0.2876 -0.5487 -0.4873
 2527TIP3    H129072   6.487   4.560  11.687 -1.1707 -1.3632 -0.3605
 2527TIP3    H229073   6.432   4.515  11.821 -0.6401  1.9177  1.0434
 2528TIP3   OH229074   6.673   4.395   1.403 -0.5012  0.3789  0.0230
 2528TIP3    H129075   6.753   4.401   1.455 -0.4665  1.1041 -0.1042
 2528TIP3    H229076   6.612   4.345   1.457 -0.1839  0.3906  0.3932
 2529TIP3   OH229077   4.402   4.642   5.906  0.3098  0.0087  0.0487
 2529TIP3    H129078   4.325   4.694   5.926  0.3586 -0.1915  0.7505
 2529TIP3    H229079   4.389   4.559   5.951  1.0819  0.0952  0.4512
 2530TIP3   OH229080   5.824   0.354  17.398 -0.0453  0.3381  0.2206
 2530TIP3    H129081   5.915   0.324  17.390 -0.1059 -0.5025  2.1260
 2530TIP3    H229082   5.772   0.274  17.393 -0.8679  0.9340 -2.3288
 2531TIP3   OH229083   0.107   3.439   4.984  0.0301 -0.4367 -0.5285
 2531TIP3    H129084   0.106   3.459   4.890  1.0493 -0.9943 -0.6635
 2531TIP3    H229085   0.019   3.462   5.013 -0.2906 -0.2092 -1.6120
 2532TIP3   OH229086   2.207   2.628   3.995 -1.5279  0.2163  0.1009
 2532TIP3    H129087   2.302   2.641   3.996 -1.7721  2.7333  1.5100
 2532TIP3    H229088   2.195   2.538   4.024  0.4338  0.6007  2.4695
 2533TIP3   OH229089   4.040   4.961  11.611  0.1146  0.3906  0.3700
 2533TIP3    H129090   4.079   5.048  11.611  0.8524  0.1150 -1.2774
 2533TIP3    H229091   3.947   4.976  11.629  0.4459  1.3804  1.3242
 2534TIP3   OH229092   1.772   6.763   2.100 -0.6068  0.8806 -0.1573
 2534TIP3    H129093   1.715   6.757   2.023 -2.0787  1.3397  0.8550
 2534TIP3    H229094   1.721   6.813   2.164  1.2787  2.0551  0.5155
 2535TIP3   OH229095   2.309   5.741  12.791  0.6715  0.0084 -0.4598
 2535TIP3    H129096   2.220   5.767  12.814  0.9079  0.4390  0.0002
 2535TIP3    H229097   2.327   5.665  12.847  0.6980  0.1066 -0.3342
 2536TIP3   OH229098   4.825   4.524  16.762 -0.1827 -0.5113 -0.2921
 2536TIP3    H129099   4.919   4.512  16.774 -0.2121  0.5054  1.3035
 2536TIP3    H229100   4.815   4.618  16.750 -1.0499 -0.5219  0.2867
 2537TIP3   OH229101   5.041   3.323  11.939  0.1383 -0.3851 -0.8078
 2537TIP3    H129102   5.098   3.389  11.899  3.0345 -0.9041  1.9763
 2537TIP3    H229103   4.978   3.375  11.990  0.7880  0.2869 -0.6535
 2538TIP3   OH229104   4.255   0.966   0.313 -0.1648 -0.0454  0.7716
 2538TIP3    H129105   4.309   0.898   0.354  0.1902 -0.5562 -0.5194
 2538TIP3    H229106   4.165   0.940   0.333 -0.0826 -1.5262 -0.6264
 2539TIP3   OH229107   5.106   3.338  17.342  0.3227  0.0743 -0.1253
 2539TIP3    H129108   5.151   3.304  17.265  1.6811 -0.0382  0.6900
 2539TIP3    H229109   5.066   3.262  17.383 -1.8534  0.3427 -1.5726
 2540TIP3   OH229110   1.837   2.783  16.606  0.7125  0.0958 -0.5340
 2540TIP3    H129111   1.820   2.717  16.539  0.2833 -0.5655  0.2121
 2540TIP3    H229112   1.832   2.735  16.689  1.3539  0.8783 -0.0322
 2541TIP3   OH229113   0.397   5.930  12.155  0.2201 -0.3053 -0.6481
 2541TIP3    H129114   0.410   6.020  12.126  0.7500 -0.1574  0.0314
 2541TIP3    H229115   0.379   5.881  12.075 -0.8774  0.5445 -0.9376
 2542TIP3   OH229116   3.863   6.682   4.821 -0.1792  0.5305  0.1295
 2542TIP3    H129117   3.879   6.765   4.865 -0.1318  0.6302 -0.0742
 2542TIP3    H229118   3.779   6.652   4.856 -0.2493  0.7179  0.1216
 2543TIP3   OH229119   3.411   0.391   3.438  0.3522 -0.4628 -0.5457
 2543TIP3    H129120   3.331   0.342   3.423  0.8312 -1.3439 -0.3088
 2543TIP3    H229121   3.438   0.422   3.352  0.3525 -1.1293 -0.7921
 2544TIP3   OH229122   5.422   4.762   2.754 -0.2885  0.3537 -0.2385
 2544TIP3    H129123   5.454   4.784   2.667 -2.5237  1.6512 -0.8190
 2544TIP3    H229124   5.328   4.746   2.742 -0.6494  0.5316  1.9131
 2545TIP3   OH229125   2.367   3.394   4.977 -0.6536 -0.5361  0.4034
 2545TIP3    H129126   2.460   3.382   4.958 -0.8554  0.9772 -1.9202
 2545TIP3    H229127   2.340   3.311   5.015  1.1520 -1.8259 -0.9349
 2546TIP3   OH229128   0.853   6.735   4.129 -0.2848  0.1793 -0.5576
 2546TIP3    H129129   0.878   6.794   4.058 -0.4199 -0.1112 -0.8451
 2546TIP3    H229130   0.823   6.794   4.199 -3.1232  0.4143 -1.8432
 2547TIP3   OH229131   6.223   2.209  14.625 -0.4526 -0.5222 -0.1280
 2547TIP3    H129132   6.310   2.207  14.664 -0.8884 -1.4567  0.8286
 2547TIP3    H229133   6.239   2.215  14.531  0.6397 -0.5636  0.0450
 2548TIP3   OH229134   5.305   3.491  17.437 -0.3087 -0.9169 -0.3253
 2548TIP3    H129135   5.267   3.528  17.517  0.3909  0.0035 -0.3917
 2548TIP3    H229136   5.236   3.437  17.400 -1.1568 -0.1753  0.1326
 2549TIP3   OH229137   1.455   3.552  16.138  0.4121 -0.0584 -0.4409
 2549TIP3    H129138   1.512   3.533  16.063  0.0749 -0.4180 -0.6072
 2549TIP3    H229139   1.448   3.469  16.183 -1.0925 -0.3583 -1.1804
 2550TIP3   OH229140   5.264   2.255   3.041  0.4170 -0.0193  0.2822
 2550TIP3    H129141   5.290   2.317   2.974 -0.0303 -0.3378 -0.1945
 2550TIP3    H229142   5.237   2.309   3.115  2.2016  0.3211  0.7190
 2551TIP3   OH229143   3.051   0.734   5.898  0.1257 -0.1271 -0.0684
 2551TIP3    H129144   3.048   0.639   5.884  1.7922 -0.1421 -0.5996
 2551TIP3    H229145   3.021   0.746   5.988  0.9824 -1.2993  0.4110
 2552TIP3   OH229146   6.214   0.429  16.709  0.1622 -0.1867  0.0950
 2552TIP3    H129147   6.304   0.460  16.698 -0.1483  0.9736  0.7438
 2552TIP3    H229148   6.194   0.443  16.802 -1.6820  2.3483 -0.5880
 2553TIP3   OH229149   0.016   2.500   2.691 -0.0869  1.1881  0.2302
 2553TIP3    H129150  -0.033   2.425   2.657  0.4871  0.9326 -0.0538
 2553TIP3    H229151  -0.046   2.572   2.689  0.0312  1.2905 -1.7997
 2554TIP3   OH229152   5.062   4.505  13.967  0.1088  0.2510 -0.1046
 2554TIP3    H129153   5.107   4.422  13.953 -0.1640  0.1258 -0.2481
 2554TIP3    H229154   5.071   4.522  14.061  1.2024  0.6640 -0.2731
 2555TIP3   OH229155   4.634   3.100   4.233  0.6586  0.5665  0.2034
 2555TIP3    H129156   4.695   3.086   4.306  0.6657  1.7958  0.4607
 2555TIP3    H229157   4.681   3.159   4.174  1.0452 -1.2082 -1.3255
 2556TIP3   OH229158   0.092   0.089  16.351 -0.3928  0.2210 -0.3122
 2556TIP3    H129159   0.065   0.064  16.262  0.1508  0.1303 -0.4548
 2556TIP3    H229160   0.055   0.177  16.363 -0.1190  0.4058 -0.7890
 2557TIP3   OH229161   6.708   5.540   2.599  0.2338 -0.6968  0.4686
 2557TIP3    H129162   6.800   5.517   2.588  0.6444  0.9609  0.1368
 2557TIP3    H229163   6.675   5.477   2.663  1.2903 -2.0207 -0.2380
 2558TIP3   OH229164   4.839   5.705   0.234  0.1336  0.0195 -0.4261
 2558TIP3    H129165   4.888   5.766   0.290 -1.5920  0.3314  0.8030
 2558TIP3    H229166   4.907   5.658   0.185  1.5618  1.9995 -0.4492
 2559TIP3   OH229167   4.650   0.030   4.180 -0.3088 -0.2649 -0.3505
 2559TIP3    H129168   4.600   0.025   4.099  0.0229  2.0400 -0.7825
 2559TIP3    H229169   4.598   0.088   4.237  0.4178 -0.2557  0.3238
 2560TIP3   OH229170   3.519   2.051  17.219  0.1466 -0.4477 -0.4329
 2560TIP3    H129171   3.493   1.959  17.218 -1.8478  0.0802 -0.7782
 2560TIP3    H229172   3.562   2.065  17.135  0.8420 -1.1488 -0.2024
 2561TIP3   OH229173   1.256   5.483   2.277 -0.5331  0.0899 -0.4392
 2561TIP3    H129174   1.309   5.563   2.285  0.2570 -0.2998 -1.5026
 2561TIP3    H229175   1.213   5.491   2.192  0.5052 -1.1310 -1.1306
 2562TIP3   OH229176   3.324   4.052   4.743 -0.4269 -0.1366 -0.2997
 2562TIP3    H129177   3.285   4.083   4.661 -1.7428  0.5275  0.5316
 2562TIP3    H229178   3.252   4.058   4.807  0.2904 -1.5621  0.6902
 2563TIP3   OH229179   4.173   0.411  11.957 -0.2804 -0.1866  0.1832
 2563TIP3    H129180   4.224   0.352  12.012  0.6675  1.2810  0.9674
 2563TIP3    H229181   4.084   0.376  11.959  0.2030 -1.4208  0.8134
 2564TIP3   OH229182   5.849   1.381  12.856 -0.0161 -0.0255 -0.7129
 2564TIP3    H129183   5.867   1.379  12.950 -1.0260  1.7520 -0.4315
 2564TIP3    H229184   5.762   1.421  12.850  1.1864  2.5215 -2.5205
 2565TIP3   OH229185   4.937   2.530   4.815  0.2381 -0.6365  0.0759
 2565TIP3    H129186   5.019   2.494   4.847  0.8078 -0.8685 -1.5629
 2565TIP3    H229187   4.921   2.607   4.870  2.0227 -0.0490 -0.1889
 2566TIP3   OH229188   0.048   5.695  13.158  0.4650 -0.4727 -0.7300
 2566TIP3    H129189   0.052   5.776  13.107  0.8478 -0.6787 -1.0288
 2566TIP3    H229190   0.138   5.677  13.183  0.2596 -0.2769  0.1825
 2567TIP3   OH229191   1.377   0.991  11.929 -0.1500 -0.2232  0.4167
 2567TIP3    H129192   1.288   1.025  11.931 -0.0604  0.4994 -2.8368
 2567TIP3    H229193   1.370   0.901  11.962 -1.7516  0.3359  1.7219
 2568TIP3   OH229194   2.709   3.549  15.708 -0.0168  0.1827 -0.2205
 2568TIP3    H129195   2.692   3.585  15.621  0.5013 -1.1152 -0.8756
 2568TIP3    H229196   2.715   3.455  15.695 -0.1733 -0.0624  1.2711
 2569TIP3   OH229197   1.740   5.662  12.245  0.3708 -0.4096 -0.2571
 2569TIP3    H129198   1.828   5.697  12.232 -0.0785  0.5239 -0.8817
 2569TIP3    H229199   1.715   5.625  12.160  0.2737 -0.9610  0.0028
 2570TIP3   OH229200   2.618   4.370  11.767  0.0851  0.6096  0.5150
 2570TIP3    H129201   2.624   4.434  11.697 -2.4114 -1.5165 -1.8582
 2570TIP3    H229202   2.695   4.315  11.756  0.2903  0.9525  0.1950
 2571TIP3   OH229203   2.957   1.507   4.097 -0.5492 -0.3710 -0.0288
 2571TIP3    H129204   2.959   1.527   4.190  0.6236 -0.0282 -0.1183
 2571TIP3    H229205   2.946   1.592   4.054  0.9966 -0.2712 -0.2709
 2572TIP3   OH229206   2.731   3.992   0.256 -0.6168  0.0861  0.3823
 2572TIP3    H129207   2.718   3.911   0.305 -0.2956 -0.1035  0.1621
 2572TIP3    H229208   2.769   4.053   0.319 -1.9173  0.4353  0.8500
 2573TIP3   OH229209   3.011   5.571   5.882  0.0489 -0.3268 -0.0872
 2573TIP3    H129210   2.994   5.634   5.812 -1.5050  0.1060  0.6322
 2573TIP3    H229211   2.925   5.533   5.901  1.0148 -3.0953 -0.8494
 2574TIP3   OH229212   1.736   1.020   0.669  0.2912  0.1041  0.3209
 2574TIP3    H129213   1.712   1.099   0.621  0.5952 -0.8605 -1.4850
 2574TIP3    H229214   1.655   0.969   0.675  0.3890 -0.0522  0.3240
 2575TIP3   OH229215   0.750   2.073   4.713 -0.1175 -0.5147  0.2231
 2575TIP3    H129216   0.655   2.071   4.729 -0.0072 -0.8684  0.8790
 2575TIP3    H229217   0.784   2.126   4.785  0.2260 -0.7201  0.2105
 2576TIP3   OH229218   6.537   2.710  11.212  0.4269 -0.5587  0.2309
 2576TIP3    H129219   6.511   2.623  11.182 -0.5936 -0.2721  0.2425
 2576TIP3    H229220   6.612   2.733  11.157  0.4591 -1.2880 -0.0333
 2577TIP3   OH229221   0.573   5.696  14.044 -0.3054  0.1317  1.1521
 2577TIP3    H129222   0.597   5.729  14.131  2.8702 -1.1081  0.8691
 2577TIP3    H229223   0.646   5.640  14.019 -0.6738  1.1289 -2.7363
 2578TIP3   OH229224   4.583   5.727  14.265 -0.2429 -0.1462  0.1540
 2578TIP3    H129225   4.644   5.798  14.250 -2.0927  1.4109 -0.4447
 2578TIP3    H229226   4.533   5.754  14.342 -0.0209 -1.5135  0.8048
 2579TIP3   OH229227   4.344   4.890  14.269 -0.1083  0.3484 -0.0802
 2579TIP3    H129228   4.303   4.832  14.205 -0.8073  1.1143 -0.3471
 2579TIP3    H229229   4.407   4.834  14.315  0.2418 -0.2811 -1.2672
 2580TIP3   OH229230   4.822   1.482  13.314  0.0974 -0.1796  0.5424
 2580TIP3    H129231   4.824   1.432  13.232 -0.8795 -2.1605  1.6562
 2580TIP3    H229232   4.891   1.442  13.367 -0.1318  0.2445  1.1572
 2581TIP3   OH229233   0.225   4.151  14.375  0.1365 -0.1369 -0.1139
 2581TIP3    H129234   0.172   4.130  14.298 -0.0434 -0.0878 -0.0041
 2581TIP3    H229235   0.309   4.108  14.359 -0.1114 -0.6424 -0.0522
 2582TIP3   OH229236   3.690   2.287   0.771  0.3576  0.0685  0.7107
 2582TIP3    H129237   3.666   2.293   0.679 -1.9316 -2.3913  1.0233
 2582TIP3    H229238   3.611   2.311   0.819  0.9123 -0.5373  2.0034
 2583TIP3   OH229239   4.659   0.821   3.173 -0.5098  0.5994  0.5201
 2583TIP3    H129240   4.654   0.880   3.249 -0.4819  0.3553  0.7120
 2583TIP3    H229241   4.572   0.824   3.134 -0.9989 -0.5136  1.4927
 2584TIP3   OH229242   4.332   3.985  12.191  0.4507 -0.0481  0.0007
 2584TIP3    H129243   4.363   3.956  12.276 -0.0378 -1.4328 -0.2798
 2584TIP3    H229244   4.412   4.012  12.144  0.9338 -1.0822  0.2176
 2585TIP3   OH229245   5.907   1.364   4.457  0.3698  0.1389 -0.3053
 2585TIP3    H129246   5.832   1.413   4.425  0.1001 -0.6049 -0.8282
 2585TIP3    H229247   5.956   1.341   4.378  1.8421  1.6687  0.0883
 2586TIP3   OH229248   1.959   1.238  11.360  0.4166 -0.2615  0.0721
 2586TIP3    H129249   1.917   1.314  11.402 -0.4707 -1.2354  1.0028
 2586TIP3    H229250   1.886   1.186  11.326  0.8998 -1.5698  0.9631
 2587TIP3   OH229251   4.805   6.183   4.294 -0.4233 -0.1138 -0.4664
 2587TIP3    H129252   4.881   6.236   4.314  0.5699 -1.7150  0.2704
 2587TIP3    H229253   4.748   6.193   4.371  0.7308 -1.7054  0.6518
 2588TIP3   OH229254   5.375   4.316  12.121  0.5902  0.1443  0.0400
 2588TIP3    H129255   5.369   4.390  12.181 -0.5377 -1.8560  2.5523
 2588TIP3    H229256   5.466   4.286  12.128  0.4895 -0.0196  0.7214
 2589TIP3   OH229257   6.304   1.062   0.300 -0.6322 -0.8532 -0.2235
 2589TIP3    H129258   6.231   1.001   0.311 -0.4199 -1.7810 -3.1073
 2589TIP3    H229259   6.308   1.078   0.206  1.5532  0.8886  0.0799
 2590TIP3   OH229260   1.371   4.762  17.219 -0.1731  0.0836  0.1697
 2590TIP3    H129261   1.457   4.763  17.263  0.1549 -0.0386 -0.4570
 2590TIP3    H229262   1.344   4.854  17.217 -0.0444  0.1263  0.3435
 2591TIP3   OH229263   0.967   3.553  14.146  0.4914 -0.3701  0.4076
 2591TIP3    H129264   1.005   3.469  14.122  0.6216 -0.7585  1.9153
 2591TIP3    H229265   0.881   3.553  14.103 -1.4151 -3.1739  3.7350
 2592TIP3   OH229266   2.493   1.492   0.971 -0.5654  0.0305 -0.3262
 2592TIP3    H129267   2.566   1.554   0.973 -1.7276  1.4681  0.7363
 2592TIP3    H229268   2.520   1.424   0.910  0.6070  1.8389 -1.9445
 2593TIP3   OH229269   6.695   2.400   5.017 -0.3876 -0.2515 -0.0540
 2593TIP3    H129270   6.741   2.430   4.939 -0.3180  0.7287  0.3603
 2593TIP3    H229271   6.677   2.479   5.068  0.9802 -0.9996  1.7068
 2594TIP3   OH229272   2.367   1.106   6.212  0.5231 -0.0647 -0.7563
 2594TIP3    H129273   2.442   1.132   6.265 -1.4545  1.3419  1.5223
 2594TIP3    H229274   2.338   1.187   6.170  0.2214 -0.5718 -1.5461
 2595TIP3   OH229275   5.224   1.579   2.583 -0.2503 -0.2801  0.0359
 2595TIP3    H129276   5.291   1.646   2.567  0.6870 -0.4187  2.8138
 2595TIP3    H229277   5.262   1.499   2.547  0.3141 -0.0376  0.0742
 2596TIP3   OH229278   6.458   0.206  11.542 -0.1613 -0.5014 -0.3524
 2596TIP3    H129279   6.369   0.239  11.547  0.2149  0.4498  0.2183
 2596TIP3    H229280   6.501   0.261  11.476  0.7119  0.7662  1.2193
 2597TIP3   OH229281   3.820   6.380  10.914  0.0978 -0.0424 -0.1102
 2597TIP3    H129282   3.872   6.439  10.968 -1.0452  0.1275  0.8223
 2597TIP3    H229283   3.769   6.438  10.858 -2.2347 -0.0020  1.9079
 2598TIP3   OH229284   2.959   2.815  10.700  0.1351 -0.2153 -0.2933
 2598TIP3    H129285   3.034   2.796  10.644  0.8546  0.7687  0.2968
 2598TIP3    H229286   2.953   2.741  10.759  0.2388 -0.6061 -0.7693
 2599TIP3   OH229287   5.471   0.321  16.432  0.3197  0.2565  0.4459
 2599TIP3    H129288   5.498   0.279  16.350  1.2770  0.8324  0.4429
 2599TIP3    H229289   5.416   0.256  16.475 -1.2853  0.4169 -1.2238
 2600TIP3   OH229290   6.620   4.621   1.058  1.1936  0.1044 -0.5083
 2600TIP3    H129291   6.593   4.706   1.024 -1.7428 -0.0699  1.0046
 2600TIP3    H229292   6.649   4.639   1.147  1.4113 -0.3747 -0.4780
 2601TIP3   OH229293   1.232   1.858  11.303 -0.3766  0.5409 -0.4970
 2601TIP3    H129294   1.225   1.771  11.342 -0.5102  0.7419 -0.0649
 2601TIP3    H229295   1.322   1.884  11.317 -0.5424  0.8005  0.0799
 2602TIP3   OH229296   4.634   6.130   0.899 -0.2921 -0.2240 -0.1480
 2602TIP3    H129297   4.579   6.201   0.864 -0.0730 -1.5264 -3.4326
 2602TIP3    H229298   4.577   6.085   0.961 -2.6505 -0.7833 -2.5292
 2603TIP3   OH229299   5.187   4.058   4.853 -0.1271 -0.8226  0.0335
 2603TIP3    H129300   5.168   4.124   4.919  0.7088 -0.6928  0.1645
 2603TIP3    H229301   5.280   4.036   4.867  0.3756 -0.0116 -1.7596
 2604TIP3   OH229302   1.442   4.601   6.110 -0.4544 -0.0704 -0.0804
 2604TIP3    H129303   1.487   4.603   6.195  1.6904  1.2233 -1.1672
 2604TIP3    H229304   1.397   4.517   6.109  1.3907 -1.1634  1.4124
 2605TIP3   OH229305   0.918   4.509   0.026 -0.1008 -0.0897 -0.0141
 2605TIP3    H129306   0.850   4.469  -0.029  0.2489 -1.6653  0.6576
 2605TIP3    H229307   0.988   4.444   0.029  0.6061  0.6833  0.9282
 2606TIP3   OH229308   3.561   5.058   2.311  0.2737 -0.3120 -0.4302
 2606TIP3    H129309   3.539   4.992   2.245 -0.3872 -0.2306 -0.2933
 2606TIP3    H229310   3.582   5.007   2.390 -0.1938 -0.3576 -0.3362
 2607TIP3   OH229311   5.447   3.840  15.757 -0.1856  0.4256 -0.4942
 2607TIP3    H129312   5.541   3.820  15.750 -0.4389 -0.9160 -0.4458
 2607TIP3    H229313   5.442   3.935  15.754  1.1335  0.4992 -1.1241
 2608TIP3   OH229314   2.079   4.396   3.142 -0.2437 -0.0277 -0.3077
 2608TIP3    H129315   1.999   4.383   3.192 -0.2315  0.0725 -0.2622
 2608TIP3    H229316   2.141   4.334   3.178 -0.5892 -0.7879 -0.9774
 2609TIP3   OH229317   0.055   5.743  12.465  0.2165 -0.4971  0.2060
 2609TIP3    H129318   0.132   5.740  12.522  0.9042  1.1480 -0.5360
 2609TIP3    H229319   0.063   5.828  12.420 -1.6977 -0.5805 -0.3730
 2610TIP3   OH229320   4.447   1.887   5.389  0.3609  0.0272 -0.6201
 2610TIP3    H129321   4.417   1.898   5.299  2.2507 -0.3775 -1.3509
 2610TIP3    H229322   4.542   1.874   5.381  0.3638 -1.6127  1.2913
 2611TIP3   OH229323   1.554   0.146   3.024 -0.0193 -0.0438 -0.0529
 2611TIP3    H129324   1.543   0.084   3.097  0.8116  0.9268  0.9305
 2611TIP3    H229325   1.531   0.231   3.061  1.1897  0.5890 -0.6845
 2612TIP3   OH229326   1.521   5.154  17.431  0.5769 -0.4739 -0.3412
 2612TIP3    H129327   1.556   5.243  17.422 -1.8915  0.5367 -0.6337
 2612TIP3    H229328   1.512   5.123  17.341 -1.2192  0.1222 -0.3956
 2613TIP3   OH229329   0.530   5.727  13.336 -0.3671  0.5745  0.3323
 2613TIP3    H129330   0.519   5.637  13.367  0.5825  0.7754  1.3324
 2613TIP3    H229331   0.444   5.767  13.349 -0.9840 -0.3497 -0.7414
 2614TIP3   OH229332   4.518   0.073   3.908 -0.2539 -0.5598 -0.0153
 2614TIP3    H129333   4.444   0.127   3.883  1.7031  1.6987 -1.3475
 2614TIP3    H229334   4.582   0.085   3.838  2.2138 -0.6462  2.0549
 2615TIP3   OH229335   3.228   2.262   0.334 -0.3423 -0.2616 -0.0503
 2615TIP3    H129336   3.153   2.297   0.286 -1.2376 -0.7302  0.9622
 2615TIP3    H229337   3.235   2.171   0.306 -2.1102 -1.1390  2.0622
 2616TIP3   OH229338   3.111   6.669  12.356 -0.4691 -0.0567 -0.4664
 2616TIP3    H129339   3.138   6.591  12.404 -0.5614 -0.8568 -1.6779
 2616TIP3    H229340   3.193   6.711  12.330 -0.4141  0.5397  0.5918
 2617TIP3   OH229341   3.138   1.611   0.843 -0.3386  0.0723  0.2036
 2617TIP3    H129342   3.203   1.680   0.857  0.7299 -0.6674 -0.9013
 2617TIP3    H229343   3.167   1.539   0.899 -0.7235  0.0693  0.3980
 2618TIP3   OH229344   2.487   1.891  15.013 -0.4391  0.2944 -0.3139
 2618TIP3    H129345   2.517   1.895  14.922  0.0513 -0.2665 -0.1773
 2618TIP3    H229346   2.455   1.980  15.031  0.8388  0.8273 -0.5713
 2619TIP3   OH229347   2.465   1.996  14.467  0.1371 -0.6878 -0.0412
 2619TIP3    H129348   2.517   2.006  14.547 -1.0892 -0.7787  0.7953
 2619TIP3    H229349   2.442   2.086  14.442  0.7947 -0.6382 -0.4938
 2620TIP3   OH229350   5.904   4.597  14.063  0.0947 -0.4164  0.6824
 2620TIP3    H129351   5.978   4.617  14.121  0.7317  0.7824 -0.4714
 2620TIP3    H229352   5.901   4.502  14.059  0.3604 -0.5132  2.2510
 2621TIP3   OH229353   5.289   1.325   2.475 -0.5740  0.3201 -0.0410
 2621TIP3    H129354   5.355   1.256   2.468  0.2443  0.8486  1.7356
 2621TIP3    H229355   5.217   1.286   2.524  0.8758  1.2725  3.0851
 2622TIP3   OH229356   2.926   3.305  11.865 -0.0826  0.4853 -0.3116
 2622TIP3    H129357   2.893   3.221  11.897 -0.4068 -0.1234 -2.1466
 2622TIP3    H229358   3.021   3.294  11.864 -0.1131  0.2193 -0.3514
 2623TIP3   OH229359   3.135   3.236   0.271  0.2914 -0.1004  0.3526
 2623TIP3    H129360   3.156   3.153   0.313 -0.0438  0.0371  0.8025
 2623TIP3    H229361   3.188   3.237   0.191 -1.5311 -1.8754 -0.9775
 2624TIP3   OH229362   2.537   6.212   4.102 -0.0380 -0.0661 -0.0452
 2624TIP3    H129363   2.631   6.228   4.099 -0.2213  1.1834  0.1914
 2624TIP3    H229364   2.499   6.284   4.050 -0.7567 -1.7228 -1.9257
 2625TIP3   OH229365   4.296   6.732  11.785 -0.0256 -0.0352  0.7775
 2625TIP3    H129366   4.290   6.649  11.833  1.7989 -1.6108 -1.4736
 2625TIP3    H229367   4.376   6.773  11.818  1.5676 -1.4033 -1.0845
 2626TIP3   OH229368   0.851   1.931   5.326  0.0019 -0.0100 -0.7607
 2626TIP3    H129369   0.758   1.954   5.332  0.5097  1.9347  0.4019
 2626TIP3    H229370   0.870   1.887   5.409  0.1156 -0.4627 -1.0233
 2627TIP3   OH229371   0.793   4.402   1.177  0.5261  0.3812  0.1140
 2627TIP3    H129372   0.740   4.439   1.106  0.5446  2.1042  0.9348
 2627TIP3    H229373   0.760   4.313   1.189 -1.4971  1.0619 -0.0919
 2628TIP3   OH229374   4.402   5.900   1.972  0.1667  0.2938  0.1318
 2628TIP3    H129375   4.333   5.935   1.916  0.3505 -0.7394 -0.7698
 2628TIP3    H229376   4.356   5.871   2.051 -0.3567  0.0889 -0.2451
 2629TIP3   OH229377   6.239   2.798   3.523  0.6602 -0.1964 -0.4965
 2629TIP3    H129378   6.302   2.866   3.500  1.5802 -0.7160  0.4174
 2629TIP3    H229379   6.155   2.834   3.496  1.2497  0.8493 -1.0120
 2630TIP3   OH229380   2.924   4.166  13.714 -0.0819  0.3055  0.0822
 2630TIP3    H129381   2.872   4.094  13.750  0.0403  0.1987  0.0490
 2630TIP3    H229382   3.011   4.127  13.699 -0.2318  0.2451 -0.6578
 2631TIP3   OH229383   4.603   6.307  15.459  0.1155  0.2240  0.8816
 2631TIP3    H129384   4.687   6.267  15.436  0.0186  0.5408 -0.0190
 2631TIP3    H229385   4.623   6.400  15.471 -0.0374  0.2350  1.0561
 2632TIP3   OH229386   2.413   2.231   4.085  0.2548  0.3027 -0.0928
 2632TIP3    H129387   2.484   2.191   4.035  0.1625  0.4698 -0.3627
 2632TIP3    H229388   2.434   2.325   4.085 -0.3021  0.4399 -0.7332
 2633TIP3   OH229389   6.328   5.976  11.013  0.0718  0.0761  0.1457
 2633TIP3    H129390   6.341   5.906  10.949  0.6738  0.0826  0.2538
 2633TIP3    H229391   6.306   5.931  11.094 -0.5672  0.0616 -0.0344
 2634TIP3   OH229392   3.768   3.100  14.970 -0.0552  0.3141  0.4961
 2634TIP3    H129393   3.797   3.062  15.053  2.1778 -3.5446 -1.7391
 2634TIP3    H229394   3.825   3.176  14.957  2.8238 -1.6995  0.5320
 2635TIP3   OH229395   3.634   2.148  15.848 -0.2286 -0.0888 -0.4734
 2635TIP3    H129396   3.700   2.158  15.780  2.1499  1.2968  1.8404
 2635TIP3    H229397   3.604   2.237  15.866  0.9613 -0.0462  1.7767
 2636TIP3   OH229398   5.895   6.292   0.030  0.3767 -0.1105 -0.0683
 2636TIP3    H129399   5.839   6.309   0.106 -0.4146 -0.3566 -0.5934
 2636TIP3    H229400   5.862   6.210  -0.006 -0.3829  0.8727 -1.6981
 2637TIP3   OH229401   4.107   4.566   6.538  0.1888  0.6199  0.0945
 2637TIP3    H129402   4.066   4.486   6.569  0.6147  1.2741  2.5275
 2637TIP3    H229403   4.039   4.633   6.550  1.0021  1.2254  1.5879
 2638TIP3   OH229404   1.964   0.736  11.206 -0.3166 -0.4881 -0.1216
 2638TIP3    H129405   1.980   0.756  11.114 -0.4607 -0.1216 -0.0697
 2638TIP3    H229406   2.049   0.748  11.248 -0.6719  1.4804  0.1572
 2639TIP3   OH229407   4.845   6.230   4.019 -0.0449 -0.4121 -0.0930
 2639TIP3    H129408   4.803   6.179   3.950 -0.5097  0.3554 -0.3950
 2639TIP3    H229409   4.798   6.207   4.099 -0.4676 -0.2054 -0.2839
 2640TIP3   OH229410   0.928   4.440  12.631  0.3798 -0.1049  0.0801
 2640TIP3    H129411   0.908   4.433  12.537  1.9098 -1.5838 -0.1992
 2640TIP3    H229412   0.847   4.469  12.671 -1.3101 -2.5837 -1.3076
 2641TIP3   OH229413   2.785   3.387   2.085  0.5094  0.3780 -0.2647
 2641TIP3    H129414   2.808   3.344   2.003  1.2385  1.2444 -0.5363
 2641TIP3    H229415   2.867   3.390   2.134  0.2060  0.3965  0.2533
 2642TIP3   OH229416   5.867   4.265  11.790  0.2376 -0.0850 -0.4663
 2642TIP3    H129417   5.826   4.270  11.704 -0.8886  1.1671  0.1071
 2642TIP3    H229418   5.799   4.231  11.847  0.3938  0.7657  0.2530
 2643TIP3   OH229419   3.123   4.712   4.103  0.1733  0.0372 -0.1463
 2643TIP3    H129420   3.039   4.671   4.121  0.0674  1.1323  2.1782
 2643TIP3    H229421   3.101   4.800   4.073  0.4888 -0.3880 -1.7430
 2644TIP3   OH229422   3.296   0.474  14.568  0.0580 -0.0250 -0.3923
 2644TIP3    H129423   3.267   0.512  14.651 -2.1664 -0.9920 -0.6344
 2644TIP3    H229424   3.226   0.495  14.506  0.3868 -1.5484 -1.3423
 2645TIP3   OH229425   2.536   4.435  14.345 -0.4113 -0.2980  0.5276
 2645TIP3    H129426   2.470   4.485  14.296  0.0366  0.1576  0.3855
 2645TIP3    H229427   2.489   4.403  14.422 -1.1106 -0.9771 -0.1714
 2646TIP3   OH229428   2.539   4.805   3.827 -0.4408  0.2740 -0.2539
 2646TIP3    H129429   2.618   4.805   3.880 -1.1431 -5.7357  1.5292
 2646TIP3    H229430   2.473   4.849   3.881  0.7702  2.2965 -0.3184
 2647TIP3   OH229431   4.951   2.817   5.705 -0.3948  0.0554 -0.3912
 2647TIP3    H129432   4.873   2.872   5.713  1.1733  2.5848 -1.1130
 2647TIP3    H229433   4.943   2.775   5.620 -0.5220  1.1579 -0.9455
 2648TIP3   OH229434   6.296   5.351  14.915 -0.2288 -0.1640 -0.9594
 2648TIP3    H129435   6.350   5.308  14.848 -0.6909  0.7925 -1.9885
 2648TIP3    H229436   6.209   5.312  14.904 -0.1701 -0.4330 -0.4986
 2649TIP3   OH229437   0.476   2.331   1.429  0.2435  0.3601  0.5255
 2649TIP3    H129438   0.556   2.312   1.477 -0.1096 -1.6987  0.4090
 2649TIP3    H229439   0.503   2.391   1.359  1.1993  1.5342  1.8342
 2650TIP3   OH229440   6.407   1.761  10.582  0.5742  0.7099 -0.1998
 2650TIP3    H129441   6.402   1.782  10.676  0.2211  0.1659 -0.0899
 2650TIP3    H229442   6.317   1.737  10.559  0.9362 -0.5918 -0.3273
 2651TIP3   OH229443   3.012   0.935  16.556 -0.4366 -0.8035 -0.1095
 2651TIP3    H129444   3.004   1.030  16.551  1.1188 -0.5800  0.7945
 2651TIP3    H229445   3.102   0.917  16.529 -0.1888 -1.8459  1.2769
 2652TIP3   OH229446   0.151   5.426   5.439  0.1064 -0.4128 -0.1276
 2652TIP3    H129447   0.182   5.479   5.365  0.7069 -1.0731 -0.3676
 2652TIP3    H229448   0.068   5.389   5.409 -1.8610  2.6752  1.1203
 2653TIP3   OH229449   1.981   2.533  15.746 -0.2643  0.1646 -0.0633
 2653TIP3    H129450   1.939   2.561  15.664 -0.5124 -0.0460 -0.0081
 2653TIP3    H229451   1.913   2.486  15.793 -0.7013  1.8628  1.1133
 2654TIP3   OH229452   3.045   4.729   1.583 -0.0534 -0.7160  0.2127
 2654TIP3    H129453   3.021   4.647   1.540 -0.1085 -0.7527  0.3137
 2654TIP3    H229454   2.963   4.762   1.618  0.0114 -0.7438  0.3904
 2655TIP3   OH229455   5.417   6.177  15.533  0.1583  0.3546  0.1539
 2655TIP3    H129456   5.424   6.207  15.624 -0.4600  1.8837 -0.2870
 2655TIP3    H229457   5.411   6.257  15.481  2.7591 -0.3819 -1.4806
 2656TIP3   OH229458   0.242   1.528  12.038  0.6574  0.0694 -0.0881
 2656TIP3    H129459   0.229   1.532  12.133  1.4252 -0.5130  0.0490
 2656TIP3    H229460   0.329   1.490  12.027  0.1283 -0.9124 -1.0340
 2657TIP3   OH229461   4.495   2.903   4.084  0.2112 -0.0170  0.2710
 2657TIP3    H129462   4.532   2.963   4.149 -1.2846  1.3881 -0.1060
 2657TIP3    H229463   4.555   2.909   4.009  0.2813  0.7400  0.3778
 2658TIP3   OH229464   5.185   5.194  11.698  0.3168 -0.5677  0.4473
 2658TIP3    H129465   5.092   5.212  11.688  0.1836 -1.2860  0.3658
 2658TIP3    H229466   5.216   5.177  11.609  0.6560  0.2437  0.3970
 2659TIP3   OH229467   4.811   5.906   4.222 -0.0262 -0.2305 -0.0384
 2659TIP3    H129468   4.794   5.841   4.291  1.5908 -0.4094  0.2228
 2659TIP3    H229469   4.786   5.989   4.261 -1.4282 -0.5774 -0.1204
 2660TIP3   OH229470   4.562   5.677   6.687 -0.7650 -0.1169 -0.7306
 2660TIP3    H129471   4.619   5.604   6.711 -0.7083  0.3765  0.7610
 2660TIP3    H229472   4.577   5.690   6.593 -0.0041 -1.3364 -0.8000
 2661TIP3   OH229473   1.782   6.076   1.470  0.3346  0.4285 -0.0792
 2661TIP3    H129474   1.764   6.085   1.563  1.6479 -1.8086  0.4688
 2661TIP3    H229475   1.704   6.033   1.434  0.8864 -1.1462  0.5443
 2662TIP3   OH229476   2.681   3.441  14.049 -0.6935 -0.4999  0.0279
 2662TIP3    H129477   2.599   3.396  14.029 -0.4173 -1.2676  0.5589
 2662TIP3    H229478   2.671   3.472  14.139 -0.1728 -1.1567  0.3228
 2663TIP3   OH229479   1.339   4.688   1.517  0.4558  0.1017  0.7052
 2663TIP3    H129480   1.245   4.677   1.531  0.0822  1.8139 -0.2423
 2663TIP3    H229481   1.376   4.692   1.606 -0.1259 -2.0111  1.1026
 2664TIP3   OH229482   4.509   5.989   0.283 -0.5158  0.2567  0.4730
 2664TIP3    H129483   4.477   6.024   0.200  0.4454  0.7615  0.3078
 2664TIP3    H229484   4.604   5.998   0.278 -0.5138  2.1655  2.4161
 2665TIP3   OH229485   0.934   6.392  14.465  0.0145 -0.3880  0.0890
 2665TIP3    H129486   0.986   6.342  14.528  0.5776  0.3179  0.2055
 2665TIP3    H229487   0.904   6.327  14.402  0.1551 -0.9734  0.6104
 2666TIP3   OH229488   1.484   2.571   3.516  0.2908  0.6679 -0.6065
 2666TIP3    H129489   1.466   2.660   3.544  2.2173  0.8718  0.1032
 2666TIP3    H229490   1.517   2.581   3.426 -0.9386  0.4962 -1.0988
 2667TIP3   OH229491   6.049   2.603   3.792 -0.2067 -0.0711 -0.0253
 2667TIP3    H129492   5.995   2.634   3.719 -0.9274 -0.0790  0.4857
 2667TIP3    H229493   6.133   2.582   3.753 -0.4900  0.2013 -0.8032
 2668TIP3   OH229494   1.872   5.057  14.989  0.3929 -0.2262 -0.3401
 2668TIP3    H129495   1.847   5.146  14.962  0.1176  0.2988  1.5506
 2668TIP3    H229496   1.801   5.029  15.047  0.6572 -1.5621 -0.6405
 2669TIP3   OH229497   1.903   5.451   4.675 -0.0445  0.1783  0.1898
 2669TIP3    H129498   1.904   5.356   4.665 -0.9398  0.1499  0.2247
 2669TIP3    H229499   1.841   5.481   4.608  0.4812  0.7727 -0.0472
 2670TIP3   OH229500   0.094   2.856  12.760  0.0080 -0.1949  0.0058
 2670TIP3    H129501   0.077   2.763  12.775 -0.1022 -0.0233  0.9978
 2670TIP3    H229502   0.053   2.875  12.676  1.6594 -1.4738 -1.1588
 2671TIP3   OH229503   4.864   2.529  11.651 -0.5798  0.3834  0.5466
 2671TIP3    H129504   4.951   2.545  11.687  0.8885 -1.4180 -1.8797
 2671TIP3    H229505   4.833   2.451  11.697  0.2182 -0.4543 -0.2951
 2672TIP3   OH229506   3.062   3.188  15.482  0.0835  0.8977  0.1354
 2672TIP3    H129507   2.973   3.161  15.457  0.1240  1.1982 -0.3657
 2672TIP3    H229508   3.097   3.115  15.532  0.0640  0.1738 -0.8768
 2673TIP3   OH229509   2.168   0.829   2.771 -0.0927 -0.3405  0.9069
 2673TIP3    H129510   2.074   0.817   2.787 -0.3881  0.7641  0.1972
 2673TIP3    H229511   2.188   0.768   2.700 -0.5993  0.3025  0.1799
 2674TIP3   OH229512   3.608   1.960   2.819  1.2019  0.4710  0.2965
 2674TIP3    H129513   3.668   1.904   2.868 -0.0129 -0.7282  0.4683
 2674TIP3    H229514   3.552   1.899   2.771  0.6267  1.5775 -0.4725
 2675TIP3   OH229515   6.049   4.602   4.900  0.2426 -0.5831 -0.0811
 2675TIP3    H129516   6.105   4.635   4.829 -0.1411 -0.4852 -0.3459
 2675TIP3    H229517   6.099   4.531   4.939  1.7551  1.2078  1.4532
 2676TIP3   OH229518   1.930   2.679   3.933 -0.1606 -0.4449  0.1142
 2676TIP3    H129519   1.895   2.615   3.994  1.0894 -0.8568  0.4337
 2676TIP3    H229520   2.018   2.698   3.965 -0.2461  0.9308 -0.3635
 2677TIP3   OH229521   5.861   2.987  13.582  0.1125  0.4557 -0.0034
 2677TIP3    H129522   5.771   3.015  13.603 -0.8203 -2.5539  0.4065
 2677TIP3    H229523   5.858   2.892  13.584  3.0592  0.2266 -1.2804
 2678TIP3   OH229524   3.778   1.900   5.988 -0.1330  0.1921 -0.0006
 2678TIP3    H129525   3.835   1.915   6.063 -1.7308  1.0368  1.1258
 2678TIP3    H229526   3.704   1.850   6.024 -1.3509  1.3546 -0.7639
 2679TIP3   OH229527   6.502   0.354  14.203  0.1033 -0.1366 -0.2047
 2679TIP3    H129528   6.536   0.399  14.125  0.1941 -0.7697 -0.5375
 2679TIP3    H229529   6.519   0.415  14.275  0.1918  0.3772 -0.6510
 2680TIP3   OH229530   5.833   1.757   2.457  0.0314  0.3384  0.0140
 2680TIP3    H129531   5.754   1.773   2.405  0.0474  1.4537  0.3069
 2680TIP3    H229532   5.893   1.713   2.397 -1.3106 -1.8538  0.1788
 2681TIP3   OH229533   6.339   3.735  15.861 -0.4448 -0.0993  0.1000
 2681TIP3    H129534   6.256   3.689  15.845  0.1050 -0.5904 -1.5320
 2681TIP3    H229535   6.319   3.794  15.934 -2.3346  0.0367 -0.4519
 2682TIP3   OH229536   5.994   1.110   6.242  0.2815 -0.0882  0.3507
 2682TIP3    H129537   5.966   1.027   6.282 -0.3413 -0.8462 -1.5477
 2682TIP3    H229538   5.943   1.177   6.288  0.5661 -0.7728  1.7056
 2683TIP3   OH229539   6.078   4.661   5.502  0.4968  0.4095 -0.4043
 2683TIP3    H129540   6.124   4.582   5.473  0.9160 -0.0841  1.4673
 2683TIP3    H229541   6.001   4.666   5.446  1.2855 -0.4155 -1.6212
 2684TIP3   OH229542   1.867   0.318  13.838  0.2775 -0.3588 -0.1939
 2684TIP3    H129543   1.827   0.269  13.910 -0.2368 -0.1802 -0.3488
 2684TIP3    H229544   1.795   0.371  13.803  0.9933  1.0781  0.4338
 2685TIP3   OH229545   0.377   2.226  11.744  0.5572 -0.4843  0.1326
 2685TIP3    H129546   0.362   2.277  11.664 -0.6949  0.4286  0.8956
 2685TIP3    H229547   0.435   2.282  11.797  2.8012 -1.8308 -0.7777
 2686TIP3   OH229548   0.238   5.181  14.804  0.1731 -0.0813  0.2498
 2686TIP3    H129549   0.265   5.112  14.864  1.8835  0.6858  0.4277
 2686TIP3    H229550   0.221   5.135  14.721 -1.2218 -1.0078  1.0144
 2687TIP3   OH229551   4.063   0.675  16.009 -0.4981  0.1652  0.3579
 2687TIP3    H129552   4.069   0.738  16.080 -1.5225  1.1946 -0.4300
 2687TIP3    H229553   3.974   0.641  16.014 -0.8170  0.7641 -0.8191
 2688TIP3   OH229554   0.343   3.154   4.705 -0.1162  0.7363 -0.2286
 2688TIP3    H129555   0.268   3.154   4.765 -0.0696 -0.2377 -0.1422
 2688TIP3    H229556   0.358   3.246   4.685 -1.1262  0.9751  0.0221
 2689TIP3   OH229557   6.283   1.135   5.903 -0.2550 -0.1998 -0.1659
 2689TIP3    H129558   6.187   1.138   5.912 -0.5776 -0.7397 -2.6667
 2689TIP3    H229559   6.302   1.044   5.880  0.5641  0.3626 -1.9262
 2690TIP3   OH229560   2.403   6.067   3.846  0.0603  0.0245 -0.3277
 2690TIP3    H129561   2.459   6.056   3.923 -1.3207 -0.6594  0.6374
 2690TIP3    H229562   2.318   6.091   3.882 -0.1982  1.4472 -1.7679
 2691TIP3   OH229563   3.860   0.444  13.578 -0.0807 -0.5453  0.3709
 2691TIP3    H129564   3.898   0.377  13.521 -0.2976  0.6819 -1.2961
 2691TIP3    H229565   3.930   0.509  13.588 -0.2131 -0.5160  1.1016
 2692TIP3   OH229566   4.147   2.569   2.591  0.0954  0.0897 -0.7504
 2692TIP3    H129567   4.171   2.613   2.510  0.2703 -0.6854 -1.1307
 2692TIP3    H229568   4.056   2.541   2.577  0.7119 -1.6772 -1.4309
 2693TIP3   OH229569   6.355   4.517   2.519  0.6664 -0.2330 -0.4405
 2693TIP3    H129570   6.312   4.434   2.499  0.1778  0.1120 -0.8626
 2693TIP3    H229571   6.309   4.581   2.465  0.9418  0.3352 -0.0136
 2694TIP3   OH229572   6.412   6.604   1.797  0.7739  0.0981 -0.5608
 2694TIP3    H129573   6.365   6.679   1.761 -3.9616 -0.3383  3.6262
 2694TIP3    H229574   6.450   6.635   1.879 -0.0110 -1.6242  0.5235
 2695TIP3   OH229575   5.468   3.563  15.583 -0.3544 -0.1047 -0.0973
 2695TIP3    H129576   5.559   3.556  15.613 -0.0118 -0.7031 -1.2403
 2695TIP3    H229577   5.417   3.570  15.664  0.4712 -2.3807  0.6912
 2696TIP3   OH229578   0.672   1.633   2.094 -0.0846 -0.0935  0.3787
 2696TIP3    H129579   0.652   1.633   2.000  0.6131  0.9073  0.2187
 2696TIP3    H229580   0.586   1.631   2.136 -0.4043 -2.2452 -0.2430
 2697TIP3   OH229581   4.094   5.191   1.508  0.5771  0.0076 -0.5090
 2697TIP3    H129582   4.007   5.181   1.546  0.9094 -0.3276  0.1827
 2697TIP3    H229583   4.135   5.105   1.520  1.4433  0.5173  0.3127
 2698TIP3   OH229584   3.014   4.561  16.714 -0.4813 -0.2761 -0.3922
 2698TIP3    H129585   3.109   4.550  16.707 -0.2370  0.6596  0.9844
 2698TIP3    H229586   2.978   4.505  16.646  1.0405 -1.0499 -0.6022
 2699TIP3   OH229587   0.978   4.864   2.999 -0.2949 -0.3761  0.0847
 2699TIP3    H129588   0.902   4.849   3.055 -1.6898  0.8565 -1.3822
 2699TIP3    H229589   0.976   4.791   2.937 -0.6754 -0.0037 -0.3477
 2700TIP3   OH229590   3.040   6.104   0.858 -0.7179 -0.4126 -0.2746
 2700TIP3    H129591   3.021   6.011   0.861  1.8730 -1.0149  1.1371
 2700TIP3    H229592   3.125   6.110   0.816  0.1965  1.0359  1.5973
 2701TIP3   OH229593   5.016   1.289  15.849  0.6491 -0.0234  0.1867
 2701TIP3    H129594   4.940   1.293  15.792  0.2276 -1.8994  0.5530
 2701TIP3    H229595   5.088   1.322  15.796 -0.2918  1.1956 -0.3660
 2702TIP3   OH229596   2.764   6.064   2.475  0.6060 -0.5311  0.0748
 2702TIP3    H129597   2.746   6.026   2.561 -1.8078 -1.1556 -0.6337
 2702TIP3    H229598   2.695   6.029   2.419 -0.8314  3.5641 -1.0474
 2703TIP3   OH229599   6.658   4.729  15.657 -0.3587 -0.7456  0.6112
 2703TIP3    H129600   6.595   4.667  15.620 -0.0628 -1.1158  0.7208
 2703TIP3    H229601   6.629   4.741  15.748  0.0074 -1.2894  0.8023
 2704TIP3   OH229602   1.403   1.068  12.202  0.2415 -0.6476  0.4755
 2704TIP3    H129603   1.399   1.057  12.107  0.4622 -1.0171  0.5049
 2704TIP3    H229604   1.319   1.105  12.226  0.6349  0.6000 -0.0127
 2705TIP3   OH229605   3.659   4.901   5.799 -0.0366  0.0771  0.2181
 2705TIP3    H129606   3.579   4.916   5.749 -0.0310 -0.7205 -0.0418
 2705TIP3    H229607   3.631   4.905   5.890 -0.6018 -1.2639  0.1315
 2706TIP3   OH229608   5.273   6.389  16.883  0.5895  0.5261  0.3297
 2706TIP3    H129609   5.225   6.312  16.914 -0.2407  1.1277  0.5618
 2706TIP3    H229610   5.321   6.420  16.960  0.1642  0.8012  0.4862
 2707TIP3   OH229611   4.439   6.438   2.225 -0.3927  0.2679  0.3798
 2707TIP3    H129612   4.461   6.376   2.156 -1.8112 -0.9911  1.0135
 2707TIP3    H229613   4.410   6.516   2.178  1.8868  0.7040 -0.4258
 2708TIP3   OH229614   4.413   6.249   2.010 -0.3946  0.3098 -0.5640
 2708TIP3    H129615   4.497   6.214   1.980 -0.5710 -0.1073 -0.5743
 2708TIP3    H229616   4.368   6.275   1.929  0.0660  1.3406 -0.5119
 2709TIP3   OH229617   4.986   5.210   4.412  0.0328  0.8293  0.3166
 2709TIP3    H129618   5.044   5.233   4.340 -0.7244  1.9482  0.0387
 2709TIP3    H229619   5.023   5.130   4.448  2.1381  1.8442  0.5641
 2710TIP3   OH229620   0.293   0.918  11.825 -0.8260 -0.0468  0.1295
 2710TIP3    H129621   0.369   0.941  11.771  0.0140 -0.4917  1.0944
 2710TIP3    H229622   0.272   0.999  11.872  0.2865 -0.4182  1.3143
 2711TIP3   OH229623   1.821   0.124  17.184  0.5736  0.2210 -0.2214
 2711TIP3    H129624   1.744   0.108  17.239  0.7511  0.0330 -0.0262
 2711TIP3    H229625   1.849   0.213  17.207  0.9296 -0.0276  0.3456
 2712TIP3   OH229626   4.152   6.666  14.505 -0.0420 -0.1560 -0.0293
 2712TIP3    H129627   4.108   6.740  14.464 -3.0478 -1.0806  1.2302
 2712TIP3    H229628   4.220   6.705  14.559 -2.1804  1.8823  1.3889
 2713TIP3   OH229629   4.548   4.793   5.696 -0.5826  0.2008 -0.2535
 2713TIP3    H129630   4.562   4.760   5.785 -0.9736  2.3247  0.6399
 2713TIP3    H229631   4.533   4.714   5.644  1.2675 -1.2244  1.2178
 2714TIP3   OH229632   3.770   1.830   3.204  0.6643 -0.3846  0.0930
 2714TIP3    H129633   3.777   1.841   3.109  1.7124 -0.3402  0.1623
 2714TIP3    H229634   3.836   1.891   3.239  0.7561 -0.8988  0.8142
 2715TIP3   OH229635   3.103   2.452   1.073  0.6007  0.7264 -0.1393
 2715TIP3    H129636   3.042   2.521   1.046  0.7447  1.1335  0.5476
 2715TIP3    H229637   3.095   2.449   1.169  2.0121  1.1149  0.0064
 2716TIP3   OH229638   4.384   2.551  17.324  0.4579  0.0963 -0.4055
 2716TIP3    H129639   4.328   2.607  17.377 -2.0554 -0.4194 -2.3244
 2716TIP3    H229640   4.414   2.607  17.253 -2.4574 -0.8793 -2.6080
 2717TIP3   OH229641   5.636   3.110  15.116  0.0574 -0.2475 -0.8938
 2717TIP3    H129642   5.618   3.043  15.050 -0.1685  0.6159 -1.7231
 2717TIP3    H229643   5.690   3.175  15.071  2.3745 -1.0436  0.5733
 2718TIP3   OH229644   2.076   1.434   0.739 -0.4317 -0.2061  0.4609
 2718TIP3    H129645   2.056   1.408   0.829  0.3278 -0.7720  0.4766
 2718TIP3    H229646   2.167   1.405   0.725 -0.7681 -0.7550 -0.7198
 2719TIP3   OH229647   2.595   5.938   5.926  0.3292  0.5003 -0.3799
 2719TIP3    H129648   2.671   5.889   5.896  0.1196  0.6137 -1.1417
 2719TIP3    H229649   2.626   5.990   5.999  0.6137 -0.5723  0.2763
 2720TIP3   OH229650   6.500   0.046  11.985  0.6460  0.2438  0.5308
 2720TIP3    H129651   6.460  -0.011  12.050 -0.5353  2.0081  1.4152
 2720TIP3    H229652   6.584   0.004  11.965  0.2500 -1.2754  1.8424
 2721TIP3   OH229653   2.183   2.554   6.633  0.2202  0.0688  0.1752
 2721TIP3    H129654   2.196   2.468   6.592  1.1464 -0.4690  1.5626
 2721TIP3    H229655   2.194   2.616   6.561 -3.0217 -0.9993 -1.4560
 2722TIP3   OH229656   0.017   4.846   3.524  0.6278 -0.2480  0.1564
 2722TIP3    H129657  -0.030   4.926   3.503 -0.4422 -0.4600  1.5637
 2722TIP3    H229658   0.097   4.875   3.568  0.6110  0.0502 -0.0083
 2723TIP3   OH229659   1.891   4.615  17.007 -0.1353 -0.3513  0.4028
 2723TIP3    H129660   1.850   4.559  16.941  1.2655  1.2715 -2.0228
 2723TIP3    H229661   1.968   4.566  17.035 -0.5779 -0.9302  0.6254
 2724TIP3   OH229662   0.705   5.235   0.745  0.2429 -1.3608  0.3115
 2724TIP3    H129663   0.666   5.282   0.818 -1.2369 -1.8123 -0.1590
 2724TIP3    H229664   0.778   5.291   0.717 -0.2609 -0.3194  1.0033
 2725TIP3   OH229665   2.802   0.482   0.104  0.2434  0.1796 -0.2794
 2725TIP3    H129666   2.883   0.432   0.092  0.5706  0.9646 -1.6078
 2725TIP3    H229667   2.768   0.453   0.188  1.6601 -0.5219  0.0859
 2726TIP3   OH229668   0.001   4.277   1.664 -0.6938  0.1690  0.2854
 2726TIP3    H129669   0.060   4.352   1.661 -0.7600  0.2200  0.2359
 2726TIP3    H229670  -0.073   4.307   1.718 -0.3898 -0.1030  0.8631
 2727TIP3   OH229671   5.457   6.050  17.405 -0.1762 -0.8190  0.0747
 2727TIP3    H129672   5.433   6.004  17.485 -1.6331 -0.2625 -0.0125
 2727TIP3    H229673   5.523   5.995  17.364 -1.0212 -2.2317  0.5605
 2728TIP3   OH229674   5.254   6.052  11.552  0.2820 -0.4000 -0.4330
 2728TIP3    H129675   5.333   6.040  11.500  0.5018 -2.3032  0.2559
 2728TIP3    H229676   5.182   6.045  11.489  0.6186  0.2035 -0.8904
 2729TIP3   OH229677   6.383   0.352   1.410 -0.2542  0.5327 -0.7960
 2729TIP3    H129678   6.388   0.287   1.340 -0.9078  0.2090 -0.5513
 2729TIP3    H229679   6.308   0.406   1.387 -0.3562  0.5405 -0.4465
 2730TIP3   OH229680   2.066   0.614  12.971  0.1020  0.3344 -0.6588
 2730TIP3    H129681   2.030   0.694  13.010 -1.2248 -0.1809 -0.8065
 2730TIP3    H229682   2.002   0.588  12.906  1.2982  0.0147 -1.7476
 2731TIP3   OH229683   3.045   6.584   4.421 -0.3237  0.4503  0.0438
 2731TIP3    H129684   3.135   6.616   4.419 -0.4400  0.7326 -1.8132
 2731TIP3    H229685   3.047   6.512   4.484  1.2944  0.1840 -0.2649
 2732TIP3   OH229686   1.153   1.200   0.019  0.4628 -0.6132  0.2574
 2732TIP3    H129687   1.080   1.262   0.011  1.0328  0.0985  0.3843
 2732TIP3    H229688   1.167   1.193   0.113  0.8050 -0.4456  0.2191
 2733TIP3   OH229689   0.110   6.236  16.174  0.2465  0.5181  0.3102
 2733TIP3    H129690   0.135   6.224  16.082  0.4982  0.0755  0.4306
 2733TIP3    H229691   0.140   6.324  16.196  2.4325 -0.2592  0.6695
 2734TIP3   OH229692   1.898   0.680  15.777 -0.0510 -0.1283  0.3003
 2734TIP3    H129693   1.826   0.656  15.835 -0.7901 -0.3194 -0.6742
 2734TIP3    H229694   1.967   0.710  15.836 -1.0025  0.2721  1.2442
 2735TIP3   OH229695   0.607   2.872   3.239  0.4488 -0.1901 -0.3516
 2735TIP3    H129696   0.556   2.823   3.304 -0.6090  1.6334  0.2697
 2735TIP3    H229697   0.542   2.904   3.177  1.3116 -0.8609 -1.6340
 2736TIP3   OH229698   4.798   2.337  17.025 -0.0971 -0.5151 -0.1510
 2736TIP3    H129699   4.793   2.391  17.103  0.6038 -0.1640 -0.3419
 2736TIP3    H229700   4.891   2.319  17.014 -0.2690 -1.2993 -0.4053
 2737TIP3   OH229701   6.553   2.870  14.599 -0.1661 -0.0880 -0.3592
 2737TIP3    H129702   6.632   2.924  14.608 -1.2109  1.1589  2.2483
 2737TIP3    H229703   6.480   2.932  14.603 -1.3489 -1.3273 -1.5458
 2738TIP3   OH229704   2.414   5.952  13.885  0.5118 -0.0325  0.1804
 2738TIP3    H129705   2.470   6.023  13.915 -1.2329  1.3930  0.1975
 2738TIP3    H229706   2.443   5.935  13.795  1.9881 -0.4286  0.7089
 2739TIP3   OH229707   2.431   2.184  12.269 -0.8005 -0.5156  0.6107
 2739TIP3    H129708   2.511   2.168  12.320  1.0894  0.8667 -1.7523
 2739TIP3    H229709   2.452   2.157  12.180 -2.4814  1.1706 -0.3957
 2740TIP3   OH229710   6.466   2.969  15.799 -0.0200 -0.1986  0.2001
 2740TIP3    H129711   6.483   3.022  15.721  0.1880  0.0207  0.3931
 2740TIP3    H229712   6.493   2.881  15.775  0.5391 -0.0289  0.2006
 2741TIP3   OH229713   5.213   2.058  16.352 -0.3916 -0.6415  0.1521
 2741TIP3    H129714   5.173   2.144  16.368 -0.0839 -0.1463 -1.4791
 2741TIP3    H229715   5.198   2.009  16.433 -0.2536  1.0623  1.2730
 2742TIP3   OH229716   3.242   1.620  14.067  0.0979 -0.3017 -0.4439
 2742TIP3    H129717   3.277   1.707  14.084  3.1058 -1.2563 -1.1456
 2742TIP3    H229718   3.219   1.586  14.154  3.1391 -0.3705  0.4620
 2743TIP3   OH229719   3.351   5.401   0.096  0.0035 -0.2638 -0.4204
 2743TIP3    H129720   3.331   5.309   0.077  3.4227 -1.0078 -1.0271
 2743TIP3    H229721   3.392   5.400   0.182 -0.6243  0.8450 -0.0907
 2744TIP3   OH229722   5.159   0.634  15.412 -0.2396  0.1261  0.1281
 2744TIP3    H129723   5.153   0.697  15.484  0.0591  0.7603 -0.3999
 2744TIP3    H229724   5.112   0.674  15.340  1.7850  0.7751 -0.9194
 2745TIP3   OH229725   0.931   6.267   5.570 -0.3026  0.6527 -0.3466
 2745TIP3    H129726   0.903   6.353   5.539 -0.8471 -0.1526 -2.2003
 2745TIP3    H229727   0.965   6.222   5.493 -2.8743 -1.9246 -0.1520
 2746TIP3   OH229728   1.855   4.368   1.881  0.4006 -0.3409  0.8146
 2746TIP3    H129729   1.781   4.373   1.941  1.3602  0.4984  1.9502
 2746TIP3    H229730   1.822   4.405   1.799 -0.6466 -0.6760  1.0729
 2747TIP3   OH229731   2.174   3.159   1.731  0.1550 -0.3648  0.0805
 2747TIP3    H129732   2.181   3.200   1.818  2.3381  2.6107 -1.3049
 2747TIP3    H229733   2.258   3.115   1.718  0.8345  1.1933 -1.2958
 2748TIP3   OH229734   1.593   3.850   3.005 -1.0128 -0.6319 -0.0529
 2748TIP3    H129735   1.572   3.875   2.915  1.9895 -0.1815 -0.7131
 2748TIP3    H229736   1.626   3.929   3.046 -0.4515 -1.3012  0.8406
 2749TIP3   OH229737   0.467   3.564  11.246  0.1619 -0.2172 -0.0838
 2749TIP3    H129738   0.483   3.545  11.153 -0.4954  0.0046 -0.2463
 2749TIP3    H229739   0.372   3.558  11.255  0.2851 -1.0966  0.7708
 2750TIP3   OH229740   2.532   0.758   2.662 -0.0989  0.1224  0.2206
 2750TIP3    H129741   2.505   0.849   2.647 -0.0893 -0.2333 -2.3372
 2750TIP3    H229742   2.476   0.729   2.734 -1.6169  1.5170 -0.3154
 2751TIP3   OH229743   2.648   4.312  14.742  0.0060  0.1577 -0.1328
 2751TIP3    H129744   2.735   4.274  14.753 -0.2000  0.0100  1.2257
 2751TIP3    H229745   2.591   4.237  14.726  0.0709  0.2285 -0.7357
 2752TIP3   OH229746   5.880   1.705  17.417  0.2675  0.4009 -0.3115
 2752TIP3    H129747   5.847   1.723  17.505 -1.8465  0.5734 -1.0825
 2752TIP3    H229748   5.924   1.785  17.390  0.8272  0.3833  0.5307
 2753TIP3   OH229749   3.429   3.631   3.136 -0.9416 -0.1508  0.1622
 2753TIP3    H129750   3.449   3.615   3.043 -1.2129 -0.3369  0.1351
 2753TIP3    H229751   3.458   3.721   3.151 -2.8619  0.6738 -0.6724
 2754TIP3   OH229752   1.407   4.449   2.497  0.4557  0.0181  0.0937
 2754TIP3    H129753   1.333   4.486   2.546 -0.5503  0.2440 -1.5014
 2754TIP3    H229754   1.403   4.355   2.514 -0.5098 -0.0311 -0.3477
 2755TIP3   OH229755   1.339   6.451   0.597  0.2386 -0.3835 -0.4117
 2755TIP3    H129756   1.342   6.427   0.504 -0.8387  0.4738 -0.6904
 2755TIP3    H229757   1.424   6.424   0.631  0.4961 -1.0994 -1.5463
 2756TIP3   OH229758   4.671   3.457   2.858  0.3679 -1.0550 -0.1704
 2756TIP3    H129759   4.712   3.371   2.848  1.0944 -0.5492 -1.9401
 2756TIP3    H229760   4.605   3.461   2.789  2.4891  0.9412 -2.2756
 2757TIP3   OH229761   0.407   0.236  12.428 -0.6704  0.1610 -0.1659
 2757TIP3    H129762   0.374   0.243  12.338 -0.1965  1.2315 -0.2733
 2757TIP3    H229763   0.478   0.301  12.432  0.6297 -1.2329  0.4119
 2758TIP3   OH229764   2.797   5.255   2.222  0.5473 -0.2598  0.1741
 2758TIP3    H129765   2.851   5.213   2.289  1.8663  1.2343  0.1122
 2758TIP3    H229766   2.775   5.340   2.260  0.2947  0.1214 -0.8001
 2759TIP3   OH229767   6.050   5.590  15.522 -0.0016 -0.4342 -0.3511
 2759TIP3    H129768   6.141   5.616  15.537  0.1600 -1.5466  0.7388
 2759TIP3    H229769   6.034   5.613  15.431  0.4476  2.4488  0.1890
 2760TIP3   OH229770   0.567   5.300  16.709 -0.0253 -0.6618  0.4786
 2760TIP3    H129771   0.514   5.376  16.732  1.3830  0.2742  0.7645
 2760TIP3    H229772   0.656   5.324  16.735  0.7473 -1.7164 -1.0396
 2761TIP3   OH229773   3.264   6.455   5.447 -0.1995  0.4558 -0.5046
 2761TIP3    H129774   3.254   6.363   5.474 -0.2662  0.2639 -1.1846
 2761TIP3    H229775   3.191   6.472   5.389 -0.9784  1.3644  0.6947
 2762TIP3   OH229776   5.195   1.592  17.155 -0.3882 -0.2076  0.0852
 2762TIP3    H129777   5.178   1.554  17.242 -0.2955  0.0256  0.2068
 2762TIP3    H229778   5.263   1.657  17.170 -2.3046  1.8758  0.3772
 2763TIP3   OH229779   5.469   5.095   5.183 -0.0144  0.4649  0.4571
 2763TIP3    H129780   5.492   5.049   5.264 -1.0868 -0.7018  0.1265
 2763TIP3    H229781   5.520   5.051   5.115 -0.6610  0.0825  0.2117
 2764TIP3   OH229782   2.182   5.830  17.090 -0.6498  0.1179  0.0197
 2764TIP3    H129783   2.203   5.845  16.998  0.2721 -0.2029  0.1632
 2764TIP3    H229784   2.267   5.828  17.134 -1.1150  1.0417  1.0102
 2765TIP3   OH229785   1.439   0.805  16.182  0.0410  0.2382  0.1841
 2765TIP3    H129786   1.493   0.845  16.250  0.7870 -0.1698 -0.1474
 2765TIP3    H229787   1.428   0.714  16.211 -0.6648  0.3731  0.3602
 2766TIP3   OH229788   5.400   2.963   0.231  0.6967  0.1534  0.1408
 2766TIP3    H129789   5.370   3.029   0.294  0.2515  0.2446 -0.1565
 2766TIP3    H229790   5.459   3.012   0.172  0.1991  0.3458 -0.2089
 2767TIP3   OH229791   6.465   6.629  14.689 -0.0558 -0.1444  0.3083
 2767TIP3    H129792   6.491   6.591  14.606  1.3210  1.8594 -0.2449
 2767TIP3    H229793   6.546   6.635  14.740  0.0130  2.6490  0.0505
 2768TIP3   OH229794   3.332   2.211   6.480  0.5252  0.2465  0.1010
 2768TIP3    H129795   3.241   2.240   6.475  0.1006 -0.9876  0.5179
 2768TIP3    H229796   3.373   2.274   6.539 -0.0188  0.8902 -0.1937
 2769TIP3   OH229797   2.585   5.698   2.058 -0.0135  0.1505 -0.0161
 2769TIP3    H129798   2.668   5.713   2.102  0.3424  0.9148 -0.8874
 2769TIP3    H229799   2.585   5.605   2.035  0.6385  0.1582 -0.0617
 2770TIP3   OH229800   4.014   4.160  13.600 -0.4642 -0.0647  0.0977
 2770TIP3    H129801   3.980   4.249  13.585  0.9093  0.2469 -1.6601
 2770TIP3    H229802   3.973   4.107  13.532  0.2069 -0.3275 -0.1144
 2771TIP3   OH229803   3.444   3.664  13.972  0.1467  0.4917 -0.2143
 2771TIP3    H129804   3.508   3.652  14.042  1.8835  0.1368 -1.7729
 2771TIP3    H229805   3.367   3.615  14.001  0.4003  1.2507  1.8978
 2772TIP3   OH229806   6.122   2.434   5.439 -0.3519 -0.4476 -0.3972
 2772TIP3    H129807   6.129   2.527   5.463 -2.9880 -0.2630 -0.0771
 2772TIP3    H229808   6.142   2.387   5.520 -2.2980 -0.0187  0.3786
 2773TIP3   OH229809   2.916   6.689  16.690  0.0232  0.1672 -0.0602
 2773TIP3    H129810   2.909   6.612  16.634 -1.2789  0.2199  0.0007
 2773TIP3    H229811   2.908   6.655  16.779  1.6090  0.1419  0.1103
 2774TIP3   OH229812   0.770   6.520   4.945  0.1220 -0.1009  0.3324
 2774TIP3    H129813   0.807   6.535   5.032  0.4844 -0.4487  0.2398
 2774TIP3    H229814   0.846   6.506   4.889 -0.1427 -0.9302  0.1603
 2775TIP3   OH229815   6.420   2.681  14.093 -0.5997  0.1357 -0.7821
 2775TIP3    H129816   6.500   2.728  14.115 -0.3825 -0.7099  0.3472
 2775TIP3    H229817   6.350   2.744  14.110 -0.1908  0.9787 -2.0539
 2776TIP3   OH229818   2.274   0.732   4.171 -0.2499 -0.2715  0.0075
 2776TIP3    H129819   2.277   0.673   4.096  0.8927 -0.1255 -0.0783
 2776TIP3    H229820   2.288   0.819   4.133 -0.9207 -0.0501  0.2515
 2777TIP3   OH229821   0.602   1.199   5.083 -0.0747  0.4070  0.5870
 2777TIP3    H129822   0.688   1.195   5.040  0.2746  2.4091  1.0147
 2777TIP3    H229823   0.539   1.189   5.011  0.4990 -0.3301  0.1711
 2778TIP3   OH229824   2.617   1.510  15.947  0.2976  0.6674 -0.2805
 2778TIP3    H129825   2.652   1.529  15.860 -0.8279  0.0250 -0.8827
 2778TIP3    H229826   2.693   1.518  16.005  1.2156  0.3632 -1.4083
 2779TIP3   OH229827   3.459   4.638  12.316 -0.4358 -0.1039 -0.4509
 2779TIP3    H129828   3.420   4.723  12.337 -0.4640 -0.4662  1.0793
 2779TIP3    H229829   3.428   4.619  12.227 -0.7946  1.2704 -0.6484
 2780TIP3   OH229830   3.830   0.171   0.467  0.9687 -0.2290 -0.1247
 2780TIP3    H129831   3.868   0.097   0.420  1.9270  0.5193 -0.5775
 2780TIP3    H229832   3.858   0.248   0.417 -2.6036  0.3567 -1.5291
 2781TIP3   OH229833   0.208   4.632  11.551  0.0256  0.1698 -0.7432
 2781TIP3    H129834   0.127   4.682  11.544  0.7700  1.5063 -0.0881
 2781TIP3    H229835   0.261   4.660  11.477  0.9592  1.3759  0.3365
 2782TIP3   OH229836   4.129   0.962  15.074  0.0779 -0.1208  0.2181
 2782TIP3    H129837   4.198   0.986  15.012 -0.3180  1.9125  0.4835
 2782TIP3    H229838   4.072   1.039  15.077 -0.6290 -0.6585  2.1337
 2783TIP3   OH229839   4.402   4.158   1.116 -0.4607 -0.2725 -0.2596
 2783TIP3    H129840   4.318   4.117   1.134 -0.3438 -0.0769  0.8272
 2783TIP3    H229841   4.457   4.132   1.190  1.0451 -1.9845 -1.8929
 2784TIP3   OH229842   0.616   4.010   5.159  0.0913 -0.6498  0.1828
 2784TIP3    H129843   0.569   3.936   5.198 -2.9642  1.3028  0.5404
 2784TIP3    H229844   0.645   3.978   5.074 -3.1566 -1.7414 -0.6814
 2785TIP3   OH229845   5.713   1.458   4.288 -0.0312 -0.4139 -0.5218
 2785TIP3    H129846   5.780   1.491   4.228  0.4906 -1.8710 -0.7788
 2785TIP3    H229847   5.647   1.527   4.290  0.9146  0.5538 -1.1694
 2786TIP3   OH229848   4.167   2.786   5.964 -0.5707  0.3207 -0.2610
 2786TIP3    H129849   4.204   2.874   5.955  0.4771 -0.0974 -0.2003
 2786TIP3    H229850   4.120   2.771   5.882  0.8018  0.2448 -1.0664
 2787TIP3   OH229851   0.685   1.971   0.517 -0.5711 -0.3249 -0.2295
 2787TIP3    H129852   0.625   1.911   0.562  1.2864 -1.2117  1.2001
 2787TIP3    H229853   0.736   2.011   0.587  1.1473 -0.3295 -1.4129
 2788TIP3   OH229854   1.246   1.690  13.904  0.3816  0.6659 -0.4924
 2788TIP3    H129855   1.178   1.732  13.957  1.8459  0.6892  1.4678
 2788TIP3    H229856   1.325   1.697  13.957  1.6725 -0.3812 -2.2060
 2789TIP3   OH229857   4.445   1.974  14.562  0.3072  0.0672  0.4362
 2789TIP3    H129858   4.534   1.999  14.534  0.2990  0.9928  1.2010
 2789TIP3    H229859   4.422   1.900  14.505  1.8400 -0.6477  0.6949
 2790TIP3   OH229860   6.209   5.267   6.048 -0.4122  0.2556 -0.1193
 2790TIP3    H129861   6.139   5.326   6.076 -1.6263 -1.8991  1.6942
 2790TIP3    H229862   6.289   5.307   6.082 -1.0897  1.2919  0.3085
 2791TIP3   OH229863   3.884   3.945  13.136 -0.4808 -0.7196 -0.1901
 2791TIP3    H129864   3.804   3.986  13.102 -0.9711 -1.4699  0.0385
 2791TIP3    H229865   3.928   3.912  13.057 -1.1905 -1.6961 -0.1981
 2792TIP3   OH229866   2.957   3.315   0.519  0.3533  0.2030  0.2715
 2792TIP3    H129867   2.964   3.286   0.428  0.7582 -0.1881  0.4173
 2792TIP3    H229868   2.927   3.237   0.566 -0.1969  0.5026  0.4208
 2793TIP3   OH229869   3.255   0.486   4.979  0.3811 -0.0551  0.1339
 2793TIP3    H129870   3.171   0.531   4.966  1.0881  0.6045 -3.1542
 2793TIP3    H229871   3.245   0.403   4.934  1.3147 -0.2270  0.2222
 2794TIP3   OH229872   3.927   2.738   1.504 -0.2739 -0.3123 -0.4997
 2794TIP3    H129873   3.850   2.686   1.527 -0.4151  0.1056 -0.0176
 2794TIP3    H229874   3.891   2.823   1.477  0.1164  1.1566  3.0820
 2795TIP3   OH229875   2.034   1.623   5.000  0.5759 -0.2659  0.0439
 2795TIP3    H129876   2.061   1.600   4.911  1.0749  1.1797 -0.2115
 2795TIP3    H229877   2.099   1.582   5.057 -0.4894 -2.3156 -0.1363
 2796TIP3   OH229878   5.174   2.215   4.472  0.1643 -1.2968  0.2547
 2796TIP3    H129879   5.101   2.233   4.413  1.4426 -1.2666 -1.3984
 2796TIP3    H229880   5.251   2.214   4.415  1.4689 -1.2831  1.9369
 2797TIP3   OH229881   5.339   0.583  13.445 -0.0870 -0.2265 -0.0027
 2797TIP3    H129882   5.431   0.579  13.419  0.6652  4.4822  1.0449
 2797TIP3    H229883   5.338   0.549  13.534  0.2096 -2.0153 -0.6419
 2798TIP3   OH229884   3.816   1.797   4.056  0.7195  0.2616  0.0886
 2798TIP3    H129885   3.734   1.775   4.100  1.8230 -0.2788  1.9866
 2798TIP3    H229886   3.806   1.889   4.031  0.5352  1.0932  2.8538
 2799TIP3   OH229887   4.332   5.020   1.297 -0.0310 -0.1827  0.1201
 2799TIP3    H129888   4.368   4.938   1.332 -0.2567  0.6514  2.4703
 2799TIP3    H229889   4.381   5.035   1.216  1.8921 -1.2840  1.0086
 2800TIP3   OH229890   0.588   0.320  17.414  0.4120  0.4780  0.4206
 2800TIP3    H129891   0.641   0.241  17.422  2.2773  1.7179  1.2251
 2800TIP3    H229892   0.592   0.343  17.322 -1.1481 -0.9724 -0.0474
 2801TIP3   OH229893   2.416   1.091  13.124 -0.0278  0.4858  0.4366
 2801TIP3    H129894   2.426   1.009  13.076  0.7608  1.2441 -0.7419
 2801TIP3    H229895   2.479   1.151  13.083 -1.0906  1.8966  0.7839
 2802TIP3   OH229896   1.948   2.806   2.976  0.2863 -0.3308  0.2764
 2802TIP3    H129897   1.853   2.792   2.969  0.5672 -1.4675 -2.6747
 2802TIP3    H229898   1.959   2.900   2.964 -0.4273 -0.3434 -0.6378
 2803TIP3   OH229899   5.955   1.325  13.106 -0.0924 -0.4242  0.1625
 2803TIP3    H129900   5.893   1.253  13.119  0.2537 -0.6627  0.5259
 2803TIP3    H229901   6.032   1.284  13.068  1.0644 -0.7248  2.6007
 2804TIP3   OH229902   2.401   3.470  15.686 -0.4532 -0.5021  0.8857
 2804TIP3    H129903   2.457   3.432  15.618 -0.3595  3.0403 -1.3082
 2804TIP3    H229904   2.334   3.404  15.701 -0.1471 -1.7446 -2.3097
 2805TIP3   OH229905   4.718   4.112  16.786 -0.5939  0.5124  0.1641
 2805TIP3    H129906   4.625   4.100  16.806 -0.6246 -1.8987 -1.0681
 2805TIP3    H229907   4.758   4.028  16.806  0.8629  0.6792 -1.7291
 2806TIP3   OH229908   1.254   4.132   1.545 -0.5911  0.2714 -0.0645
 2806TIP3    H129909   1.259   4.150   1.638 -0.5802  0.8204 -0.1682
 2806TIP3    H229910   1.340   4.157   1.511 -0.4163 -0.4097 -0.1439
 2807TIP3   OH229911   2.071   0.874  13.144 -0.2763 -0.0248 -0.2602
 2807TIP3    H129912   2.054   0.813  13.215 -0.4680 -0.5946 -0.7889
 2807TIP3    H229913   2.085   0.958  13.187  0.1827 -0.4764  0.4857
 2808TIP3   OH229914   3.879   6.247   0.911  0.2562 -0.5309  0.2843
 2808TIP3    H129915   3.887   6.255   0.816 -2.7153 -1.7183 -0.1942
 2808TIP3    H229916   3.946   6.184   0.936  1.3894  0.1554 -0.9298
 2809TIP3   OH229917   6.302   2.322  12.159 -0.7851 -0.4488 -0.0551
 2809TIP3    H129918   6.298   2.249  12.220 -0.6524  1.2799  2.1274
 2809TIP3    H229919   6.395   2.337  12.146 -0.7625  0.6472  1.2142
 2810TIP3   OH229920   5.762   1.984  16.448 -0.1561  0.1394 -0.4952
 2810TIP3    H129921   5.694   1.918  16.454 -1.0278  1.0358 -0.3113
 2810TIP3    H229922   5.835   1.948  16.499 -1.6243  0.5333  2.0413
 2811TIP3   OH229923   0.239   0.669  17.162 -0.1766  0.1159 -0.3079
 2811TIP3    H129924   0.248   0.600  17.096 -0.3068 -1.0112  0.8264
 2811TIP3    H229925   0.168   0.639  17.219  0.5358  0.6145  0.8813
 2812TIP3   OH229926   6.484   6.255  16.087  0.1342 -0.3827 -0.2101
 2812TIP3    H129927   6.431   6.209  16.152  0.1357  0.1240  0.1601
 2812TIP3    H229928   6.552   6.298  16.139 -1.5853  2.5210 -0.1497
 2813TIP3   OH229929   1.444   3.031   2.159  0.3105 -0.3529 -0.0877
 2813TIP3    H129930   1.503   3.054   2.088  1.0578 -1.0764  0.2850
 2813TIP3    H229931   1.444   2.935   2.161  0.1012 -0.3433  0.7101
 2814TIP3   OH229932   4.170   1.730   4.026  0.5292  0.1181 -0.0337
 2814TIP3    H129933   4.162   1.822   4.051 -0.1547 -0.3134  1.5140
 2814TIP3    H229934   4.116   1.721   3.948 -3.5937  0.1510  2.4668
 2815TIP3   OH229935   0.899   2.463   4.144 -0.1022  0.3222  0.6170
 2815TIP3    H129936   0.949   2.382   4.150 -1.6787 -0.6980  0.7081
 2815TIP3    H229937   0.961   2.527   4.111  1.0893 -1.0164  0.1486
 2816TIP3   OH229938   3.746   6.444  11.493  0.3849 -0.2527 -0.3472
 2816TIP3    H129939   3.713   6.409  11.576 -0.1768  1.4220  0.1897
 2816TIP3    H229940   3.838   6.462  11.511  0.0794  0.8688  0.2242
 2817TIP3   OH229941   3.219   1.452   3.894  0.2087 -0.2809  0.0753
 2817TIP3    H129942   3.162   1.418   3.963  0.2105  0.0778  0.2547
 2817TIP3    H229943   3.276   1.515   3.938  1.3974 -1.3245  0.0795
 2818TIP3   OH229944   1.445   1.364  12.067 -0.4438  0.3792 -0.4672
 2818TIP3    H129945   1.484   1.362  11.979  2.4691 -0.8437  0.7479
 2818TIP3    H229946   1.514   1.398  12.123 -2.1766  0.9621  1.4417
 2819TIP3   OH229947   2.267   0.606  10.483 -0.1209 -0.5691  0.2016
 2819TIP3    H129948   2.243   0.646  10.399 -1.6071  0.3861  1.0442
 2819TIP3    H229949   2.184   0.576  10.520  0.7169 -2.5203  0.5969
 2820TIP3   OH229950   1.701   2.337   3.532 -0.4239 -0.4940  0.5756
 2820TIP3    H129951   1.773   2.383   3.490 -1.2360  0.6937  0.4479
 2820TIP3    H229952   1.628   2.399   3.532 -2.1267 -2.3158 -1.1421
 2821TIP3   OH229953   1.956   1.919  12.246  0.4453  0.6950  0.1547
 2821TIP3    H129954   2.019   1.854  12.279  0.6893  2.7283  4.2171
 2821TIP3    H229955   1.877   1.869  12.230  0.9284 -0.8463  2.1653
 2822TIP3   OH229956   0.234   1.522   4.660 -0.5184 -0.2188 -0.5043
 2822TIP3    H129957   0.298   1.512   4.730 -0.9992 -1.9914 -0.2641
 2822TIP3    H229958   0.214   1.616   4.658  1.4890  0.2670 -0.0923
 2823TIP3   OH229959   1.178   1.878   3.619 -0.1921 -0.1994  0.0695
 2823TIP3    H129960   1.215   1.935   3.687 -2.4984 -1.3509  2.4633
 2823TIP3    H229961   1.090   1.911   3.605 -0.3902 -1.1248 -1.0250
 2824TIP3   OH229962   5.512   2.667   2.065 -0.0393  0.4151 -0.2234
 2824TIP3    H129963   5.445   2.600   2.049 -0.8441  1.2967 -0.5865
 2824TIP3    H229964   5.551   2.683   1.979  2.8914 -2.3338  0.3767
 2825TIP3   OH229965   1.972   5.160   4.766 -0.3239  0.2661 -0.0518
 2825TIP3    H129966   1.885   5.144   4.730  0.4349  0.1907 -1.9744
 2825TIP3    H229967   1.958   5.169   4.860 -2.2369 -0.9362 -0.1653
 2826TIP3   OH229968   1.702   0.739   5.674  0.3066 -0.6749 -0.5493
 2826TIP3    H129969   1.723   0.755   5.766 -1.0202 -0.8085 -0.2069
 2826TIP3    H229970   1.620   0.690   5.676 -2.4871  3.4172 -1.8564
 2827TIP3   OH229971   6.237   2.668   3.998 -0.4738 -0.0543  0.6117
 2827TIP3    H129972   6.295   2.591   3.993 -1.7912 -1.0948  0.6721
 2827TIP3    H229973   6.268   2.726   3.929 -1.3522 -2.0409 -1.5957
 2828TIP3   OH229974   1.521   4.839  16.922  0.2960  0.5691  0.6506
 2828TIP3    H129975   1.566   4.756  16.910  0.8447  0.7652  1.3388
 2828TIP3    H229976   1.558   4.877  17.001 -1.5021  0.4560  1.6065
 2829TIP3   OH229977   0.090   2.875   1.678  0.2186 -0.0357  0.1576
 2829TIP3    H129978   0.098   2.962   1.717  1.4293 -0.3360  0.6245
 2829TIP3    H229979   0.180   2.843   1.673 -0.1333 -0.9162 -0.8080
 2830TIP3   OH229980   0.578   4.333   4.544  0.2884 -0.1893  0.1124
 2830TIP3    H129981   0.594   4.271   4.615 -0.1153  0.0853  0.4463
 2830TIP3    H229982   0.605   4.286   4.465  0.5389 -0.5750  0.4236
 2831TIP3   OH229983   1.533   2.935  15.185 -0.4584 -0.4249  0.1347
 2831TIP3    H129984   1.505   2.878  15.114  0.7159 -0.3196 -0.4461
 2831TIP3    H229985   1.624   2.910  15.202  0.1957  1.3918 -0.3320
 2832TIP3   OH229986   4.271   1.335   3.479  0.0694  0.1982  0.2045
 2832TIP3    H129987   4.247   1.408   3.421 -0.3220 -0.2350 -0.1822
 2832TIP3    H229988   4.360   1.357   3.509 -0.1150  0.9233  0.2340
 2833TIP3   OH229989   1.031   6.760   1.571 -0.0945  0.2013 -0.2472
 2833TIP3    H129990   1.051   6.767   1.477  0.4612 -0.5320 -0.1876
 2833TIP3    H229991   1.036   6.667   1.589 -0.3864  0.3234  0.4858
 2834TIP3   OH229992   6.158   4.252  11.254 -0.7355 -0.7458 -0.2270
 2834TIP3    H129993   6.159   4.307  11.175 -0.8112 -0.3094  0.0712
 2834TIP3    H229994   6.144   4.314  11.326 -1.8069 -1.2544  0.0238
 2835TIP3   OH229995   5.788   1.544   2.855 -0.0707 -0.8192 -0.5226
 2835TIP3    H129996   5.770   1.635   2.879  1.4805  0.0886 -2.4554
 2835TIP3    H229997   5.882   1.533   2.870 -0.1099 -1.8856 -0.9272
 2836TIP3   OH229998   2.304   3.064   1.184 -0.4109  0.4981 -0.7327
 2836TIP3    H129999   2.283   3.024   1.269 -1.7278  1.8825 -0.3565
 2836TIP3    H230000   2.395   3.040   1.168 -0.0651  0.3660  1.1760
 2837TIP3   OH230001   3.681   5.625   2.175 -0.1617  0.0805 -0.5217
 2837TIP3    H130002   3.621   5.563   2.216  0.8587  1.3005  3.2043
 2837TIP3    H230003   3.762   5.618   2.226  0.6163  3.0798 -1.1479
 2838TIP3   OH230004   4.173   2.080   5.953 -0.3742  0.0802 -0.2115
 2838TIP3    H130005   4.197   2.135   6.027  2.2198 -1.4241  0.1712
 2838TIP3    H230006   4.195   2.132   5.876 -2.0106  1.1907  0.0059
 2839TIP3   OH230007   5.805   1.102  14.522 -0.1025 -0.3094  0.0529
 2839TIP3    H130008   5.725   1.154  14.529  0.0548  0.3739 -2.2996
 2839TIP3    H230009   5.862   1.135  14.592 -2.0486 -1.2762  2.2154
 2840TIP3   OH230010   5.758   5.071  14.358 -0.1295 -0.3475  0.3122
 2840TIP3    H130011   5.787   4.981  14.373  1.2865  0.1395  0.6560
 2840TIP3    H230012   5.783   5.118  14.438 -1.5528  0.2063  0.4608
 2841TIP3   OH230013   1.972   0.541  13.714  0.6727 -0.4279  0.1100
 2841TIP3    H130014   1.977   0.450  13.742 -0.9124 -0.3668  0.6689
 2841TIP3    H230015   1.912   0.541  13.640  1.1487  0.0836 -0.2905
 2842TIP3   OH230016   6.236   2.623  12.145  0.1509  0.6373  0.4609
 2842TIP3    H130017   6.275   2.536  12.155 -2.3235 -0.4794  1.2466
 2842TIP3    H230018   6.284   2.663  12.073  0.9033 -1.6638 -0.4038
 2843TIP3   OH230019   2.178   4.822  14.366  0.4582  1.0045 -0.0393
 2843TIP3    H130020   2.144   4.829  14.276  1.7623  1.1007 -0.5401
 2843TIP3    H230021   2.237   4.746  14.363 -0.5273  0.1581  1.1000
 2844TIP3   OH230022   4.487   4.968  11.973 -0.4826  0.6081  0.9297
 2844TIP3    H130023   4.572   5.010  11.989 -0.1119  0.7839 -1.1419
 2844TIP3    H230024   4.507   4.874  11.975 -0.3554  0.6368  1.0449
 2845TIP3   OH230025   6.418   6.048  14.667 -0.2739 -0.8068 -0.0528
 2845TIP3    H130026   6.401   5.990  14.741 -2.2013 -1.1592 -0.7231
 2845TIP3    H230027   6.436   5.988  14.594  0.5956 -0.4807 -0.1216
 2846TIP3   OH230028   5.258   3.796  15.508  0.6212 -0.4714 -0.3806
 2846TIP3    H130029   5.318   3.765  15.575 -1.5374  1.6404  2.8417
 2846TIP3    H230030   5.226   3.716  15.465  2.6733 -1.8591  0.5243
 2847TIP3   OH230031   0.764   1.496  15.928 -0.0854  0.3209 -0.5948
 2847TIP3    H130032   0.679   1.538  15.930 -0.0301  0.4231 -0.1076
 2847TIP3    H230033   0.803   1.523  15.845 -0.8034 -0.2936 -1.1495
 2848TIP3   OH230034   3.440   4.608   5.710 -0.0820  0.7848 -0.1474
 2848TIP3    H130035   3.415   4.626   5.619 -0.4861  0.6566 -0.0605
 2848TIP3    H230036   3.507   4.539   5.703 -1.3088 -0.4268 -0.2556
 2849TIP3   OH230037   2.354   6.621   5.091 -0.0998  0.3456  0.0715
 2849TIP3    H130038   2.295   6.696   5.100 -0.1020  0.3623 -0.0785
 2849TIP3    H230039   2.346   6.575   5.175 -0.4763  0.2410 -0.0174
 2850TIP3   OH230040   1.369   5.140   0.935  0.8203 -0.4698 -0.1957
 2850TIP3    H130041   1.398   5.216   0.986  1.0431 -0.5557 -0.1938
 2850TIP3    H230042   1.325   5.177   0.859 -1.2483 -0.2952  0.9880
 2851TIP3   OH230043   3.860   1.944  17.416 -0.1322 -0.2231 -0.2995
 2851TIP3    H130044   3.796   1.877  17.440  0.2556 -0.8195 -0.8855
 2851TIP3    H230045   3.815   2.027  17.431 -0.0079 -0.5349  2.1745
 2852TIP3   OH230046   1.317   3.827   2.216 -0.6305 -0.3355 -0.3294
 2852TIP3    H130047   1.224   3.845   2.226 -0.2642  1.2066  0.5593
 2852TIP3    H230048   1.323   3.778   2.133 -2.0725  0.7827 -1.1486
 2853TIP3   OH230049   0.233   5.618   5.234 -0.0939  0.1962 -0.1115
 2853TIP3    H130050   0.183   5.597   5.155 -0.5721  1.2301 -0.1051
 2853TIP3    H230051   0.277   5.701   5.213  0.8164 -0.1830  0.2521
 2854TIP3   OH230052   0.477   3.653   5.776  0.1305 -0.5015 -0.8006
 2854TIP3    H130053   0.522   3.582   5.729  3.2066  1.1311 -0.5640
 2854TIP3    H230054   0.448   3.713   5.708  0.9354 -0.1520 -0.8471
 2855TIP3   OH230055   1.596   4.390   1.065 -0.9431  0.3271 -0.4972
 2855TIP3    H130056   1.590   4.427   0.977 -0.0792  0.1995 -0.6212
 2855TIP3    H230057   1.673   4.433   1.103  0.0941 -1.3348 -0.6490
 2856TIP3   OH230058   2.763   5.209  14.987 -0.3177  0.5928 -0.0476
 2856TIP3    H130059   2.756   5.157  15.067 -4.4794  0.5129 -0.2469
 2856TIP3    H230060   2.709   5.162  14.923  1.9272  1.2737 -2.6583
 2857TIP3   OH230061   0.579   1.360  14.520 -0.2714 -0.1390  0.2418
 2857TIP3    H130062   0.526   1.402  14.588 -1.4463 -0.6966 -0.2907
 2857TIP3    H230063   0.667   1.392  14.535 -0.8788  1.4039  0.7096
 2858TIP3   OH230064   6.141   0.164  15.706 -0.1007 -0.2301 -0.1362
 2858TIP3    H130065   6.081   0.090  15.697  0.6606 -1.0537  1.3098
 2858TIP3    H230066   6.223   0.134  15.666 -0.5187  0.8010 -1.8766
 2859TIP3   OH230067   1.985   2.202  15.805 -0.0867  0.8263 -0.1737
 2859TIP3    H130068   1.953   2.155  15.727  1.6647  1.1691 -1.1527
 2859TIP3    H230069   2.039   2.272  15.770  1.4310  0.4890  1.3638
 2860TIP3   OH230070   2.913   2.121   2.851 -0.1841  0.0101 -0.5259
 2860TIP3    H130071   2.962   2.187   2.901  1.0017 -1.1269 -0.1050
 2860TIP3    H230072   2.977   2.051   2.836 -1.5523 -1.3173 -0.4230
 2861TIP3   OH230073   2.878   6.587   0.567  0.3164 -0.0574  0.0285
 2861TIP3    H130074   2.903   6.636   0.646  0.4899  0.0536 -0.0936
 2861TIP3    H230075   2.791   6.553   0.587  1.1032 -1.5906  0.9888
 2862TIP3   OH230076   6.436   1.991   3.014 -0.0602  0.1300 -0.5829
 2862TIP3    H130077   6.456   1.983   2.920 -1.7042 -0.9021 -0.8847
 2862TIP3    H230078   6.404   1.905   3.039  0.6487  0.2998  1.0443
 2863TIP3   OH230079   5.047   6.222   0.724 -0.0672 -0.4782 -0.1090
 2863TIP3    H130080   5.029   6.285   0.654 -1.0684  0.5478  1.0238
 2863TIP3    H230081   4.966   6.173   0.735 -0.0082 -0.4555  0.4934
 2864TIP3   OH230082   0.556   2.057   5.717  0.1820  0.3834  0.6133
 2864TIP3    H130083   0.620   2.127   5.703 -0.5611  0.8464 -0.6334
 2864TIP3    H230084   0.606   1.976   5.706  0.9111  0.7023  1.4197
 2865TIP3   OH230085   4.431   3.791  12.684 -0.2923  0.8367  0.0780
 2865TIP3    H130086   4.520   3.759  12.669 -0.8742 -1.4786  1.1923
 2865TIP3    H230087   4.433   3.827  12.772 -0.0206  2.7025 -0.6312
 2866TIP3   OH230088   4.946   0.518  13.360  0.4079  0.2961 -0.1383
 2866TIP3    H130089   4.913   0.443  13.408  2.2690 -0.4101  0.1355
 2866TIP3    H230090   5.032   0.489  13.327  0.0511  1.4118 -2.2411
 2867TIP3   OH230091   3.999   0.511   2.511  0.3732 -0.1053  0.4131
 2867TIP3    H130092   3.955   0.582   2.465  1.2140 -0.2432 -0.6381
 2867TIP3    H230093   3.938   0.487   2.581 -0.7694  0.3724 -0.3769
 2868TIP3   OH230094   4.930   2.114  13.471 -0.4494 -0.5751 -0.3715
 2868TIP3    H130095   4.916   2.152  13.384 -1.3870  1.5041  0.6123
 2868TIP3    H230096   4.842   2.100  13.505 -0.1125 -0.2455  0.6721
 2869TIP3   OH230097   0.605   2.964   2.906  0.2644 -0.8606 -0.2127
 2869TIP3    H130098   0.610   2.962   2.810 -0.9342  0.3991 -0.3446
 2869TIP3    H230099   0.684   2.921   2.935  0.5670 -1.4405 -1.7798
 2870TIP3   OH230100   5.889   3.882  16.494  0.2219 -0.0201  0.3470
 2870TIP3    H130101   5.892   3.860  16.588 -4.2549  2.0331  1.2155
 2870TIP3    H230102   5.935   3.809  16.452  3.1138 -0.7070  4.0682
 2871TIP3   OH230103   3.826   4.272  12.908 -0.3727  0.2241  0.3050
 2871TIP3    H130104   3.874   4.256  12.827  1.5352 -0.8941  1.5754
 2871TIP3    H230105   3.894   4.272  12.976 -2.2351 -2.8759  2.4006
 2872TIP3   OH230106   3.188   4.091  13.740 -1.1459 -0.2880  0.1826
 2872TIP3    H130107   3.156   4.023  13.680  2.1363 -2.3239  0.4859
 2872TIP3    H230108   3.226   4.157  13.682 -3.2754  0.7876 -0.0708
 2873TIP3   OH230109   6.285   4.644   4.720 -0.4320 -0.8340  0.3591
 2873TIP3    H130110   6.314   4.679   4.804 -1.2810  1.9489 -0.3645
 2873TIP3    H230111   6.315   4.554   4.719  3.5102  0.2772  1.7861
 2874TIP3   OH230112   4.382   4.814   0.904 -0.4876  0.1564 -0.2779
 2874TIP3    H130113   4.474   4.792   0.897 -0.7622 -0.9359 -0.6760
 2874TIP3    H230114   4.352   4.770   0.984 -0.9416 -0.5786 -0.8379
 2875TIP3   OH230115   4.654   4.365   3.712  0.2778  0.0088  0.2643
 2875TIP3    H130116   4.616   4.366   3.624 -1.5132  0.2549  0.9979
 2875TIP3    H230117   4.744   4.396   3.699 -0.6168  2.3246 -1.1913
 2876TIP3   OH230118   1.953   4.669  17.364 -0.4272 -0.2728 -0.4036
 2876TIP3    H130119   2.001   4.697  17.443 -0.9691 -0.5578  0.0333
 2876TIP3    H230120   1.936   4.750  17.317 -0.5821 -0.0360  0.0511
 2877TIP3   OH230121   3.568   6.163  14.724  0.1337  0.0139  0.6420
 2877TIP3    H130122   3.576   6.172  14.629 -0.9939 -0.1783  0.5084
 2877TIP3    H230123   3.633   6.224  14.760 -1.6064  2.5778 -0.2559
 2878TIP3   OH230124   2.825   0.746  13.235 -0.2051 -0.0034 -0.1022
 2878TIP3    H130125   2.885   0.816  13.260  0.2016  0.3131 -1.8595
 2878TIP3    H230126   2.792   0.771  13.149  0.6709 -2.4005 -1.2292
 2879TIP3   OH230127   0.323   5.013   5.447 -0.2102 -0.0681 -0.4653
 2879TIP3    H130128   0.263   5.076   5.408  0.8116  1.7090  0.7122
 2879TIP3    H230129   0.271   4.969   5.515 -0.2693  1.3713  0.4710
 2880TIP3   OH230130   1.323   5.823  14.987  0.2609  0.7328 -0.2245
 2880TIP3    H130131   1.337   5.801  14.895  2.3578 -1.8561  0.5859
 2880TIP3    H230132   1.406   5.862  15.015 -0.8291  2.8206  0.3076
 2881TIP3   OH230133   2.882   4.125   4.651  0.2901  0.5227 -0.0317
 2881TIP3    H130134   2.835   4.048   4.619  2.0451 -0.3814 -0.5906
 2881TIP3    H230135   2.821   4.169   4.709 -0.7908 -1.2574  0.2345
 2882TIP3   OH230136   0.696   6.321  12.016  0.1541 -0.1117 -0.1175
 2882TIP3    H130137   0.714   6.358  11.930  0.1529  3.4023  1.2237
 2882TIP3    H230138   0.767   6.352  12.072 -0.5948 -1.0917  1.4890
 2883TIP3   OH230139   4.297   6.579  17.246 -0.0716  0.4597  0.2544
 2883TIP3    H130140   4.277   6.610  17.334  2.9472  1.0989  0.8243
 2883TIP3    H230141   4.306   6.484  17.255  2.3856  0.7013  1.2442
 2884TIP3   OH230142   1.948   3.683   5.018 -0.5875  0.1841  0.1585
 2884TIP3    H130143   1.915   3.721   5.099  0.9291  1.5821  0.1720
 2884TIP3    H230144   1.881   3.705   4.953 -1.3848 -0.1603  0.8494
 2885TIP3   OH230145   2.483   6.272  15.318  0.4414 -0.4640 -0.4633
 2885TIP3    H130146   2.556   6.231  15.365  0.5347 -0.9996 -1.0686
 2885TIP3    H230147   2.405   6.242  15.365  0.6329  0.8864  0.7894
 2886TIP3   OH230148   3.115   2.208   5.253 -0.1662  0.1552 -0.3648
 2886TIP3    H130149   3.167   2.283   5.281  0.3043  0.0391 -0.8982
 2886TIP3    H230150   3.176   2.155   5.202 -0.8439  0.0668 -1.0969
 2887TIP3   OH230151   2.880   0.034   1.727 -0.3460 -0.1141  0.3766
 2887TIP3    H130152   2.954  -0.024   1.743  0.5074  0.7782 -0.1921
 2887TIP3    H230153   2.847   0.057   1.814  1.4706  1.2477  0.7615
 2888TIP3   OH230154   1.810   0.139   5.551  0.5118  0.0149 -0.3345
 2888TIP3    H130155   1.747   0.067   5.561  0.7975 -0.0353  1.2721
 2888TIP3    H230156   1.758   0.218   5.565  0.6009  0.0179 -0.0101
 2889TIP3   OH230157   0.772   4.605  15.247 -0.1280  0.2266 -0.2653
 2889TIP3    H130158   0.773   4.578  15.339 -1.5588 -0.6112 -0.4507
 2889TIP3    H230159   0.863   4.621  15.225  0.4574 -1.3233  0.8283
 2890TIP3   OH230160   6.437   1.728  15.442 -0.3344 -0.6279  0.4086
 2890TIP3    H130161   6.433   1.633  15.457 -0.8769 -1.0228 -1.9029
 2890TIP3    H230162   6.528   1.743  15.414 -0.3584 -0.5331  0.3830
 2891TIP3   OH230163   1.754   0.557  12.317  0.3645  0.2621  0.6900
 2891TIP3    H130164   1.825   0.498  12.344  0.5191 -0.2322 -0.7132
 2891TIP3    H230165   1.758   0.557  12.221 -1.1723  0.6818  0.6009
 2892TIP3   OH230166   1.673   0.370  17.422  0.0261 -0.3543 -0.2115
 2892TIP3    H130167   1.680   0.275  17.424 -0.1450 -0.3670  1.9401
 2892TIP3    H230168   1.579   0.388  17.430  0.1458 -0.0129  0.5109
 2893TIP3   OH230169   4.997   4.291   6.475  0.1819 -0.0215  0.5887
 2893TIP3    H130170   4.925   4.351   6.495  0.4962  0.1209  1.3246
 2893TIP3    H230171   5.071   4.348   6.455  0.2815 -0.1642  0.5491
 2894TIP3   OH230172   0.744   1.464  16.221 -1.0208 -0.2243 -0.1265
 2894TIP3    H130173   0.730   1.377  16.259  1.9007 -0.6451  0.1852
 2894TIP3    H230174   0.766   1.446  16.129  1.2513 -0.0339  0.3282
 2895TIP3   OH230175   1.058   5.211   5.555 -0.0305 -0.2994  0.4145
 2895TIP3    H130176   1.096   5.286   5.601  1.2740  1.2734 -2.8840
 2895TIP3    H230177   0.971   5.241   5.528 -0.9095 -1.3191  1.9760
 2896TIP3   OH230178   1.424   0.471   3.495  0.0563 -0.2396  0.1862
 2896TIP3    H130179   1.341   0.477   3.543 -0.1342 -3.1188  0.4153
 2896TIP3    H230180   1.490   0.456   3.562  0.8399  2.0458  0.0013
 2897TIP3   OH230181   6.175   0.610   3.185  0.2655  0.7303  0.0813
 2897TIP3    H130182   6.129   0.594   3.103 -0.4961  1.3564  0.3737
 2897TIP3    H230183   6.212   0.525   3.209 -1.2726  0.0543  0.1585
 2898TIP3   OH230184   0.264   2.256  14.120 -0.7288 -0.3394  0.3205
 2898TIP3    H130185   0.338   2.218  14.168 -1.1982 -1.4395  0.1930
 2898TIP3    H230186   0.291   2.253  14.028  1.2320  4.0173  0.4920
 2899TIP3   OH230187   5.215   5.842  16.824 -0.2961 -0.0407  0.3370
 2899TIP3    H130188   5.296   5.804  16.857 -1.5317 -2.2130  1.1113
 2899TIP3    H230189   5.220   5.832  16.729 -0.0015 -0.9175  0.4406
 2900TIP3   OH230190   3.523   1.755  17.162 -0.5344 -0.0660  0.2752
 2900TIP3    H130191   3.433   1.788  17.174 -0.5364 -0.6565  2.2175
 2900TIP3    H230192   3.512   1.668  17.123 -0.7182  0.4036 -0.7595
 2901TIP3   OH230193   4.484   4.570  13.274 -0.2845 -0.4337 -0.8912
 2901TIP3    H130194   4.453   4.572  13.183 -1.9371  2.8840 -0.3964
 2901TIP3    H230195   4.548   4.640  13.279  1.0551 -1.6702  0.1893
 2902TIP3   OH230196   5.435   6.336  14.099 -0.1652 -0.0320  0.4987
 2902TIP3    H130197   5.514   6.287  14.118 -0.9570 -1.7290 -0.3650
 2902TIP3    H230198   5.372   6.270  14.069 -1.1667  1.5527 -1.0923
 2903TIP3   OH230199   4.228   4.646  16.845 -0.1374  0.1322 -0.0976
 2903TIP3    H130200   4.232   4.712  16.915 -1.2232  0.0847  0.0180
 2903TIP3    H230201   4.256   4.565  16.888  0.6945  0.4063 -0.1098
 2904TIP3   OH230202   0.495   0.201   1.811 -0.4197  0.2129 -0.1329
 2904TIP3    H130203   0.431   0.222   1.879  0.4618  1.1278  0.4406
 2904TIP3    H230204   0.556   0.141   1.854 -0.4351 -0.0225 -0.4377
 2905TIP3   OH230205   5.167   6.113  16.872  0.4211 -0.1192  0.2938
 2905TIP3    H130206   5.200   6.025  16.851  1.0149  0.1442  0.1213
 2905TIP3    H230207   5.186   6.124  16.965 -0.5843 -0.5731  0.5687
 2906TIP3   OH230208   2.744   4.027   5.485 -0.6890 -0.5167  0.4421
 2906TIP3    H130209   2.710   3.949   5.529  0.4209 -1.0514  0.3933
 2906TIP3    H230210   2.742   4.095   5.552 -0.3769 -0.9511  0.8969
 2907TIP3   OH230211   5.620   4.310   6.100 -0.2522 -0.3874 -0.7151
 2907TIP3    H130212   5.618   4.230   6.048 -1.4694 -1.3672  0.7666
 2907TIP3    H230213   5.626   4.280   6.191  2.1112  1.2629 -0.2203
 2908TIP3   OH230214   4.837   6.425  12.080 -0.5411 -0.2667  0.3690
 2908TIP3    H130215   4.896   6.352  12.059 -0.9735 -0.5796  0.2395
 2908TIP3    H230216   4.893   6.488  12.126 -0.2653 -0.8772  0.8880
 2909TIP3   OH230217   2.521   0.926  10.495  0.1481 -0.0096  0.2568
 2909TIP3    H130218   2.466   1.004  10.487  0.7179  0.3669 -0.0253
 2909TIP3    H230219   2.513   0.900  10.586  0.6576  0.9018  0.5739
 2910TIP3   OH230220   2.954   6.066   5.416  0.4325 -0.0134  0.3880
 2910TIP3    H130221   2.893   6.062   5.490  0.5221  1.4514  0.5614
 2910TIP3    H230222   2.917   6.132   5.357  1.3441  0.2111  0.0400
 2911TIP3   OH230223   2.544   6.762   4.904 -0.0807  0.0863 -0.2460
 2911TIP3    H130224   2.503   6.697   4.961  1.2569  0.5323  1.2954
 2911TIP3    H230225   2.572   6.712   4.827 -2.6741 -0.3622 -0.9754
 2912TIP3   OH230226   4.111   1.112   1.833 -0.1415  0.1945 -0.2616
 2912TIP3    H130227   4.142   1.194   1.871 -0.0114  0.2747 -0.5448
 2912TIP3    H230228   4.073   1.065   1.908  0.2025  0.3108 -0.0094
 2913TIP3   OH230229   0.188   4.792   1.731  0.1442  1.1983 -0.3221
 2913TIP3    H130230   0.123   4.861   1.742 -0.0958  0.6959  1.8475
 2913TIP3    H230231   0.165   4.751   1.648 -0.6241  2.7445 -0.9217
 2914TIP3   OH230232   0.036   2.421   5.972  0.1597 -0.5394 -0.1826
 2914TIP3    H130233   0.118   2.372   5.976 -0.0174 -0.8728 -0.5296
 2914TIP3    H230234  -0.011   2.396   6.051  0.6878  0.2045  0.3888
 2915TIP3   OH230235   6.609   2.165  15.207  0.1806  0.1898 -0.3593
 2915TIP3    H130236   6.633   2.073  15.223 -0.1006 -0.5844 -3.5984
 2915TIP3    H230237   6.537   2.160  15.144 -1.9352  2.6472  1.6641
 2916TIP3   OH230238   1.597   4.723  12.706  0.2578 -0.7217  0.2972
 2916TIP3    H130239   1.690   4.700  12.705 -0.1409 -2.5338 -0.7989
 2916TIP3    H230240   1.555   4.651  12.754 -0.4792  0.6922  1.8558
 2917TIP3   OH230241   3.687   4.434  13.251  0.1978  0.2773 -0.0771
 2917TIP3    H130242   3.688   4.339  13.267 -0.2380  0.1439 -0.8126
 2917TIP3    H230243   3.660   4.471  13.335  1.8331 -0.1355  0.6790
 2918TIP3   OH230244   1.708   1.435   2.212  0.9441 -0.2524 -0.5044
 2918TIP3    H130245   1.655   1.500   2.165  0.6804  0.0848  0.2426
 2918TIP3    H230246   1.730   1.478   2.295 -0.5128 -1.6407  0.6804
 2919TIP3   OH230247   1.289   2.409   3.326  0.1567  0.2774 -0.2219
 2919TIP3    H130248   1.370   2.460   3.325 -0.3899  1.1703 -0.1005
 2919TIP3    H230249   1.271   2.395   3.419  0.5623 -0.5701 -0.2653
 2920TIP3   OH230250   3.775   2.593  17.002 -0.4355  0.0936  0.3030
 2920TIP3    H130251   3.722   2.563  16.928  1.4332  0.7416 -1.3666
 2920TIP3    H230252   3.856   2.624  16.963  0.9404 -0.2301  2.7171
 2921TIP3   OH230253   0.196   4.390   0.190  0.0172 -0.1014 -0.1376
 2921TIP3    H130254   0.284   4.399   0.227  0.9489  1.6383 -2.4448
 2921TIP3    H230255   0.194   4.302   0.154  0.2779 -0.6583  1.1825
 2922TIP3   OH230256   5.158   2.071   1.605 -0.6385 -0.3887 -0.4078
 2922TIP3    H130257   5.153   2.082   1.700  1.1996 -2.0841 -0.0619
 2922TIP3    H230258   5.227   2.131   1.577 -2.6112  1.7344 -1.0698
 2923TIP3   OH230259   4.433   5.167   0.264  0.2173 -0.1184 -0.8071
 2923TIP3    H130260   4.423   5.161   0.169 -0.8662 -1.2037 -0.6514
 2923TIP3    H230261   4.344   5.159   0.298  0.7126 -0.9807  0.3475
 2924TIP3   OH230262   1.504   2.172   3.158 -0.2288  0.0433 -0.0341
 2924TIP3    H130263   1.558   2.093   3.162 -0.4145 -0.0572  0.7469
 2924TIP3    H230264   1.534   2.218   3.080  1.3270  0.2182  0.6185
 2925TIP3   OH230265   5.325   1.050  11.589 -0.6766  0.4587 -0.3727
 2925TIP3    H130266   5.305   1.083  11.676 -0.3788 -0.6037  0.1137
 2925TIP3    H230267   5.243   1.011  11.558 -0.2532 -1.0163  0.2986
 2926TIP3   OH230268   5.280   3.311  15.481 -0.7633 -0.3541  0.0106
 2926TIP3    H130269   5.210   3.272  15.429 -0.4667  1.0924 -1.5500
 2926TIP3    H230270   5.357   3.306  15.426 -0.3082  0.7530  0.5170
 2927TIP3   OH230271   5.148   0.513   1.173  0.0245  0.0889 -0.1174
 2927TIP3    H130272   5.058   0.535   1.199 -0.0980 -0.2252 -0.2746
 2927TIP3    H230273   5.147   0.517   1.077  0.0942 -0.2426 -0.1337
 2928TIP3   OH230274   4.028   6.384  11.297 -0.0862  0.4103  0.6050
 2928TIP3    H130275   4.021   6.452  11.230  1.0878 -1.0003 -1.0071
 2928TIP3    H230276   3.945   6.337  11.291  0.2951 -0.1669 -0.4150
 2929TIP3   OH230277   6.304   0.187   4.745  0.2865  0.4978 -0.2682
 2929TIP3    H130278   6.297   0.120   4.676  0.5734 -1.3617  1.4114
 2929TIP3    H230279   6.216   0.195   4.779  0.3110  0.7614 -0.2708
 2930TIP3   OH230280   1.494   4.993  14.347  0.1210 -0.1244 -0.1190
 2930TIP3    H130281   1.477   4.944  14.428  2.0508  0.6598  0.8151
 2930TIP3    H230282   1.516   4.926  14.282  1.6885 -0.6246  0.8656
 2931TIP3   OH230283   2.862   3.372  12.592 -0.5356 -0.2406 -0.1253
 2931TIP3    H130284   2.838   3.409  12.507 -0.8324  0.3642  0.2145
 2931TIP3    H230285   2.790   3.398  12.650 -1.6543 -2.7721 -0.2276
 2932TIP3   OH230286   0.154   3.284   1.410  0.3652 -0.4139  0.8415
 2932TIP3    H130287   0.160   3.380   1.410 -1.0316 -0.3105  1.2930
 2932TIP3    H230288   0.243   3.255   1.431  1.9749  0.6291 -3.4771
 2933TIP3   OH230289   4.621   0.448  16.288  0.1961  0.5430  0.0815
 2933TIP3    H130290   4.604   0.398  16.368 -0.5173 -0.3182 -0.5823
 2933TIP3    H230291   4.534   0.475  16.258  0.1256 -1.5235 -1.8688
 2934TIP3   OH230292   5.748   3.710  16.249  0.0385 -0.6747 -0.1078
 2934TIP3    H130293   5.706   3.676  16.328 -1.7361  0.3582 -0.5431
 2934TIP3    H230294   5.842   3.707  16.269 -0.2417 -2.2643  1.2586
 2935TIP3   OH230295   5.991   4.869  12.005  0.2335  0.0976  0.1451
 2935TIP3    H130296   6.056   4.811  11.966 -1.2476  0.4368 -3.1438
 2935TIP3    H230297   6.031   4.956  12.003  0.1408  0.1299 -0.8224
 2936TIP3   OH230298   5.123   1.414  10.698  0.8201  0.1342 -0.2843
 2936TIP3    H130299   5.093   1.504  10.707  1.0507  0.2087 -0.2461
 2936TIP3    H230300   5.217   1.422  10.678  0.7432 -0.0842 -0.7430
 2937TIP3   OH230301   4.080   1.332  12.504 -0.0011 -0.3940  0.4984
 2937TIP3    H130302   3.987   1.352  12.508 -0.4602 -2.4220  1.0166
 2937TIP3    H230303   4.110   1.370  12.422 -1.3177  0.1493  0.2530
 2938TIP3   OH230304   1.601   2.080  16.565  1.1587  0.6513 -0.1588
 2938TIP3    H130305   1.506   2.070  16.566  1.0987  1.0107  1.6073
 2938TIP3    H230306   1.623   2.099  16.474 -0.7049  2.7674 -0.2514
 2939TIP3   OH230307   0.004   3.067  14.439 -0.4750 -0.0224  0.4002
 2939TIP3    H130308  -0.078   3.062  14.390 -0.9073 -0.7914  1.1853
 2939TIP3    H230309   0.036   3.156  14.422 -0.6824 -0.2006 -1.1460
 2940TIP3   OH230310   4.281   5.637   5.027 -0.1067  0.2464  0.3001
 2940TIP3    H130311   4.210   5.574   5.039 -1.7369  2.4475  4.4491
 2940TIP3    H230312   4.358   5.594   5.064 -0.5052 -0.3213  0.4833
 2941TIP3   OH230313   2.514   6.749   2.194  0.4318  0.2709 -0.3790
 2941TIP3    H130314   2.580   6.689   2.230  0.4961  0.0715 -0.8252
 2941TIP3    H230315   2.469   6.784   2.271 -0.6938 -1.5561 -0.1481
 2942TIP3   OH230316   3.182   1.523   4.916  0.3068  0.2333  0.4348
 2942TIP3    H130317   3.241   1.562   4.980 -1.3453  0.8327  1.6694
 2942TIP3    H230318   3.196   1.429   4.924  0.2301  0.3106  1.6135
 2943TIP3   OH230319   1.565   5.522  15.322  0.4342  0.0548  0.1385
 2943TIP3    H130320   1.554   5.469  15.400 -0.8428  0.8001  0.5031
 2943TIP3    H230321   1.619   5.596  15.351  0.5698 -0.0420  0.1321
 2944TIP3   OH230322   1.355   2.284  14.691  0.7153  0.6784 -0.3543
 2944TIP3    H130323   1.418   2.239  14.747  1.9873  1.1501 -1.3653
 2944TIP3    H230324   1.376   2.377  14.700 -1.4022  1.0909  1.1242
 2945TIP3   OH230325   1.758   1.290   5.367  0.0054  0.2166  0.8126
 2945TIP3    H130326   1.770   1.297   5.273 -0.8780 -1.9932  0.4766
 2945TIP3    H230327   1.841   1.253   5.399 -0.3856 -0.8886  0.5949
 2946TIP3   OH230328   2.972   3.661   1.797  0.0617  0.4381 -0.3812
 2946TIP3    H130329   3.058   3.701   1.813 -0.2465  0.5094  1.3290
 2946TIP3    H230330   2.915   3.699   1.864 -1.6525  1.3134 -2.2389
 2947TIP3   OH230331   5.453   2.183  12.888 -0.1663  0.0356 -0.3244
 2947TIP3    H130332   5.465   2.273  12.858 -1.5296  0.2855 -0.1770
 2947TIP3    H230333   5.426   2.134  12.810 -1.2983  0.1736 -0.0409
 2948TIP3   OH230334   1.140   1.893   6.078  0.0051  0.2436 -0.8612
 2948TIP3    H130335   1.225   1.920   6.113 -0.8568  3.0238 -0.6624
 2948TIP3    H230336   1.083   1.885   6.155 -0.2525 -0.2851 -1.1000
 2949TIP3   OH230337   5.686   4.601   2.581 -0.3199 -0.4780 -0.4459
 2949TIP3    H130338   5.780   4.585   2.566 -0.4220 -1.4087 -0.1610
 2949TIP3    H230339   5.684   4.684   2.629  0.3164 -0.1037 -1.0421
 2950TIP3   OH230340   3.392   0.769  15.664 -0.1180 -0.1353  0.5644
 2950TIP3    H130341   3.468   0.712  15.680  0.7746  0.5482 -1.0284
 2950TIP3    H230342   3.413   0.814  15.583 -1.5649  1.2385  0.9157
 2951TIP3   OH230343   1.116   1.950   0.598  1.1538  0.2007 -0.3480
 2951TIP3    H130344   1.103   1.984   0.509 -0.1071  0.3782 -0.1199
 2951TIP3    H230345   1.104   2.027   0.654 -0.5180 -0.3424  0.1035
 2952TIP3   OH230346   4.967   6.099  15.171 -0.3902  0.8658 -0.1055
 2952TIP3    H130347   4.942   6.007  15.186 -1.8863  1.3149  0.3210
 2952TIP3    H230348   4.911   6.127  15.098  0.8174  1.1533 -0.9467
 2953TIP3   OH230349   3.279   1.833  17.283  0.1837 -0.3372  0.3136
 2953TIP3    H130350   3.226   1.910  17.302  2.3859  0.6533  3.1941
 2953TIP3    H230351   3.221   1.759  17.301 -1.3351  0.5986 -0.4859
 2954TIP3   OH230352   4.907   5.544  17.057 -0.5370  0.6108  0.2946
 2954TIP3    H130353   4.896   5.560  17.151  1.4868 -0.7888  0.8421
 2954TIP3    H230354   4.921   5.631  17.020  0.7456  1.0364  1.6664
 2955TIP3   OH230355   6.663   4.311   1.133 -0.2969  0.5935 -0.2163
 2955TIP3    H130356   6.584   4.257   1.125  0.1219 -0.2103  0.8885
 2955TIP3    H230357   6.671   4.328   1.227  0.0191  1.9516 -0.4627
 2956TIP3   OH230358   2.254   3.250  13.420 -0.5802 -0.2460  0.1111
 2956TIP3    H130359   2.231   3.179  13.481 -0.4098 -0.0354  0.4209
 2956TIP3    H230360   2.349   3.249  13.417 -0.5004  0.9797  1.3359
 2957TIP3   OH230361   4.841   6.513  15.633  0.1816  0.3219 -0.1232
 2957TIP3    H130362   4.887   6.466  15.563 -3.3530  0.2740 -2.6740
 2957TIP3    H230363   4.804   6.444  15.688  0.4128  0.2792 -0.0205
 2958TIP3   OH230364   1.322   6.634   2.914 -0.5861  0.0932  0.1384
 2958TIP3    H130365   1.326   6.729   2.910 -0.9425  0.0702 -1.1321
 2958TIP3    H230366   1.335   6.613   3.006  0.6392  1.3187  0.2717
 2959TIP3   OH230367   6.661   0.666   5.008 -0.2849 -0.1435 -0.1286
 2959TIP3    H130368   6.594   0.733   4.998 -0.7207  0.3652  4.3910
 2959TIP3    H230369   6.613   0.584   5.020 -0.0345 -0.1290  1.0294
 2960TIP3   OH230370   4.929   1.238  10.803 -0.3852 -0.4797 -0.4825
 2960TIP3    H130371   4.962   1.153  10.774  2.6352 -0.5496  2.5388
 2960TIP3    H230372   4.979   1.302  10.753  3.4064 -0.6155  2.6653
 2961TIP3   OH230373   4.074   0.186  14.713  0.2150  0.7995  0.2131
 2961TIP3    H130374   3.984   0.176  14.681  0.0481  0.7853  0.6876
 2961TIP3    H230375   4.107   0.261  14.663  0.2543  0.2375 -0.6357
 2962TIP3   OH230376   2.489   1.696  14.688  0.1265 -0.0085  0.0913
 2962TIP3    H130377   2.497   1.629  14.620 -0.5492 -0.0416  0.0401
 2962TIP3    H230378   2.512   1.650  14.769  0.8299  0.0040 -0.0937
 2963TIP3   OH230379   5.493   0.982   5.137 -0.4133  0.0483 -0.1970
 2963TIP3    H130380   5.561   0.915   5.150 -0.1225  0.4280  0.2650
 2963TIP3    H230381   5.542   1.061   5.113 -0.8224 -0.1513 -1.7698
 2964TIP3   OH230382   6.166   0.953   4.015  0.4455 -0.2529  0.1999
 2964TIP3    H130383   6.158   1.044   3.986 -1.8158 -1.1748 -2.4647
 2964TIP3    H230384   6.241   0.920   3.967 -0.1171 -0.3798 -0.6028
 2965TIP3   OH230385   1.313   3.767   3.990  0.8923 -0.0117  0.3117
 2965TIP3    H130386   1.381   3.820   4.030  1.0048 -0.6552  1.0045
 2965TIP3    H230387   1.245   3.830   3.965  0.6951  0.3912  1.7787
 2966TIP3   OH230388   1.547   5.045  10.638 -0.3745 -0.0259  0.1153
 2966TIP3    H130389   1.632   5.046  10.681 -0.4455  0.6909  0.2455
 2966TIP3    H230390   1.550   4.969  10.580  0.5378  0.2683 -0.2353
 2967TIP3   OH230391   3.869   6.553  13.937 -0.2496  0.1651 -0.3189
 2967TIP3    H130392   3.807   6.481  13.936  0.8501 -0.8216 -1.7824
 2967TIP3    H230393   3.951   6.514  13.967  0.6588  0.5082 -2.2218
 2968TIP3   OH230394   0.719   5.579  15.845 -0.6227 -0.4346  0.0049
 2968TIP3    H130395   0.732   5.673  15.864 -2.0127 -0.1709 -0.2849
 2968TIP3    H230396   0.723   5.537  15.931 -2.4754  0.2253  0.4647
 2969TIP3   OH230397   4.496   1.356   5.756  0.3365 -0.6325 -0.4150
 2969TIP3    H130398   4.514   1.321   5.843  4.2128  1.5167 -0.1263
 2969TIP3    H230399   4.417   1.407   5.766  1.0483  0.1002  2.0724
 2970TIP3   OH230400   2.632   5.489   1.913  0.0304 -0.2554  0.1703
 2970TIP3    H130401   2.546   5.480   1.873 -0.8404  1.0295  1.6592
 2970TIP3    H230402   2.680   5.545   1.853 -0.2930 -0.6472 -0.4658
 2971TIP3   OH230403   4.222   2.991  17.157 -0.2898  0.1666  0.0534
 2971TIP3    H130404   4.207   3.078  17.194 -2.1460  0.7941 -1.9813
 2971TIP3    H230405   4.306   2.997  17.113 -0.6472  1.1019 -0.5166
 2972TIP3   OH230406   0.014   3.669   6.914 -0.1655 -0.0862 -0.1983
 2972TIP3    H130407  -0.071   3.655   6.874  0.0951  3.4017 -2.3528
 2972TIP3    H230408  -0.005   3.685   7.007 -1.9185  0.9582 -0.7047
 2973TIP3   OH230409   2.257   3.352  12.541  0.2423 -0.1759 -0.0384
 2973TIP3    H130410   2.344   3.382  12.515 -0.3114  1.3190 -0.2802
 2973TIP3    H230411   2.203   3.369  12.464 -0.8728  1.7954  1.1067
 2974TIP3   OH230412   2.021   6.737   3.189 -0.3153  0.1311  0.4865
 2974TIP3    H130413   2.075   6.814   3.206  0.7811 -0.3058 -0.8358
 2974TIP3    H230414   2.062   6.695   3.113 -0.7865 -1.8460  1.2592
 2975TIP3   OH230415   5.589   3.148   5.249 -0.4648  0.1423 -0.4110
 2975TIP3    H130416   5.566   3.154   5.342 -0.6740  0.3047 -0.4738
 2975TIP3    H230417   5.624   3.059   5.239  0.0908  0.3162 -0.0576
 2976TIP3   OH230418   4.633   0.083   1.796 -0.1211  0.1570 -0.1650
 2976TIP3    H130419   4.717   0.126   1.778  0.7347 -0.4994  1.9113
 2976TIP3    H230420   4.567   0.139   1.756  1.2777  0.9092 -1.4959
 2977TIP3   OH230421   6.246   1.169  12.396 -0.5409 -0.4098 -0.4889
 2977TIP3    H130422   6.153   1.182  12.377 -0.5518 -0.4651 -0.4738
 2977TIP3    H230423   6.282   1.257  12.402 -1.3385 -0.1667  3.3695
 2978TIP3   OH230424   3.901   6.169  13.508  0.1778 -0.1252 -0.1935
 2978TIP3    H130425   3.916   6.099  13.573 -1.0590  0.7539  1.0938
 2978TIP3    H230426   3.865   6.123  13.432  0.2966 -1.0219  0.2732
 2979TIP3   OH230427   6.302   3.150  15.952  0.2712  0.3720 -1.1011
 2979TIP3    H130428   6.263   3.194  15.876  2.1590  1.4361 -1.5397
 2979TIP3    H230429   6.362   3.085  15.913 -0.8735 -1.1326 -0.4601
 2980TIP3   OH230430   6.263   2.368   0.659 -0.2770 -0.0438 -0.2847
 2980TIP3    H130431   6.304   2.407   0.736 -0.0387  0.6543 -0.7582
 2980TIP3    H230432   6.282   2.274   0.667 -0.6298 -0.0398  0.7260
 2981TIP3   OH230433   0.115   2.600   0.931 -0.2263 -0.0087  0.1387
 2981TIP3    H130434   0.090   2.598   1.024 -1.1656 -0.5938 -0.1192
 2981TIP3    H230435   0.106   2.692   0.907  1.3872  0.4082  0.9726
 2982TIP3   OH230436   4.018   3.638   4.399 -0.3641 -0.4332 -0.3680
 2982TIP3    H130437   4.065   3.600   4.473  0.1533 -0.6823 -0.8142
 2982TIP3    H230438   3.999   3.563   4.342  1.4084  0.0563 -1.6676
 2983TIP3   OH230439   6.729   1.472  10.674  0.1346 -0.6763  0.3539
 2983TIP3    H130440   6.799   1.406  10.671 -0.5669 -1.4221 -1.8916
 2983TIP3    H230441   6.776   1.556  10.679  1.0872 -1.2377  1.3530
 2984TIP3   OH230442   0.439   1.040   2.949  1.0369 -0.2618  0.7355
 2984TIP3    H130443   0.352   1.062   2.984  0.7915 -0.5451  0.3111
 2984TIP3    H230444   0.430   0.950   2.918  1.2117  0.0181 -0.1679
 2985TIP3   OH230445   3.998   6.503  12.709 -0.1840 -0.3840  0.0208
 2985TIP3    H130446   4.043   6.475  12.629  0.0946 -1.0265  0.3970
 2985TIP3    H230447   3.981   6.596  12.696 -1.4560 -0.7807 -1.4120
 2986TIP3   OH230448   0.362   3.758   2.327  0.4028  0.3271 -0.3106
 2986TIP3    H130449   0.353   3.774   2.421 -1.3822  0.1467 -0.4110
 2986TIP3    H230450   0.350   3.663   2.317 -0.1780  0.4407 -0.7755
 2987TIP3   OH230451   4.866   5.528   4.958  0.0395 -0.4709 -0.0694
 2987TIP3    H130452   4.800   5.593   4.983 -0.3003 -0.9968  0.4339
 2987TIP3    H230453   4.819   5.445   4.958  0.2828 -0.6268 -1.4999
 2988TIP3   OH230454   3.146   3.043   3.914 -0.5608 -0.7816 -0.1432
 2988TIP3    H130455   3.062   3.066   3.874 -1.6698 -1.0388  1.8750
 2988TIP3    H230456   3.184   2.977   3.856 -0.3282  1.3911 -2.6448
 2989TIP3   OH230457   0.373   0.439   0.249 -0.1956 -0.0375  0.1465
 2989TIP3    H130458   0.465   0.416   0.236  0.6918  0.6340  3.9618
 2989TIP3    H230459   0.328   0.402   0.173  3.1334 -0.6367 -1.7430
 2990TIP3   OH230460   6.104   0.782   1.058  0.6724 -0.2595 -0.0511
 2990TIP3    H130461   6.068   0.777   1.146  1.0199 -3.0812  0.0251
 2990TIP3    H230462   6.027   0.793   1.002 -0.1380 -3.0249  0.3518
 2991TIP3   OH230463   5.536   5.622  11.758 -0.5853 -0.0416  0.2693
 2991TIP3    H130464   5.620   5.654  11.727 -0.9503  1.5106  0.7681
 2991TIP3    H230465   5.512   5.682  11.829 -2.7333  0.4073 -0.7661
 2992TIP3   OH230466   1.985   5.713  16.259  0.1514 -0.0648 -0.1500
 2992TIP3    H130467   1.926   5.732  16.332 -1.3392 -0.8927 -1.0956
 2992TIP3    H230468   1.949   5.764  16.186 -0.3981 -1.8137 -1.1553
 2993TIP3   OH230469   4.273   4.477  11.347  0.3609  0.0214 -0.0110
 2993TIP3    H130470   4.200   4.527  11.309 -1.1206 -0.6973  1.7841
 2993TIP3    H230471   4.235   4.432  11.422  2.7853 -0.0061  1.2764
 2994TIP3   OH230472   4.132   1.482   3.259  0.7043  0.4717 -0.5380
 2994TIP3    H130473   4.040   1.474   3.282  0.8678 -0.9510 -0.2614
 2994TIP3    H230474   4.139   1.440   3.173  1.3165 -0.7699  0.0912
 2995TIP3   OH230475   3.476   1.967   1.724  0.1239 -0.2180  0.0066
 2995TIP3    H130476   3.513   2.047   1.760 -0.4779 -0.0176  0.1917
 2995TIP3    H230477   3.384   1.969   1.750 -0.0124 -0.7222 -0.4167
 2996TIP3   OH230478   1.955   2.407  12.011  0.1742  0.0315  0.2853
 2996TIP3    H130479   2.040   2.428  12.050  1.2864 -1.9564 -0.9211
 2996TIP3    H230480   1.937   2.317  12.039 -1.8027  0.5602  0.8959
 2997TIP3   OH230481   4.985   0.079   4.752 -0.3319  0.6071 -0.3962
 2997TIP3    H130482   4.948   0.001   4.711 -0.6153  0.6627 -0.2490
 2997TIP3    H230483   5.063   0.099   4.699  0.5902 -0.6174  0.4469
 2998TIP3   OH230484   3.190   4.739  17.167  0.0821 -0.0106 -0.0123
 2998TIP3    H130485   3.158   4.653  17.194  3.0972 -0.9481  1.0068
 2998TIP3    H230486   3.148   4.801  17.227 -0.4441 -1.0334  0.6963
 2999TIP3   OH230487   1.934   1.221   5.156 -0.0377  0.5228  0.4915
 2999TIP3    H130488   1.956   1.295   5.099 -0.6388 -0.2019 -0.7361
 2999TIP3    H230489   2.000   1.223   5.225 -0.0364  2.1782  0.4743
 3000TIP3   OH230490   2.253   6.237   6.800 -0.1596 -0.2123  0.4783
 3000TIP3    H130491   2.306   6.223   6.722  1.9024 -0.3872  1.8604
 3000TIP3    H230492   2.235   6.150   6.834  0.7285 -0.0746  1.3310
 3001TIP3   OH230493   3.826   1.444   4.615 -0.2976 -0.7334  0.1362
 3001TIP3    H130494   3.835   1.539   4.617 -0.1748 -0.7571  0.9030
 3001TIP3    H230495   3.842   1.420   4.523  0.2072 -0.0670  0.0441
 3002TIP3   OH230496   3.221   3.660  15.855  0.4682  0.4949  0.0872
 3002TIP3    H130497   3.216   3.682  15.948 -0.6647 -1.3232  0.4876
 3002TIP3    H230498   3.233   3.565  15.852 -1.1173  0.2727 -1.6191
 3003TIP3   OH230499   6.433   4.006   5.442 -0.0987  0.0040  0.7168
 3003TIP3    H130500   6.490   4.063   5.391  0.5506  0.2872  1.7418
 3003TIP3    H230501   6.458   3.917   5.415 -1.1871  0.1361 -0.9597
 3004TIP3   OH230502   5.118   6.335   1.494  0.3364  0.3733 -0.0030
 3004TIP3    H130503   5.166   6.378   1.423 -0.4651  0.1966 -0.6681
 3004TIP3    H230504   5.030   6.321   1.458  0.5025 -1.6223  0.2754
 3005TIP3   OH230505   2.169   1.363   1.288 -0.2469 -0.1801 -0.5550
 3005TIP3    H130506   2.241   1.348   1.226  1.4030 -0.7256  1.3809
 3005TIP3    H230507   2.137   1.450   1.267  0.3855 -0.2647 -2.0190
 3006TIP3   OH230508   0.889   3.661   4.761  0.5476 -0.2379 -0.1911
 3006TIP3    H130509   0.863   3.643   4.671  0.1008 -0.3734 -0.0412
 3006TIP3    H230510   0.850   3.589   4.812 -1.2935  1.1237  0.4366
 3007TIP3   OH230511   4.554   6.524   3.172  0.2547 -0.9315 -0.4036
 3007TIP3    H130512   4.586   6.436   3.153  1.1996 -0.3447 -1.6393
 3007TIP3    H230513   4.511   6.552   3.092 -0.0021 -0.2413 -0.0306
 3008TIP3   OH230514   1.495   3.898   2.522  0.1055 -0.1301 -0.4344
 3008TIP3    H130515   1.435   3.950   2.469  2.6121  0.0995 -3.2957
 3008TIP3    H230516   1.473   3.807   2.502 -0.4699 -0.0950  0.0063
 3009TIP3   OH230517   1.774   1.635  14.344  0.7416  0.1758  0.1653
 3009TIP3    H130518   1.849   1.660  14.399 -0.2806  1.6275  0.9747
 3009TIP3    H230519   1.774   1.701  14.274  1.3062 -0.9403 -0.9249
 3010TIP3   OH230520   2.649   2.237  16.801  0.0702 -0.5597  0.1171
 3010TIP3    H130521   2.623   2.284  16.880 -0.3598 -0.6141  0.0142
 3010TIP3    H230522   2.730   2.192  16.824  0.4634  0.1981  0.2296
 3011TIP3   OH230523   0.390   3.809  14.257 -0.4345  0.2077  0.0426
 3011TIP3    H130524   0.451   3.743  14.291  1.4641  2.3876  1.1440
 3011TIP3    H230525   0.404   3.809  14.163 -1.6872 -2.0311 -0.2159
 3012TIP3   OH230526   3.548   4.672   1.549 -0.1340  0.2299 -0.1561
 3012TIP3    H130527   3.518   4.756   1.514 -0.0094 -0.1352 -1.1941
 3012TIP3    H230528   3.597   4.694   1.628  0.2959  1.1725 -0.6720
 3013TIP3   OH230529   1.370   0.180   5.621  0.3405  0.7250 -0.5272
 3013TIP3    H130530   1.380   0.095   5.580  0.6355  1.2840 -1.6488
 3013TIP3    H230531   1.312   0.164   5.696  3.2113 -1.1588  1.5050
 3014TIP3   OH230532   2.345   0.973   2.562 -0.0434  0.4141  0.0033
 3014TIP3    H130533   2.290   0.935   2.494 -0.3911  0.8424  0.0343
 3014TIP3    H230534   2.295   0.959   2.643  0.5160 -0.3777  0.2121
 3015TIP3   OH230535   5.599   4.670  12.291 -0.3128  0.0821  0.0527
 3015TIP3    H130536   5.677   4.724  12.280 -0.4465  0.0631 -1.1124
 3015TIP3    H230537   5.539   4.725  12.341 -0.5397  1.1320 -1.3373
 3016TIP3   OH230538   0.740   2.847  14.970 -0.1796 -0.0989  0.3138
 3016TIP3    H130539   0.763   2.940  14.966  1.6625 -0.5634 -1.4657
 3016TIP3    H230540   0.803   2.810  15.033 -1.0309 -0.1389  1.1605
 3017TIP3   OH230541   3.648   3.867   5.840  0.0052 -0.1621 -0.1805
 3017TIP3    H130542   3.579   3.863   5.774  0.1556 -1.4893 -0.2972
 3017TIP3    H230543   3.631   3.948   5.889 -2.1438 -0.8463  0.3160
 3018TIP3   OH230544   3.293   2.640   2.949 -0.2541  0.0684  0.0631
 3018TIP3    H130545   3.344   2.559   2.946 -1.1279 -0.5860  1.8087
 3018TIP3    H230546   3.202   2.612   2.944 -0.7406  0.5926  3.5176
 3019TIP3   OH230547   0.527   6.011   5.652  0.6666 -0.1252  0.3496
 3019TIP3    H130548   0.622   6.016   5.641  0.5437  0.2519 -0.6780
 3019TIP3    H230549   0.493   6.084   5.600 -0.1958 -0.4031  0.5081
 3020TIP3   OH230550   6.355   0.271   4.442  0.0442  0.1259 -0.0181
 3020TIP3    H130551   6.283   0.288   4.503  1.0032 -0.6929  1.4139
 3020TIP3    H230552   6.384   0.182   4.463  0.8340  0.0666 -1.2420
 3021TIP3   OH230553   0.506   3.767   4.487  0.3358 -0.5064  0.2705
 3021TIP3    H130554   0.547   3.853   4.493 -0.9141  0.0212  1.8167
 3021TIP3    H230555   0.561   3.710   4.541 -0.2118 -0.0798  1.3143
 3022TIP3   OH230556   6.710   4.491  13.107  0.3154 -0.0508  0.1022
 3022TIP3    H130557   6.659   4.507  13.028  1.4551 -2.9271 -1.3639
 3022TIP3    H230558   6.673   4.550  13.172 -1.4254  1.6165 -2.2488
 3023TIP3   OH230559   2.996   3.854  12.660 -0.2135 -0.2569 -0.2409
 3023TIP3    H130560   2.936   3.927  12.647  0.1090  0.3117  1.2174
 3023TIP3    H230561   2.946   3.777  12.633 -1.1843  0.3260 -0.1591
 3024TIP3   OH230562   5.020   5.047  14.510  0.1379 -0.1727 -0.1698
 3024TIP3    H130563   5.046   5.111  14.444 -0.1106  0.3466  0.2357
 3024TIP3    H230564   5.059   5.079  14.592 -0.4933 -0.2129  0.1505
 3025TIP3   OH230565   3.363   2.706  17.196 -0.2883 -0.5433 -0.3031
 3025TIP3    H130566   3.340   2.730  17.107 -0.3902  0.5690  0.0107
 3025TIP3    H230567   3.314   2.767  17.251  0.5578 -0.5480  0.4819
 3026TIP3   OH230568   3.411   1.512  16.438  0.2256  0.0369  0.3867
 3026TIP3    H130569   3.390   1.593  16.393  1.5542 -0.1315 -0.5659
 3026TIP3    H230570   3.447   1.455  16.371 -1.7463 -1.8118  0.7644
 3027TIP3   OH230571   3.591   5.877   5.642 -0.4563  0.3043 -0.0885
 3027TIP3    H130572   3.534   5.943   5.682 -2.8086 -0.9645 -1.1402
 3027TIP3    H230573   3.653   5.854   5.710 -3.9030 -1.3802  2.8309
 3028TIP3   OH230574   2.283   4.332   3.772  0.6445  0.5781  0.2529
 3028TIP3    H130575   2.329   4.274   3.712  1.6681  1.4919  0.1276
 3028TIP3    H230576   2.337   4.411   3.776 -0.9255  1.7181  0.0692
 3029TIP3   OH230577   0.206   3.275   5.533 -0.6765 -0.0288 -0.3739
 3029TIP3    H130578   0.272   3.344   5.528  0.7764 -1.4475 -3.2135
 3029TIP3    H230579   0.123   3.322   5.535  0.3210  1.7863  1.3037
 3030TIP3   OH230580   6.607   3.617   2.930 -0.5671  0.2027  0.3498
 3030TIP3    H130581   6.659   3.684   2.974 -0.2403  0.6273 -0.6648
 3030TIP3    H230582   6.548   3.665   2.872 -1.1115 -0.3446  0.4306
 3031TIP3   OH230583   6.603   5.601   1.036 -0.3038 -0.0172  0.6064
 3031TIP3    H130584   6.630   5.559   0.955 -3.0325 -0.6904 -0.0593
 3031TIP3    H230585   6.607   5.532   1.102 -0.6136 -0.1631  0.4707
 3032TIP3   OH230586   6.675   4.894  11.150  0.3492  0.1060 -0.5929
 3032TIP3    H130587   6.655   4.831  11.219  2.0398  0.7005  0.5297
 3032TIP3    H230588   6.613   4.966  11.164 -0.8930 -0.8052 -1.2283
 3033TIP3   OH230589   0.933   0.989  16.944  0.2375 -0.8288 -0.1361
 3033TIP3    H130590   0.981   1.072  16.947  0.9691 -1.2621  0.5170
 3033TIP3    H230591   0.941   0.954  17.032 -2.4588 -0.2895  0.3829
 3034TIP3   OH230592   5.758   2.687  11.561  0.2988 -0.1791 -0.3780
 3034TIP3    H130593   5.806   2.632  11.624  1.0709  1.0574  0.1502
 3034TIP3    H230594   5.796   2.774  11.572 -1.8087  0.7787 -0.2433
 3035TIP3   OH230595   0.733   1.384   0.270  0.4323 -0.0927 -0.0467
 3035TIP3    H130596   0.664   1.415   0.212  0.5023 -0.6929 -0.4638
 3035TIP3    H230597   0.770   1.463   0.309  2.4614  0.6375 -3.1306
 3036TIP3   OH230598   4.591   1.151  11.200 -0.3439  0.4288  0.4545
 3036TIP3    H130599   4.654   1.217  11.229 -0.0748 -0.5501  2.3028
 3036TIP3    H230600   4.506   1.193  11.209 -0.1042  0.9688  0.2560
 3037TIP3   OH230601   3.213   5.996  13.742 -1.0001  0.0431  0.2855
 3037TIP3    H130602   3.169   6.025  13.662 -1.7559 -0.9744  0.3239
 3037TIP3    H230603   3.145   5.951  13.792 -0.3894  0.1649  1.2423
 3038TIP3   OH230604   2.099   3.894  13.249  0.2933 -0.1356 -0.1577
 3038TIP3    H130605   2.175   3.937  13.288 -0.7103  2.4051 -0.7349
 3038TIP3    H230606   2.075   3.825  13.310  2.3893 -0.2926  0.5605
 3039TIP3   OH230607   5.374   2.690   1.295 -0.0034 -0.2499  0.0306
 3039TIP3    H130608   5.293   2.727   1.329 -0.5276 -0.9884 -0.4060
 3039TIP3    H230609   5.431   2.766   1.281 -0.8259  0.3268 -0.2397
 3040TIP3   OH230610   3.027   1.659  15.970 -0.8143 -0.3549  0.2163
 3040TIP3    H130611   3.100   1.715  15.944 -1.3936 -0.1578 -1.0393
 3040TIP3    H230612   3.019   1.595  15.900 -2.7332  0.4841 -0.4113
 3041TIP3   OH230613   3.848   5.973  16.303  0.5385  0.3449  0.2922
 3041TIP3    H130614   3.870   6.017  16.221  0.0046 -1.3507 -0.8275
 3041TIP3    H230615   3.918   5.998  16.363  1.6892  0.5804 -1.0862
 3042TIP3   OH230616   4.149   5.269   1.045 -0.8632 -0.0834 -0.4563
 3042TIP3    H130617   4.121   5.290   1.134  0.4696 -0.4247  0.0547
 3042TIP3    H230618   4.132   5.175   1.035  1.4306 -0.6564  0.4114
 3043TIP3   OH230619   0.906   1.995  16.302 -0.0219 -0.5233 -0.0113
 3043TIP3    H130620   0.967   2.068  16.314 -0.0233 -0.1925 -1.8190
 3043TIP3    H230621   0.886   1.994  16.209 -0.2908 -2.6398  0.0034
 3044TIP3   OH230622   4.024   1.037  12.966  0.0284  0.5036 -0.3327
 3044TIP3    H130623   3.957   1.014  12.901 -1.6827  1.7059  0.9272
 3044TIP3    H230624   4.085   0.963  12.964 -0.3294  0.1880 -2.7945
 3045TIP3   OH230625   6.270   1.689  17.194  0.2279  0.0208  0.8518
 3045TIP3    H130626   6.362   1.697  17.218  0.9936 -0.3714 -1.7007
 3045TIP3    H230627   6.236   1.621  17.251  2.2282 -1.6990  0.0954
 3046TIP3   OH230628   2.152   5.171   3.640 -0.3483 -0.3617 -0.3885
 3046TIP3    H130629   2.230   5.225   3.625 -1.6676  1.6304 -0.5566
 3046TIP3    H230630   2.082   5.218   3.594 -1.5650 -2.3914 -0.7324
 3047TIP3   OH230631   6.052   0.374  12.627 -0.2144  0.8093  0.1834
 3047TIP3    H130632   6.077   0.369  12.719  0.2159 -0.1264  0.0318
 3047TIP3    H230633   5.978   0.313  12.619 -0.3828  1.0431 -0.0455
 3048TIP3   OH230634   0.566   5.608   0.286  0.2052  0.0209  0.0236
 3048TIP3    H130635   0.603   5.601   0.198 -0.9191 -0.4563 -0.4245
 3048TIP3    H230636   0.492   5.668   0.276 -0.9146 -1.2693  0.2977
 3049TIP3   OH230637   5.753   2.586  16.095 -0.0663 -0.0780  0.2051
 3049TIP3    H130638   5.842   2.588  16.062 -0.6130  2.7818 -1.4011
 3049TIP3    H230639   5.699   2.564  16.019 -0.9568  1.6004  0.3111
 3050TIP3   OH230640   4.662   4.695  16.515  0.0465 -0.1116 -0.0401
 3050TIP3    H130641   4.742   4.736  16.481  0.4694 -0.9583 -0.0881
 3050TIP3    H230642   4.648   4.737  16.600  0.1136  0.5758 -0.3618
 3051TIP3   OH230643   0.298   0.408   5.943  0.3224  0.5550 -0.2557
 3051TIP3    H130644   0.322   0.336   5.885  0.9176  0.9384 -0.4999
 3051TIP3    H230645   0.372   0.469   5.937  0.2984  0.6977  0.7519
 3052TIP3   OH230646   5.500   2.500  12.082  0.0013  0.3477 -0.2526
 3052TIP3    H130647   5.576   2.541  12.123 -0.2020 -0.7242  1.2770
 3052TIP3    H230648   5.424   2.544  12.120 -0.2150 -1.2109  1.2745
 3053TIP3   OH230649   6.673   1.575  16.092  0.9200  0.2777  0.1121
 3053TIP3    H130650   6.640   1.614  16.011  2.1885  0.9032 -0.1346
 3053TIP3    H230651   6.711   1.648  16.140  2.2278 -0.4412  0.2206
 3054TIP3   OH230652   0.239   1.693   4.136 -0.4543  0.6811  0.5033
 3054TIP3    H130653   0.155   1.733   4.159 -1.1077 -0.7863  0.7572
 3054TIP3    H230654   0.296   1.712   4.211 -0.7504  1.1196  0.6187
 3055TIP3   OH230655   6.297   2.327   1.566  0.1401 -0.2586 -0.3192
 3055TIP3    H130656   6.351   2.400   1.536  0.3827  0.2037  1.1549
 3055TIP3    H230657   6.265   2.286   1.486  0.1796  1.3345 -1.1971
 3056TIP3   OH230658   6.087   0.759   4.301  0.0482 -0.1459 -0.1886
 3056TIP3    H130659   6.114   0.682   4.251 -2.1978 -0.7431 -0.6101
 3056TIP3    H230660   6.014   0.796   4.250  0.5090  1.7732  0.4610
 3057TIP3   OH230661   1.265   5.396  13.086  0.3283 -0.1292 -0.0969
 3057TIP3    H130662   1.268   5.433  13.175 -0.1312  1.0412 -0.5491
 3057TIP3    H230663   1.350   5.420  13.048 -0.0727  0.7277 -0.4798
 3058TIP3   OH230664   0.849   5.573   3.646  0.4669  0.3882  0.8414
 3058TIP3    H130665   0.918   5.579   3.712  1.3448  0.9228 -0.0999
 3058TIP3    H230666   0.817   5.483   3.653  1.2242  0.1480  1.3215
 3059TIP3   OH230667   2.169   1.223  14.991  0.3686 -0.1714  0.3325
 3059TIP3    H130668   2.099   1.220  14.925  1.9403 -0.8038 -1.3928
 3059TIP3    H230669   2.137   1.286  15.055 -2.7563 -2.0126  0.8321
 3060TIP3   OH230670   5.379   0.183  12.168 -0.4697 -0.3670 -0.5641
 3060TIP3    H130671   5.462   0.230  12.160 -0.2845 -0.1891  1.8445
 3060TIP3    H230672   5.313   0.249  12.149 -0.1207 -0.1106 -0.9198
 3061TIP3   OH230673   2.733   0.681  11.637  0.3656 -0.1624  0.0907
 3061TIP3    H130674   2.651   0.729  11.630  0.2130 -0.4377 -0.0144
 3061TIP3    H230675   2.799   0.748  11.656  0.0788  0.0230  0.4328
 3062TIP3   OH230676   6.031   1.011  13.356 -0.2111  0.3930 -0.1903
 3062TIP3    H130677   6.009   1.060  13.436  0.4325  2.5982 -1.2922
 3062TIP3    H230678   6.103   1.060  13.317  2.6544 -3.1487  0.1369
 3063TIP3   OH230679   2.331   0.145   4.770  0.4925 -0.9561  0.2020
 3063TIP3    H130680   2.248   0.098   4.776 -0.6413  0.6309 -1.5639
 3063TIP3    H230681   2.385   0.109   4.840 -2.0462 -1.3267  2.1081
 3064TIP3   OH230682   3.427   4.916   1.457 -0.6622  0.0044 -0.2415
 3064TIP3    H130683   3.388   4.967   1.527  0.4815 -0.3388  0.6694
 3064TIP3    H230684   3.406   4.964   1.377  0.4621  1.9443  0.5896
 3065TIP3   OH230685   3.167   3.626  16.136  0.0268  0.0908  0.2573
 3065TIP3    H130686   3.119   3.552  16.099  2.5392 -1.8329  0.5083
 3065TIP3    H230687   3.103   3.673  16.189 -1.6097 -2.2427  0.4866
 3066TIP3   OH230688   3.307   5.320  11.735 -0.2827 -0.1081  0.4859
 3066TIP3    H130689   3.270   5.303  11.648 -1.4358  0.3838  0.8642
 3066TIP3    H230690   3.283   5.411  11.753 -0.1722 -0.2521  1.3729
 3067TIP3   OH230691   2.282   3.717  11.946 -0.4912  0.4375 -0.0477
 3067TIP3    H130692   2.367   3.705  11.988 -0.4072  1.3556  0.0649
 3067TIP3    H230693   2.301   3.770  11.868 -0.8685  0.1040 -0.3691
 3068TIP3   OH230694   6.762   1.905  15.902 -0.1554  0.3024 -0.6329
 3068TIP3    H130695   6.813   1.862  15.970  0.6565  1.3655 -0.5393
 3068TIP3    H230696   6.827   1.930  15.836 -0.4573  2.0837 -0.2996
 3069TIP3   OH230697   5.979   1.577  11.828 -0.5082 -0.4008 -0.0914
 3069TIP3    H130698   5.928   1.654  11.850  0.3949  0.7363 -1.7041
 3069TIP3    H230699   5.914   1.510  11.807 -1.4669  1.1115 -2.4726
 3070TIP3   OH230700   0.090   1.324   5.807  0.4327 -0.3587  0.3757
 3070TIP3    H130701   0.121   1.234   5.821 -0.8884 -0.6750  1.4456
 3070TIP3    H230702   0.031   1.318   5.732 -0.8780 -0.6921  1.4187
 3071TIP3   OH230703   4.300   3.519  15.399 -0.3341 -0.5026 -0.6911
 3071TIP3    H130704   4.339   3.606  15.387  0.3715  0.0131  3.5126
 3071TIP3    H230705   4.371   3.458  15.378  1.2932  0.2787  1.9648
 3072TIP3   OH230706   2.855   1.410  14.085  0.7313 -0.0634 -0.1400
 3072TIP3    H130707   2.917   1.347  14.048  1.5816  0.0074  1.1173
 3072TIP3    H230708   2.859   1.484  14.025  0.9099 -0.5665 -0.7639
 3073TIP3   OH230709   2.677   6.144  16.322  0.0519  0.0478  0.0147
 3073TIP3    H130710   2.720   6.216  16.276  0.6890  0.8196  1.7248
 3073TIP3    H230711   2.696   6.160  16.415  0.7252 -2.6549  0.4274
 3074TIP3   OH230712   3.631   6.057  11.273  0.2578 -0.2882  0.0439
 3074TIP3    H130713   3.703   6.119  11.281  0.1539 -0.3100  1.2863
 3074TIP3    H230714   3.665   5.976  11.311  0.2770 -0.9195 -1.2553
 3075TIP3   OH230715   2.002   4.629   1.513 -0.4166  0.6047 -0.5236
 3075TIP3    H130716   1.998   4.597   1.423 -0.7400  0.4169 -0.4424
 3075TIP3    H230717   1.915   4.663   1.530 -1.2266 -1.8010  0.6215
 3076TIP3   OH230718   2.232   4.994  12.583  0.5782  0.5510 -0.3609
 3076TIP3    H130719   2.243   5.088  12.598 -0.2571  0.6650 -0.4394
 3076TIP3    H230720   2.285   4.976  12.505 -0.0892  1.1686 -0.9682
 3077TIP3   OH230721   2.989   4.056   2.487  0.6624  0.2013  0.1194
 3077TIP3    H130722   2.909   4.004   2.482  1.7577 -1.4730 -0.7182
 3077TIP3    H230723   2.981   4.121   2.417  0.8196 -1.1503 -1.1943
 3078TIP3   OH230724   3.887   3.969  11.729 -0.5982 -0.1264  0.0562
 3078TIP3    H130725   3.948   4.039  11.753  0.0668 -0.4168 -0.7340
 3078TIP3    H230726   3.930   3.924  11.656 -1.9146 -0.1329 -0.7419
 3079TIP3   OH230727   0.570   0.606  11.410  0.4646  0.5110 -0.0946
 3079TIP3    H130728   0.583   0.600  11.316 -0.5736  0.5049 -0.2390
 3079TIP3    H230729   0.476   0.617  11.422  0.2948 -1.6632  1.0505
 3080TIP3   OH230730   5.604   1.251   5.708 -0.6270 -0.5227 -0.7986
 3080TIP3    H130731   5.564   1.331   5.674  1.6448  1.3817  0.7221
 3080TIP3    H230732   5.534   1.209   5.758 -1.5357  1.1991 -0.5605
 3081TIP3   OH230733   3.819   1.926  15.260  0.2855  0.3534 -0.0768
 3081TIP3    H130734   3.829   2.021  15.258  0.9239  0.3248  1.1571
 3081TIP3    H230735   3.787   1.906  15.348  0.9906 -0.6455 -0.0281
 3082TIP3   OH230736   0.816   3.225  14.159  0.4967  0.5162 -0.3454
 3082TIP3    H130737   0.885   3.236  14.224  0.7018  1.9446 -0.7760
 3082TIP3    H230738   0.857   3.247  14.076  0.0462 -0.6005 -0.8874
 3083TIP3   OH230739   0.521   4.244  14.823 -0.3533  0.0138  0.2315
 3083TIP3    H130740   0.430   4.240  14.854  0.0334  0.3633  1.4787
 3083TIP3    H230741   0.565   4.173  14.869 -0.0148 -0.2449 -0.4788
 3084TIP3   OH230742   4.177   1.911   0.114 -0.0646 -0.3074 -0.0433
 3084TIP3    H130743   4.136   1.828   0.088  0.6249 -0.4533 -0.7005
 3084TIP3    H230744   4.134   1.977   0.060  2.1197 -0.7370 -2.4948
 3085TIP3   OH230745   1.524   5.529  16.206 -0.2071  0.1623  0.5389
 3085TIP3    H130746   1.453   5.464  16.206  1.1264 -1.3484  0.7161
 3085TIP3    H230747   1.550   5.535  16.298 -0.3087  0.9774  0.5235
 3086TIP3   OH230748   5.816   0.913  17.302 -0.1228  0.0291 -0.1781
 3086TIP3    H130749   5.869   0.977  17.254 -0.5616 -0.6442 -1.6173
 3086TIP3    H230750   5.776   0.963  17.373 -0.5305  1.3808 -1.3111
 3087TIP3   OH230751   4.859   1.152  12.660  0.5519 -0.6056 -0.0377
 3087TIP3    H130752   4.782   1.120  12.614 -0.5358  0.6158  0.8722
 3087TIP3    H230753   4.888   1.077  12.713 -1.7947 -0.2739  1.8613
 3088TIP3   OH230754   3.811   3.021   3.433 -0.4772 -0.2434 -0.1639
 3088TIP3    H130755   3.857   3.020   3.349  2.2502  1.8860  1.1531
 3088TIP3    H230756   3.843   2.944   3.479  1.8574  1.1580  0.6927
 3089TIP3   OH230757   6.520   1.342  16.939 -0.4343  0.2320 -0.4597
 3089TIP3    H130758   6.475   1.331  16.855  1.1693 -1.9307 -1.1434
 3089TIP3    H230759   6.507   1.258  16.983  0.9911  0.3833  0.2853
 3090TIP3   OH230760   1.305   2.773  11.285  0.2379 -0.2594 -0.0607
 3090TIP3    H130761   1.358   2.839  11.241 -0.8804  0.3463 -0.5382
 3090TIP3    H230762   1.235   2.822  11.327 -0.4698 -1.1193 -0.2004
 3091TIP3   OH230763   2.565   5.825   0.670  0.1698  0.3648 -0.1480
 3091TIP3    H130764   2.474   5.824   0.639  0.0578 -0.2975  0.1901
 3091TIP3    H230765   2.559   5.861   0.758 -0.0019 -1.3306  0.5628
 3092TIP3   OH230766   6.701   2.336   6.232 -0.0578  0.0521 -0.0292
 3092TIP3    H130767   6.773   2.335   6.294  0.9660 -0.6378 -1.1814
 3092TIP3    H230768   6.626   2.304   6.282  0.5301  0.3603  1.0722
 3093TIP3   OH230769   3.492   5.647   5.504 -0.1376  0.2547 -0.5896
 3093TIP3    H130770   3.486   5.701   5.425 -1.0506 -0.3175 -0.9193
 3093TIP3    H230771   3.499   5.711   5.575  0.0841  0.7830 -1.0729
 3094TIP3   OH230772   1.926   3.607   3.106  0.4888 -0.6153 -0.6031
 3094TIP3    H130773   1.910   3.512   3.108 -1.3167 -0.3403 -0.0570
 3094TIP3    H230774   1.970   3.626   3.189 -0.1934 -0.8228 -0.1849
 3095TIP3   OH230775   6.220   3.720  16.260 -0.0924  0.1852  0.7766
 3095TIP3    H130776   6.279   3.764  16.321  0.1941  0.1409  0.5336
 3095TIP3    H230777   6.274   3.654  16.217  0.6859  2.5228 -2.1192
 3096TIP3   OH230778   6.363   6.738   0.706  0.3973 -0.3060 -0.0639
 3096TIP3    H130779   6.395   6.665   0.760 -1.5750 -1.4610 -0.3537
 3096TIP3    H230780   6.357   6.812   0.766  1.5026 -0.6329  0.4698
 3097TIP3   OH230781   2.607   4.038  11.714 -0.0214  0.0383 -0.6249
 3097TIP3    H130782   2.653   3.955  11.722 -0.1078  0.0763  0.4888
 3097TIP3    H230783   2.674   4.104  11.730 -0.2874  0.1206  0.1913
 3098TIP3   OH230784   5.680   0.066   1.423  0.5163  0.1830  0.2646
 3098TIP3    H130785   5.601   0.114   1.397  0.5765  0.4374  0.5555
 3098TIP3    H230786   5.648  -0.022   1.442  0.9430 -1.2408 -4.3398
 3099TIP3   OH230787   0.092   1.962   1.574  0.3818  0.0882 -0.4514
 3099TIP3    H130788   0.063   2.043   1.616  0.2549 -0.1947  0.0147
 3099TIP3    H230789   0.184   1.978   1.553  0.4973  0.1764  0.0920
 3100TIP3   OH230790   0.386   5.150   5.776  0.1905 -0.8173 -0.1161
 3100TIP3    H130791   0.298   5.126   5.805 -0.2053 -1.2407 -1.5670
 3100TIP3    H230792   0.372   5.221   5.713  0.8976 -0.7942 -0.2576
 3101TIP3   OH230793   0.045   2.725  16.007  0.5209  0.4174  0.1168
 3101TIP3    H130794   0.045   2.637  16.044 -0.8113 -0.0859 -0.9704
 3101TIP3    H230795  -0.016   2.774  16.062 -0.5583 -0.0109 -0.6620
 3102TIP3   OH230796   4.066   5.038  10.733  0.5189 -0.2800 -0.5335
 3102TIP3    H130797   4.072   4.946  10.758 -0.3646 -0.7035 -1.7671
 3102TIP3    H230798   3.976   5.063  10.755 -0.4514 -0.8036 -3.5026
 3103TIP3   OH230799   4.017   4.954   5.237 -0.1745  0.3057 -0.4093
 3103TIP3    H130800   3.979   4.895   5.302  0.1251  0.8156  0.2315
 3103TIP3    H230801   4.071   4.897   5.181 -0.1351 -0.0722  0.0112
 3104TIP3   OH230802   1.270   0.780  11.292  0.1167  0.3398 -0.3331
 3104TIP3    H130803   1.258   0.698  11.340  0.4133 -0.1614 -1.0853
 3104TIP3    H230804   1.196   0.834  11.318 -0.4757 -0.4331 -0.3603
 3105TIP3   OH230805   6.079   2.114  17.201  0.5290  0.2213  0.5608
 3105TIP3    H130806   6.042   2.026  17.192  1.0617 -0.0043  0.5299
 3105TIP3    H230807   6.173   2.101  17.189  0.5339  0.9104 -0.2509
 3106TIP3   OH230808   3.500   3.586  16.336  0.2836  0.6468 -0.1039
 3106TIP3    H130809   3.498   3.530  16.414 -1.3530 -3.5249 -2.8016
 3106TIP3    H230810   3.408   3.594  16.310  0.7269  2.4653 -1.3284
 3107TIP3   OH230811   2.662   5.666   3.428 -0.1587 -0.1636 -0.0641
 3107TIP3    H130812   2.677   5.663   3.522  0.6009 -2.0381 -0.2085
 3107TIP3    H230813   2.738   5.713   3.393  0.8558 -1.6402  0.0624
 3108TIP3   OH230814   2.485   3.481   6.599  0.1282 -0.1665 -0.7274
 3108TIP3    H130815   2.415   3.437   6.649  1.3980  0.1554  1.4927
 3108TIP3    H230816   2.550   3.504   6.666  0.5501  3.1359 -2.0895
 3109TIP3   OH230817   2.894   6.490  14.720  0.3848 -0.1203 -0.5420
 3109TIP3    H130818   2.827   6.427  14.745  0.1019 -0.3782 -1.8472
 3109TIP3    H230819   2.948   6.501  14.798  0.0459 -1.4766 -0.0947
 3110TIP3   OH230820   6.470   0.277   1.653 -0.4885  0.6983 -0.7500
 3110TIP3    H130821   6.382   0.277   1.691 -0.5722  1.5852 -0.9320
 3110TIP3    H230822   6.457   0.295   1.560 -0.1289  0.6346 -0.8163
 3111TIP3   OH230823   2.047   3.715   4.120 -0.0729  0.1410  0.1281
 3111TIP3    H130824   2.100   3.643   4.086  2.0709  0.3081  2.8106
 3111TIP3    H230825   2.036   3.695   4.213 -2.5698  1.4944  0.2239
 3112TIP3   OH230826   4.819   4.593  12.033 -0.2816 -0.1373 -0.3109
 3112TIP3    H130827   4.803   4.499  12.024 -1.8872  0.0785  0.1213
 3112TIP3    H230828   4.901   4.607  11.985  0.4140 -1.8706  0.2519
 3113TIP3   OH230829   6.023   4.927   4.370  0.3358  0.5413 -0.0163
 3113TIP3    H130830   6.072   5.006   4.348  1.1879 -0.2843 -1.2244
 3113TIP3    H230831   5.931   4.952   4.362  0.5943  1.1006 -1.5658
 3114TIP3   OH230832   6.349   0.015  11.744 -0.1625 -0.7195  0.0847
 3114TIP3    H130833   6.372   0.013  11.836 -3.0781  0.0687  0.9262
 3114TIP3    H230834   6.377   0.102  11.714  1.9835 -1.4533 -0.1932
 3115TIP3   OH230835   3.187   5.884  11.321  0.2090 -0.1035  0.1194
 3115TIP3    H130836   3.093   5.896  11.338  0.5797  5.4420  0.1568
 3115TIP3    H230837   3.212   5.809  11.375 -4.1043 -1.8448  0.0896
 3116TIP3   OH230838   2.810   1.747  12.004 -0.3873  0.6545  0.0669
 3116TIP3    H130839   2.748   1.674  12.006  0.3769 -0.0918 -1.4855
 3116TIP3    H230840   2.894   1.707  12.029  0.4229  0.5085 -2.5610
 3117TIP3   OH230841   4.802   4.430  12.396  0.0622 -0.2706  0.5567
 3117TIP3    H130842   4.776   4.438  12.487 -0.2170 -0.7277  0.5187
 3117TIP3    H230843   4.725   4.457  12.346  0.0908 -0.3881  0.4503
 3118TIP3   OH230844   5.952   1.800  14.280  0.1649 -0.2572 -0.6332
 3118TIP3    H130845   6.027   1.783  14.338  0.3214  0.8136 -0.4927
 3118TIP3    H230846   5.991   1.827  14.197  0.0201  2.4846  0.0850
 3119TIP3   OH230847   5.385   4.679  15.170  0.4488  0.1993  0.4404
 3119TIP3    H130848   5.336   4.669  15.252  1.6903  1.4519  1.3955
 3119TIP3    H230849   5.441   4.601  15.165  0.8366  0.4217  1.1496
 3120TIP3   OH230850   2.939   0.702  14.588 -0.5605  0.2805  0.2816
 3120TIP3    H130851   2.870   0.732  14.529 -1.0726 -0.9320  0.2433
 3120TIP3    H230852   2.957   0.777  14.645 -1.0843  0.9840 -0.4611
 3121TIP3   OH230853   2.228   4.655  12.189 -0.0401  0.3684 -0.0974
 3121TIP3    H130854   2.289   4.703  12.133  3.9333 -1.5789  2.1272
 3121TIP3    H230855   2.183   4.595  12.130  0.3656  1.6700 -1.8108
 3122TIP3   OH230856   2.646   2.736  16.485  0.2898 -0.1289  0.4890
 3122TIP3    H130857   2.571   2.795  16.473  0.9063  0.6799  0.5598
 3122TIP3    H230858   2.619   2.679  16.558  1.0687  2.4730  3.0235
 3123TIP3   OH230859   5.544   5.423   4.901  0.2405 -0.2644  0.0669
 3123TIP3    H130860   5.589   5.418   4.816  0.9456 -0.0774  0.4185
 3123TIP3    H230861   5.608   5.464   4.959 -0.3690 -0.0589  0.6061
 3124TIP3   OH230862   0.362   5.501  13.052 -0.5311  0.2163 -0.2139
 3124TIP3    H130863   0.326   5.485  13.140 -0.9556 -0.1606 -0.4532
 3124TIP3    H230864   0.450   5.462  13.055 -1.6521 -2.5811 -0.8866
 3125TIP3   OH230865   1.457   3.776   1.063 -0.2147  0.1504  0.0671
 3125TIP3    H130866   1.386   3.716   1.087  1.0141 -2.1570 -1.5896
 3125TIP3    H230867   1.421   3.863   1.079 -3.0367 -0.9248  0.2592
 3126TIP3   OH230868   1.715   5.109   1.586 -0.2026 -0.1126 -0.3535
 3126TIP3    H130869   1.728   5.201   1.563 -0.9369  0.1241  0.1204
 3126TIP3    H230870   1.798   5.067   1.566 -0.2641  0.4019 -1.7677
 3127TIP3   OH230871   2.483   6.617   0.252  0.3014 -0.5811 -0.3983
 3127TIP3    H130872   2.537   6.695   0.247  1.1158 -1.1987 -2.0614
 3127TIP3    H230873   2.495   6.574   0.167 -3.0411 -0.6121 -1.0096
 3128TIP3   OH230874   3.657   1.001  16.851  0.1505  0.2895  0.0744
 3128TIP3    H130875   3.569   0.981  16.820  0.2598  0.1864 -0.1783
 3128TIP3    H230876   3.665   0.954  16.934  1.1491 -2.6381 -1.4916
 3129TIP3   OH230877   3.629   3.066  13.658  0.0293  0.3326  0.3346
 3129TIP3    H130878   3.611   3.159  13.644 -1.2504 -0.0967 -1.1262
 3129TIP3    H230879   3.693   3.044  13.591 -0.5473 -0.0984 -0.0747
 3130TIP3   OH230880   2.002   2.471   0.565  0.0119  0.3779  0.2135
 3130TIP3    H130881   1.934   2.408   0.590  0.5515 -1.0790 -1.7691
 3130TIP3    H230882   2.079   2.444   0.615  0.1155 -0.2449 -0.2830
 3131TIP3   OH230883   4.812   1.952   5.845 -0.7817 -0.5561 -0.2414
 3131TIP3    H130884   4.770   2.030   5.883  1.1864  1.3069 -1.6515
 3131TIP3    H230885   4.752   1.925   5.776 -1.4642 -0.2687  0.2205
 3132TIP3   OH230886   6.161   1.610  17.439 -0.0828  0.0538 -0.2495
 3132TIP3    H130887   6.092   1.565  17.392 -0.9381  2.0493 -1.0049
 3132TIP3    H230888   6.119   1.640  17.520  0.1947  0.3755 -0.2241
 3133TIP3   OH230889   3.019   3.933   3.588 -0.1329 -0.0738  0.3637
 3133TIP3    H130890   3.094   3.989   3.569  0.4601 -0.7961  0.4999
 3133TIP3    H230891   2.996   3.954   3.678  1.8138 -1.9003  1.4027
 3134TIP3   OH230892   4.636   5.396  14.063  0.7199 -0.3382  0.1456
 3134TIP3    H130893   4.573   5.361  14.126  0.8897 -0.2174  0.3857
 3134TIP3    H230894   4.590   5.394  13.979 -0.3357  1.5891  0.6172
 3135TIP3   OH230895   5.325   4.720  15.602 -0.3677 -0.7130  0.3090
 3135TIP3    H130896   5.419   4.703  15.601 -0.3337 -0.6896  1.4427
 3135TIP3    H230897   5.301   4.729  15.510  0.2575 -3.3404 -0.1872
 3136TIP3   OH230898   6.530   2.727  14.846  0.3228 -0.2892  0.4745
 3136TIP3    H130899   6.547   2.771  14.763 -0.6393 -0.1947  0.3178
 3136TIP3    H230900   6.609   2.674  14.862  0.9240  0.4496  0.0019
 3137TIP3   OH230901   3.922   3.323  17.224  0.2340 -0.1075  0.4171
 3137TIP3    H130902   3.917   3.391  17.291 -1.4434  1.3717 -1.0704
 3137TIP3    H230903   4.013   3.296  17.224  0.6884  1.2615  1.9448
 3138TIP3   OH230904   4.384   6.263  12.996 -0.1800  0.1459 -0.4086
 3138TIP3    H130905   4.460   6.299  13.041  0.4858 -1.4932 -0.1347
 3138TIP3    H230906   4.309   6.296  13.044  0.4565  0.0051  0.7085
 3139TIP3   OH230907   2.784   1.998   1.173  0.0669 -0.7543  0.2605
 3139TIP3    H130908   2.760   2.035   1.258  1.1961 -0.3558  0.4170
 3139TIP3    H230909   2.876   1.974   1.182  0.1548 -0.8709 -0.7931
 3140TIP3   OH230910   4.225   5.433  13.964  0.3911 -0.0701 -0.1803
 3140TIP3    H130911   4.135   5.462  13.980  0.4803 -1.0204  2.7714
 3140TIP3    H230912   4.278   5.493  14.015  1.2056 -0.8779 -0.0519
 3141TIP3   OH230913   4.760   6.683   0.795 -0.0172 -0.0112  0.1142
 3141TIP3    H130914   4.851   6.654   0.797  0.1765  0.5319 -0.7728
 3141TIP3    H230915   4.711   6.607   0.827  0.6358 -0.7428 -0.5657
 3142TIP3   OH230916   2.724   3.079   2.157  0.4677  0.2993 -0.0449
 3142TIP3    H130917   2.758   3.125   2.080  0.5868  1.0605  0.4457
 3142TIP3    H230918   2.778   3.001   2.164 -0.5219 -0.5893 -1.6107
 3143TIP3   OH230919   4.663   2.113   6.039 -0.1729 -0.0819 -0.3274
 3143TIP3    H130920   4.688   2.204   6.054  0.7438 -0.6790  2.4471
 3143TIP3    H230921   4.685   2.069   6.121 -1.0433 -2.7216 -1.4120
 3144TIP3   OH230922   0.863   3.474  13.515  0.3674  0.0102  0.6822
 3144TIP3    H130923   0.915   3.552  13.493 -1.1310  1.2087  1.1657
 3144TIP3    H230924   0.837   3.438  13.431 -0.9701  1.5132  0.4009
 3145TIP3   OH230925   2.753   4.726  11.284  0.2594 -0.1483 -0.1653
 3145TIP3    H130926   2.662   4.701  11.299  1.2328 -3.0978  1.6374
 3145TIP3    H230927   2.786   4.751  11.370  1.5191 -0.4462 -0.5378
 3146TIP3   OH230928   5.358   2.159   6.244  0.1314 -0.1959 -0.0975
 3146TIP3    H130929   5.412   2.167   6.322 -0.6164  0.9199  0.3184
 3146TIP3    H230930   5.410   2.104   6.185  2.1971  1.6407 -0.1190
 3147TIP3   OH230931   3.500   2.572   4.368 -0.2056  0.4783 -0.4429
 3147TIP3    H130932   3.578   2.624   4.349 -0.3541  1.5756  1.6735
 3147TIP3    H230933   3.498   2.565   4.463 -2.1487 -0.4042 -0.5037
 3148TIP3   OH230934   1.561   5.640  14.074 -0.1293 -0.5919  0.3513
 3148TIP3    H130935   1.635   5.581  14.084  0.6799  0.4498  0.6329
 3148TIP3    H230936   1.543   5.639  13.980  2.2265  1.4375 -0.2230
 3149TIP3   OH230937   5.071   0.810  12.195  0.0941  0.4989  0.1937
 3149TIP3    H130938   5.096   0.728  12.237 -2.4450 -1.2578 -1.4096
 3149TIP3    H230939   5.129   0.817  12.119 -0.2187 -0.3067 -0.1352
 3150TIP3   OH230940   4.902   2.794   4.450 -0.1112  0.1510  0.3169
 3150TIP3    H130941   4.951   2.753   4.521 -0.4999  0.2696  0.6504
 3150TIP3    H230942   4.916   2.735   4.375  0.9865  0.4709  0.2589
 3151TIP3   OH230943   1.513   6.131   3.487  0.1289 -0.3858  0.0452
 3151TIP3    H130944   1.432   6.124   3.537  0.2511  0.1127  0.3148
 3151TIP3    H230945   1.552   6.214   3.515  1.3616 -1.2123  0.8683
 3152TIP3   OH230946   4.898   1.003  14.984 -0.0495  0.1920 -1.3227
 3152TIP3    H130947   4.856   0.917  14.978 -1.8744  0.8635  0.7107
 3152TIP3    H230948   4.990   0.983  14.999 -0.6911 -1.4830  0.9273
 3153TIP3   OH230949   1.793   3.363   1.780  0.6122 -0.5433  0.1960
 3153TIP3    H130950   1.880   3.369   1.740 -0.1266 -2.2644 -1.8768
 3153TIP3    H230951   1.737   3.415   1.722 -0.0794 -1.1486  0.3047
 3154TIP3   OH230952   3.087   1.573   4.619 -0.6886  0.1375  0.3379
 3154TIP3    H130953   3.024   1.503   4.636 -0.7272  0.3731  1.2128
 3154TIP3    H230954   3.037   1.654   4.633 -0.9047  0.3877 -1.5723
 3155TIP3   OH230955   5.899   1.468   3.758  0.2609  0.5403  0.0115
 3155TIP3    H130956   5.994   1.463   3.771  0.0951 -1.5679  0.8334
 3155TIP3    H230957   5.883   1.558   3.730  2.4976  0.9424 -0.1514
 3156TIP3   OH230958   1.487   5.348  14.906  0.3925 -0.0084 -0.0342
 3156TIP3    H130959   1.447   5.413  14.964  0.8816 -0.2640  0.6039
 3156TIP3    H230960   1.447   5.364  14.821 -0.1158  0.5754  0.3058
 3157TIP3   OH230961   4.520   4.220   3.910  0.0655  0.3851  0.5733
 3157TIP3    H130962   4.503   4.163   3.834  1.0555 -0.6650  1.1078
 3157TIP3    H230963   4.594   4.275   3.882 -1.3321  1.9537 -0.1969
 3158TIP3   OH230964   3.649   0.760   4.428 -0.0851  0.7864 -0.1306
 3158TIP3    H130965   3.630   0.781   4.519 -0.4215  2.6143 -0.5760
 3158TIP3    H230966   3.727   0.811   4.407 -0.3779  0.8872 -1.0323
 3159TIP3   OH230967   4.439   2.513  15.806  0.3765 -0.5816  0.0890
 3159TIP3    H130968   4.403   2.486  15.891  2.4435  0.7962  1.5092
 3159TIP3    H230969   4.529   2.481  15.807  0.1569 -1.3826 -2.0651
 3160TIP3   OH230970   0.905   3.510   5.116 -0.1183 -0.2264  0.0827
 3160TIP3    H130971   0.942   3.588   5.156 -0.7211 -0.3452  0.9039
 3160TIP3    H230972   0.975   3.476   5.059  0.9298 -0.2825  1.3578
 3161TIP3   OH230973   3.654   4.394  17.403 -0.5503  0.1903 -0.1922
 3161TIP3    H130974   3.712   4.382  17.327  1.5192  0.5667  1.2381
 3161TIP3    H230975   3.671   4.484  17.431 -0.8299 -0.1294  1.0492
 3162TIP3   OH230976   2.362   3.812  11.670  0.3829 -0.3813  0.2979
 3162TIP3    H130977   2.420   3.886  11.689 -1.3988  1.3712 -0.6768
 3162TIP3    H230978   2.320   3.836  11.587 -0.1861 -2.5583 -0.1012
 3163TIP3   OH230979   4.477   1.919  12.357  0.8529  0.2664 -0.1518
 3163TIP3    H130980   4.442   1.964  12.280 -1.0955 -3.6679 -1.7996
 3163TIP3    H230981   4.558   1.879  12.326  1.1910  0.4292  0.5065
 3164TIP3   OH230982   0.513   5.836  17.348 -0.0488  0.5189 -0.2019
 3164TIP3    H130983   0.424   5.848  17.380 -0.3684  2.3470 -1.6002
 3164TIP3    H230984   0.553   5.923  17.354  0.6499  0.4060 -2.3422
 3165TIP3   OH230985   0.654   0.298   4.188 -0.4482 -0.6146 -0.9057
 3165TIP3    H130986   0.744   0.331   4.188 -0.1206 -1.4470 -1.9493
 3165TIP3    H230987   0.658   0.220   4.244 -0.8184  0.0372  0.0642
 3166TIP3   OH230988   2.455   4.176  11.509  0.4506  0.0058 -0.0062
 3166TIP3    H130989   2.527   4.145  11.564  1.3980  0.4698 -0.9489
 3166TIP3    H230990   2.471   4.270  11.499 -0.5532  0.2073  0.1480
 3167TIP3   OH230991   1.671   1.571   1.776  0.0887 -0.1470  1.1156
 3167TIP3    H130992   1.734   1.560   1.847  0.9271 -1.6456  0.1807
 3167TIP3    H230993   1.650   1.664   1.777  1.6957  0.2405  1.9673
 3168TIP3   OH230994   3.425   5.349  14.333  0.2447 -0.5108 -0.1419
 3168TIP3    H130995   3.480   5.375  14.406 -1.6740 -1.4077  1.7473
 3168TIP3    H230996   3.401   5.258  14.351 -3.1797  0.2998  0.1342
 3169TIP3   OH230997   2.795   0.193  17.406 -0.2504 -0.0351 -0.2590
 3169TIP3    H130998   2.856   0.124  17.382 -1.2944 -1.1704  0.2263
 3169TIP3    H230999   2.831   0.230  17.487  0.6087  0.4000 -0.8211
 3170TIP3   OH231000   1.815   4.222  16.039 -0.0367 -0.0295  0.2423
 3170TIP3    H131001   1.830   4.264  15.954 -1.1748  1.0232  0.5311
 3170TIP3    H231002   1.723   4.240  16.059  0.3624  0.2653  1.9741
 3171TIP3   OH231003   4.420   1.545   0.869  0.5382 -0.3764 -0.2874
 3171TIP3    H131004   4.454   1.576   0.953 -0.7941 -1.6838  0.7777
 3171TIP3    H231005   4.482   1.477   0.842  1.3053  0.4549 -0.7219
 3172TIP3   OH231006   3.345   4.432  17.369 -0.0191 -0.0259  0.2652
 3172TIP3    H131007   3.382   4.520  17.372  2.9963 -1.1188 -0.5501
 3172TIP3    H231008   3.257   4.443  17.333  0.6591  2.5598 -0.8167
 3173TIP3   OH231009   3.092   1.060   4.029 -0.3870  0.1082 -0.4044
 3173TIP3    H131010   3.166   1.113   4.060  1.4272 -1.8196 -1.1986
 3173TIP3    H231011   3.081   1.085   3.938 -1.1205  0.7985 -0.1358
 3174TIP3   OH231012   2.124   2.404  11.410 -0.2293 -0.0835  0.5530
 3174TIP3    H131013   2.058   2.455  11.456  1.2928  0.6875  1.9643
 3174TIP3    H231014   2.135   2.324  11.462 -1.0922 -0.9130 -0.4970
 3175TIP3   OH231015   1.330   0.688  13.260  0.0216  0.1389 -0.2296
 3175TIP3    H131016   1.271   0.694  13.334  1.3956  0.0838  0.9242
 3175TIP3    H231017   1.345   0.779  13.233 -0.1482  0.1901 -0.1486
 3176TIP3   OH231018   3.185   2.608   0.594  0.0289 -0.2063  0.3125
 3176TIP3    H131019   3.279   2.590   0.604  0.3033  1.5944  1.3426
 3176TIP3    H231020   3.168   2.593   0.501  1.4642 -0.0572 -0.0064
 3177TIP3   OH231021   3.589   4.597   0.189  0.2168  0.4265 -0.4901
 3177TIP3    H131022   3.673   4.551   0.195  0.8717  1.5171 -0.8511
 3177TIP3    H231023   3.613   4.683   0.155 -0.9066  1.2022  0.6238
 3178TIP3   OH231024   6.557   2.742   4.158  0.3182 -0.2618  0.3860
 3178TIP3    H131025   6.493   2.805   4.126 -0.0028 -0.4383  0.6721
 3178TIP3    H231026   6.597   2.784   4.234  1.0788  0.1566 -0.2335
 3179TIP3   OH231027   6.172   2.602  10.749  0.0280  0.5025 -0.2390
 3179TIP3    H131028   6.078   2.605  10.733 -0.1727 -0.5891  0.6252
 3179TIP3    H231029   6.200   2.693  10.744 -1.0129  0.8039 -0.8258
 3180TIP3   OH231030   1.076   6.650  16.173 -0.4228 -0.7694  0.2161
 3180TIP3    H131031   1.153   6.603  16.141  0.4925 -0.1229  1.3853
 3180TIP3    H231032   1.063   6.721  16.110 -1.3396 -2.0628 -1.1231
 3181TIP3   OH231033   3.024   1.134   1.256  0.4470 -0.2612  0.0611
 3181TIP3    H131034   2.974   1.055   1.235  1.7497 -1.6155  1.7968
 3181TIP3    H231035   3.048   1.124   1.348  2.4517  1.1459 -0.2486
 3182TIP3   OH231036   0.764   3.889   0.437 -0.1964  0.3921 -0.0626
 3182TIP3    H131037   0.701   3.849   0.378  0.3383 -0.7150  0.1002
 3182TIP3    H231038   0.714   3.956   0.484 -1.1365 -0.1678 -0.2478
 3183TIP3   OH231039   2.712   1.639  13.713 -0.5450 -0.1907  0.4965
 3183TIP3    H131040   2.672   1.610  13.631 -1.3453 -0.1621  0.8682
 3183TIP3    H231041   2.806   1.634  13.697 -0.6587  1.3590 -0.9860
 3184TIP3   OH231042   0.712   4.390   1.773 -0.8620 -0.2620 -0.5668
 3184TIP3    H131043   0.639   4.351   1.822 -0.8614  2.0895  1.5324
 3184TIP3    H231044   0.676   4.471   1.737  0.1146 -0.2325 -1.5423
 3185TIP3   OH231045   1.266   3.911  12.645 -0.2426 -0.4664 -0.1674
 3185TIP3    H131046   1.263   3.825  12.603  0.1685 -0.0458 -1.0781
 3185TIP3    H231047   1.248   3.893  12.738 -0.4565 -1.4911 -0.3973
 3186TIP3   OH231048   4.191   4.359   2.628  0.5343  0.1721  0.4732
 3186TIP3    H131049   4.283   4.338   2.611  0.4989  0.0371  0.4472
 3186TIP3    H231050   4.185   4.454   2.613  0.4321  0.0145 -0.6318
 3187TIP3   OH231051   3.465   6.666  16.093 -0.6726 -0.0474 -0.3640
 3187TIP3    H131052   3.390   6.608  16.081  0.0829 -1.0756 -0.2174
 3187TIP3    H231053   3.541   6.610  16.083  0.0896  0.2838  2.5519
 3188TIP3   OH231054   1.998   4.764  13.831 -0.0095 -0.1483  0.4249
 3188TIP3    H131055   1.908   4.729  13.832  0.1674 -0.7043 -0.9334
 3188TIP3    H231056   2.031   4.740  13.744  1.9274 -1.1725  1.3909
 3189TIP3   OH231057   5.134   1.575   1.646  0.3130 -0.4120  0.1033
 3189TIP3    H131058   5.083   1.511   1.695  1.7111 -0.8165  1.0851
 3189TIP3    H231059   5.079   1.654   1.644  0.1203 -0.4473  2.1489
 3190TIP3   OH231060   6.712   2.921  17.417  0.4002 -0.4281  0.7138
 3190TIP3    H131061   6.748   3.008  17.397  1.2322 -1.2916 -1.9943
 3190TIP3    H231062   6.764   2.891  17.491  1.3501  0.6718  0.5369
 3191TIP3   OH231063   0.814   5.842  16.437  0.0282 -0.2735  0.3938
 3191TIP3    H131064   0.728   5.843  16.395 -0.2050 -2.0568  0.7579
 3191TIP3    H231065   0.874   5.876  16.371 -0.8951  0.6898  0.0253
 3192TIP3   OH231066   4.306   2.155   2.815  0.3431 -0.1625 -0.8169
 3192TIP3    H131067   4.279   2.095   2.885 -0.9728  0.3224 -0.8965
 3192TIP3    H231068   4.258   2.126   2.738  1.0034 -0.0481 -1.2768
 3193TIP3   OH231069   5.874   6.269   4.887  0.8710  0.0961  0.3715
 3193TIP3    H131070   5.789   6.231   4.910 -0.0675  1.1377 -1.1906
 3193TIP3    H231071   5.882   6.346   4.943 -0.5267  1.5401 -1.2764
 3194TIP3   OH231072   1.395   2.320  14.104 -0.2292 -0.3261  0.4184
 3194TIP3    H131073   1.325   2.375  14.070  0.2766  0.6188  0.8453
 3194TIP3    H231074   1.468   2.381  14.117  0.4203 -1.1515  0.6859
 3195TIP3   OH231075   2.448   5.662   5.019  0.2356 -0.1335 -0.3054
 3195TIP3    H131076   2.485   5.719   4.952 -0.8569 -0.5899 -1.3218
 3195TIP3    H231077   2.414   5.587   4.972 -4.1368  1.2762  0.1061
 3196TIP3   OH231078   0.655   1.692  11.676 -0.4040  0.4978  0.3071
 3196TIP3    H131079   0.615   1.775  11.702  1.0392  1.2539  0.2242
 3196TIP3    H231080   0.664   1.698  11.581 -0.4170  0.1782  0.2846
 3197TIP3   OH231081   6.357   3.540   3.259 -0.3165  0.1282 -0.3369
 3197TIP3    H131082   6.291   3.610   3.256  0.6921  1.1664  0.5246
 3197TIP3    H231083   6.307   3.459   3.248 -1.5607  0.9600 -1.0767
 3198TIP3   OH231084   1.356   2.108  14.376  0.0469  0.0956 -0.0310
 3198TIP3    H131085   1.326   2.035  14.322 -0.0548  1.0395 -1.2916
 3198TIP3    H231086   1.311   2.185  14.340 -0.4967  0.6784  1.8021
 3199TIP3   OH231087   6.146   2.865  15.736  0.3160  0.0523  0.5764
 3199TIP3    H131088   6.075   2.802  15.746  1.0240 -0.5551  2.1166
 3199TIP3    H231089   6.222   2.812  15.711  0.3724  0.6278 -0.5351
 3200TIP3   OH231090   0.621   5.330  13.767 -0.1053  0.2623  0.7357
 3200TIP3    H131091   0.593   5.267  13.701  1.8195 -0.4826  0.5617
 3200TIP3    H231092   0.593   5.292  13.850  1.1325 -0.9313  0.6421
 3201TIP3   OH231093   1.091   1.436   1.468  0.4891  0.1080  0.4480
 3201TIP3    H131094   1.147   1.359   1.457 -0.1192 -0.2485 -0.2262
 3201TIP3    H231095   1.084   1.474   1.380  0.5095  0.7435  0.7155
 3202TIP3   OH231096   3.957   0.500  14.126 -0.5462  0.0196  0.0173
 3202TIP3    H131097   4.016   0.445  14.177 -0.7672  0.1374  0.4140
 3202TIP3    H231098   3.870   0.477  14.158 -0.5989  1.1292  0.7564
 3203TIP3   OH231099   3.934   0.028   6.259 -0.6726  0.2746 -0.0651
 3203TIP3    H131100   3.987   0.101   6.290 -0.4298 -0.3143  0.9568
 3203TIP3    H231101   3.922  -0.028   6.336  0.8176 -1.7868 -1.2055
 3204TIP3   OH231102   6.306   1.421  15.428 -0.3050  0.1695  0.6907
 3204TIP3    H131103   6.356   1.396  15.506  0.3244 -0.3542  0.1274
 3204TIP3    H231104   6.339   1.364  15.359 -0.7313  0.7547 -0.0053
 3205TIP3   OH231105   2.271   2.109   4.332  0.6714  0.2004 -0.0836
 3205TIP3    H131106   2.180   2.102   4.361  1.2577 -1.9069  1.5176
 3205TIP3    H231107   2.265   2.121   4.237 -1.2914 -1.5613 -0.2758
 3206TIP3   OH231108   5.358   1.037   1.207 -0.5857  0.1094 -0.5690
 3206TIP3    H131109   5.360   1.043   1.111  0.2332  0.8247 -0.5221
 3206TIP3    H231110   5.313   0.955   1.225  0.5631 -0.7756 -1.6007
 3207TIP3   OH231111   1.093   1.586   1.728  0.2141 -0.1209 -0.1235
 3207TIP3    H131112   1.109   1.547   1.642 -0.7572  1.7471 -1.2266
 3207TIP3    H231113   1.166   1.556   1.782  0.6234 -1.6861 -1.4636
 3208TIP3   OH231114   0.026   2.697  13.919 -0.2371 -0.3520 -0.4773
 3208TIP3    H131115  -0.032   2.621  13.918  1.2679 -1.5589 -2.0581
 3208TIP3    H231116   0.110   2.664  13.951  0.3628  0.6991 -0.8805
 3209TIP3   OH231117   5.239   5.699   1.810 -0.0443  0.2160 -0.4612
 3209TIP3    H131118   5.225   5.790   1.836  0.0230  0.5492 -1.5698
 3209TIP3    H231119   5.151   5.662   1.806 -0.1998  0.6539 -1.4666
 3210TIP3   OH231120   2.178   4.021   2.535 -0.5789 -0.4525  0.0693
 3210TIP3    H131121   2.130   4.101   2.558  0.4942 -0.1302  1.3200
 3210TIP3    H231122   2.184   4.023   2.440  0.7781  1.7889  0.1413
 3211TIP3   OH231123   5.113   2.528  15.397 -0.2505 -0.0013  0.3451
 3211TIP3    H131124   5.067   2.540  15.480  1.3992  0.1562  1.2816
 3211TIP3    H231125   5.114   2.615  15.358 -1.6645 -0.2115 -0.2228
 3212TIP3   OH231126   3.326   1.162  13.240  0.0932  0.4455 -0.2969
 3212TIP3    H131127   3.284   1.105  13.306  0.8913  0.8100  0.5373
 3212TIP3    H231128   3.418   1.136  13.241  0.2004  0.7929 -0.9239
 3213TIP3   OH231129   3.624   2.738  14.532  0.2239 -0.4041 -0.1829
 3213TIP3    H131130   3.588   2.820  14.566  0.2421 -0.3320 -0.3336
 3213TIP3    H231131   3.611   2.675  14.602 -0.6974 -0.5103 -0.4408
 3214TIP3   OH231132   4.764   5.596  10.947 -0.5687 -0.8193 -0.1284
 3214TIP3    H131133   4.837   5.657  10.958 -1.0699 -0.2849  0.3319
 3214TIP3    H231134   4.697   5.645  10.900 -1.8504 -0.2285  2.1440
 3215TIP3   OH231135   5.494   6.706  14.877  0.4694 -0.4304 -0.1366
 3215TIP3    H131136   5.566   6.764  14.899  1.3566 -1.1261 -1.0869
 3215TIP3    H231137   5.528   6.651  14.806 -1.4687  0.1874 -1.6429
 3216TIP3   OH231138   3.608   2.506  16.804 -0.1078 -0.9743 -0.4700
 3216TIP3    H131139   3.656   2.452  16.740  0.4250 -2.4776  1.1294
 3216TIP3    H231140   3.516   2.494  16.780  0.0354 -2.1715 -0.4834
 3217TIP3   OH231141   3.561   3.691  13.719  0.2485 -0.2553  0.2995
 3217TIP3    H131142   3.483   3.682  13.664  0.0870 -0.9819  0.6290
 3217TIP3    H231143   3.527   3.712  13.805  0.4109 -0.6434  0.4608
 3218TIP3   OH231144   3.319   2.330  11.846  0.2650 -0.3287 -0.0927
 3218TIP3    H131145   3.396   2.380  11.818  1.2730 -1.6330  0.2522
 3218TIP3    H231146   3.245   2.379  11.810  1.2283  1.0744 -0.2663
 3219TIP3   OH231147   5.192   0.447  17.399  0.2025  0.1592 -0.5402
 3219TIP3    H131148   5.162   0.462  17.310 -0.0008  1.6098 -0.2439
 3219TIP3    H231149   5.245   0.524  17.421 -1.5473  0.9292  1.3350
 3220TIP3   OH231150   4.037   0.281  14.977 -0.5154 -0.0408 -0.2185
 3220TIP3    H131151   3.955   0.239  15.004 -0.7492 -0.7353 -1.8661
 3220TIP3    H231152   4.046   0.257  14.884  1.2899  0.4565 -0.1964
 3221TIP3   OH231153   3.994   2.079   4.224 -0.1415 -0.1866  0.2326
 3221TIP3    H131154   4.037   2.041   4.301  0.0996  1.0099  0.7142
 3221TIP3    H231155   4.064   2.087   4.159  0.1658  0.8180  0.6638
 3222TIP3   OH231156   4.096   3.405   4.935 -0.1663  0.3268 -0.2783
 3222TIP3    H131157   4.072   3.333   4.876  1.5885 -0.6990  0.2084
 3222TIP3    H231158   4.046   3.388   5.015 -0.4255  0.1470 -0.4751
 3223TIP3   OH231159   4.485   3.974  13.649  0.2350 -0.1365 -0.1648
 3223TIP3    H131160   4.495   4.032  13.725 -1.6908 -0.4005  0.3281
 3223TIP3    H231161   4.564   3.989  13.597  0.6416  1.5465  0.8770
 3224TIP3   OH231162   0.732   5.549  15.402 -0.1049  0.1595 -0.4317
 3224TIP3    H131163   0.803   5.556  15.338  0.1560 -0.7724 -0.2639
 3224TIP3    H231164   0.652   5.558  15.351  0.0939  2.6998 -0.4436
 3225TIP3   OH231165   0.737   4.790  15.506  0.3310  0.4668  0.0033
 3225TIP3    H131166   0.677   4.787  15.432  1.1525  1.6164 -0.7414
 3225TIP3    H231167   0.680   4.804  15.582 -0.5324 -0.8971 -0.3635
 3226TIP3   OH231168   0.000   5.377  15.772 -0.8423  0.3193 -0.2950
 3226TIP3    H131169  -0.054   5.373  15.694 -0.9883  0.4902 -0.2039
 3226TIP3    H231170   0.048   5.294  15.773 -1.7562 -0.2202  0.0961
 3227TIP3   OH231171   4.857   2.270   4.927  0.3167  0.2770 -0.4533
 3227TIP3    H131172   4.934   2.271   4.870  0.1910 -3.1914 -0.8568
 3227TIP3    H231173   4.788   2.309   4.873  1.1449  0.9245 -1.0778
 3228TIP3   OH231174   0.951   4.503   0.790 -0.4245 -0.1359 -0.3933
 3228TIP3    H131175   1.000   4.470   0.715  1.3540  1.2850  0.0674
 3228TIP3    H231176   0.932   4.595   0.767 -0.1388  0.2229  0.7475
 3229TIP3   OH231177   4.173   5.075  17.489 -0.4658 -0.0016 -0.3311
 3229TIP3    H131178   4.264   5.104  17.494 -0.5477  0.6090 -1.8981
 3229TIP3    H231179   4.178   4.985  17.455 -0.4786  0.5235 -1.7891
 3230TIP3   OH231180   3.684   5.666  14.066  0.7614  0.4568 -0.0391
 3230TIP3    H131181   3.684   5.612  13.986 -0.9096  0.7148 -0.2414
 3230TIP3    H231182   3.672   5.756  14.034  2.9588  0.9433  0.3332
 3231TIP3   OH231183   5.271   5.290  16.769  0.3767 -0.3867 -0.7234
 3231TIP3    H131184   5.318   5.362  16.726  0.2218 -1.0407 -2.0407
 3231TIP3    H231185   5.217   5.332  16.836  2.3660  0.4453  0.4374
 3232TIP3   OH231186   5.720   3.756   5.761 -0.9341  0.3468 -0.4036
 3232TIP3    H131187   5.786   3.688   5.750 -1.6206 -0.8556  2.0874
 3232TIP3    H231188   5.759   3.818   5.822 -1.2559  0.8871 -0.7353
 3233TIP3   OH231189   5.452   2.565  17.025 -0.6809 -0.1637  0.4660
 3233TIP3    H131190   5.456   2.544  16.932  1.3550  1.4215  0.1124
 3233TIP3    H231191   5.491   2.489  17.068 -0.9037 -0.5739 -0.0470
 3234TIP3   OH231192   3.477   1.279  12.973 -0.3001 -0.3147 -0.2948
 3234TIP3    H131193   3.485   1.230  13.055 -1.4603 -1.8215 -1.0208
 3234TIP3    H231194   3.387   1.263  12.945  0.4650 -0.9992 -2.5493
 3235TIP3   OH231195   4.576   3.017   2.018  0.2890 -0.0545 -0.6562
 3235TIP3    H131196   4.591   2.924   2.034  0.2453  0.1375  0.5642
 3235TIP3    H231197   4.654   3.061   2.051 -0.8188  0.5449  1.3263
 3236TIP3   OH231198   0.470   4.213   1.574 -0.2966 -0.0679  0.2865
 3236TIP3    H131199   0.413   4.239   1.502 -1.1903 -0.4008  0.8530
 3236TIP3    H231200   0.558   4.234   1.544 -0.5228 -1.4072 -1.4369
 3237TIP3   OH231201   5.392   3.578  15.949 -0.1064  0.3025 -0.3726
 3237TIP3    H131202   5.386   3.653  15.890 -0.8115  0.7688  0.2838
 3237TIP3    H231203   5.484   3.576  15.977 -0.0715  0.8760 -0.4411
 3238TIP3   OH231204   4.779   3.468   0.487 -0.0401 -0.0888 -0.0424
 3238TIP3    H131205   4.685   3.457   0.471 -0.1332  0.3417  0.1898
 3238TIP3    H231206   4.785   3.492   0.580  0.1582  1.5574 -0.4498
 3239TIP3   OH231207   5.838   5.438  12.185 -0.2512 -0.4499  0.2082
 3239TIP3    H131208   5.915   5.467  12.234 -0.5189  5.6282 -2.0189
 3239TIP3    H231209   5.764   5.466  12.239 -0.7068 -0.2825 -0.4912
 3240TIP3   OH231210   2.227   1.935  13.833  0.3289  0.0738 -0.6359
 3240TIP3    H131211   2.297   1.991  13.799  0.1591  0.5532 -0.2075
 3240TIP3    H231212   2.171   1.994  13.883 -0.8017 -0.1609 -1.5813
 3241TIP3   OH231213   6.583   3.295  12.801  0.3563  0.5233 -0.2545
 3241TIP3    H131214   6.512   3.306  12.737 -0.1347 -0.9884 -0.0133
 3241TIP3    H231215   6.561   3.214  12.847  1.2531  1.0313  1.1302
 3242TIP3   OH231216   0.596   6.561   3.079  0.8054  0.1185 -0.0182
 3242TIP3    H131217   0.582   6.467   3.091  4.1864 -0.4178  0.8108
 3242TIP3    H231218   0.607   6.594   3.169  0.7146  1.1172 -0.3663
 3243TIP3   OH231219   0.877   4.545  11.228 -0.3755 -0.4119  0.2850
 3243TIP3    H131220   0.950   4.606  11.236  0.2559 -1.3840  3.8807
 3243TIP3    H231221   0.896   4.494  11.149  1.2201  1.3125 -0.5052
 3244TIP3   OH231222   1.457   5.895  10.816 -0.1051 -0.2555 -0.6345
 3244TIP3    H131223   1.397   5.821  10.828  0.6264 -0.5524  1.7701
 3244TIP3    H231224   1.537   5.857  10.780 -0.7298 -0.1275 -2.2179
 3245TIP3   OH231225   6.667   3.902  14.323  0.3557 -0.0240 -0.1947
 3245TIP3    H131226   6.721   3.827  14.298  0.7409  0.4514 -0.8096
 3245TIP3    H231227   6.603   3.911  14.252 -0.0597 -0.1227  0.1615
 3246TIP3   OH231228   3.401   1.042   6.730  0.3306 -0.8918  0.3883
 3246TIP3    H131229   3.384   1.101   6.804 -1.4797  0.5562 -1.0803
 3246TIP3    H231230   3.349   0.965   6.750 -1.9419  0.3666 -0.3203
 3247TIP3   OH231231   5.389   5.724  15.222 -0.0077 -0.7227  0.2139
 3247TIP3    H131232   5.382   5.797  15.161 -0.2551 -0.3118  0.7220
 3247TIP3    H231233   5.483   5.703  15.225 -0.1617 -1.8183 -1.5225
 3248TIP3   OH231234   1.026   0.501  13.460 -0.1590  0.5120 -0.0752
 3248TIP3    H131235   1.053   0.590  13.480  0.6565  0.5671 -1.3000
 3248TIP3    H231236   1.089   0.470  13.394 -1.9671 -0.0125 -1.6853
 3249TIP3   OH231237   6.581   4.233  13.507  0.3171 -0.2999 -0.0973
 3249TIP3    H131238   6.538   4.310  13.543 -0.2136  0.1840 -1.6954
 3249TIP3    H231239   6.669   4.263  13.484  0.7686 -0.6930  1.0409
 3250TIP3   OH231240   0.850   5.500  15.122 -0.2386  0.7416 -0.3592
 3250TIP3    H131241   0.825   5.409  15.105 -1.3243  0.5554  1.7360
 3250TIP3    H231242   0.943   5.496  15.144  0.5960  0.6918 -3.4495
 3251TIP3   OH231243   6.374   5.454   3.461 -0.1343 -0.0449 -0.4458
 3251TIP3    H131244   6.461   5.458   3.502 -0.2748  0.0360 -0.1604
 3251TIP3    H231245   6.386   5.392   3.388 -0.5687 -2.4089  1.3779
 3252TIP3   OH231246   4.057   0.362   1.299  0.2982  0.6082 -0.4442
 3252TIP3    H131247   4.091   0.451   1.315  3.3940 -0.2964 -1.3099
 3252TIP3    H231248   4.124   0.304   1.334 -2.2806 -1.5188  1.3687
 3253TIP3   OH231249   2.567   5.878   4.388 -0.0204 -0.1356 -0.2976
 3253TIP3    H131250   2.494   5.830   4.349 -0.6304 -1.3198  2.1222
 3253TIP3    H231251   2.534   5.967   4.400 -0.7282 -0.4126 -0.1474
 3254TIP3   OH231252   1.720   4.818   2.720  0.2124  0.0351  0.0768
 3254TIP3    H131253   1.733   4.882   2.649  0.5758  2.1541  1.9508
 3254TIP3    H231254   1.627   4.796   2.715  0.1513  0.4457 -0.8202
 3255TIP3   OH231255   3.822   1.383   4.342 -0.2328  0.1582  0.2278
 3255TIP3    H131256   3.907   1.351   4.373  0.4337  0.8618 -0.8000
 3255TIP3    H231257   3.842   1.426   4.259 -1.8024 -0.8920 -0.7488
 3256TIP3   OH231258   3.907   3.474   3.936 -0.4741  0.1561  0.3488
 3256TIP3    H131259   3.938   3.488   4.025  1.2262  0.3043 -0.2373
 3256TIP3    H231260   3.872   3.559   3.909  0.2727  0.4902  0.4133
 3257TIP3   OH231261   1.144   1.030   4.982 -0.2485  0.0213 -0.1263
 3257TIP3    H131262   1.144   1.036   4.886  0.2867  0.0968 -0.1238
 3257TIP3    H231263   1.096   1.108   5.011 -1.2044 -0.4691 -0.3531
 3258TIP3   OH231264   2.664   5.141   5.684  0.1864 -0.4736  0.0988
 3258TIP3    H131265   2.745   5.184   5.658  0.9528 -1.6643  0.4291
 3258TIP3    H231266   2.597   5.208   5.675  0.2939 -0.6851 -4.9634
 3259TIP3   OH231267   4.497   3.426   6.191  0.0335 -0.0542  0.2932
 3259TIP3    H131268   4.483   3.437   6.285  0.6355  0.4833  0.3264
 3259TIP3    H231269   4.486   3.513   6.154 -1.6977 -0.5011 -0.3623
 3260TIP3   OH231270   3.784   2.065  11.953  0.6677  0.7154 -0.7801
 3260TIP3    H131271   3.730   1.987  11.964  2.4596 -0.6921 -1.5453
 3260TIP3    H231272   3.748   2.128  12.016  0.7167 -1.5758  1.7298
 3261TIP3   OH231273   3.264   4.566   3.290 -0.0217  0.3743 -0.4208
 3261TIP3    H131274   3.217   4.483   3.297 -0.5772  0.8066  2.2776
 3261TIP3    H231275   3.334   4.560   3.356  2.0529  0.8205 -2.4500
 3262TIP3   OH231276   2.429   6.584  11.320  0.3114  0.4850  0.5286
 3262TIP3    H131277   2.517   6.600  11.355  0.5537  1.4734 -0.4870
 3262TIP3    H231278   2.404   6.668  11.281 -0.7716 -0.0176  0.1285
 3263TIP3   OH231279   0.448   2.854  15.043  0.2526  0.0759 -0.2955
 3263TIP3    H131280   0.453   2.920  15.112 -0.6929  0.6029 -0.7129
 3263TIP3    H231281   0.534   2.813  15.043  1.6296  2.7224 -1.4090
 3264TIP3   OH231282   0.282   5.544   2.207  0.5390 -0.0546 -0.0771
 3264TIP3    H131283   0.316   5.629   2.232 -0.6823 -0.3009  2.7746
 3264TIP3    H231284   0.335   5.481   2.256  0.6085 -0.8790 -1.1701
 3265TIP3   OH231285   0.316   0.181   0.738  0.0544  0.3051 -0.2703
 3265TIP3    H131286   0.235   0.147   0.776 -0.3654  0.8154 -0.6931
 3265TIP3    H231287   0.385   0.123   0.771 -0.6924 -1.3235 -1.4272
 3266TIP3   OH231288   0.753   6.488   5.822 -0.4745  0.1550  0.3389
 3266TIP3    H131289   0.756   6.510   5.730 -2.8479  0.0846  0.1666
 3266TIP3    H231290   0.764   6.571   5.868  0.2919  0.2475 -0.0017
 3267TIP3   OH231291   6.501   3.302  11.959  0.2258  0.7804  0.4031
 3267TIP3    H131292   6.586   3.346  11.960  0.7035 -0.0250 -1.0471
 3267TIP3    H231293   6.515   3.221  12.009  0.2534  0.7453  0.3384
 3268TIP3   OH231294   2.806   4.211   4.164 -0.1603  0.0366  0.2426
 3268TIP3    H131295   2.732   4.210   4.102 -0.1123 -0.3994  0.1876
 3268TIP3    H231296   2.820   4.119   4.185  1.5667 -0.0968 -1.1897
 3269TIP3   OH231297   2.833   5.451  13.756 -0.2344  0.0709 -0.0871
 3269TIP3    H131298   2.812   5.517  13.690  1.8388  0.7210 -0.1645
 3269TIP3    H231299   2.814   5.494  13.840 -1.5869 -0.2782 -0.1946
 3270TIP3   OH231300   2.557   5.883   2.475  0.9965  0.2244  0.2101
 3270TIP3    H131301   2.518   5.864   2.389  1.1244 -2.0232  0.5926
 3270TIP3    H231302   2.484   5.916   2.527  0.7264  0.7850 -0.5105
 3271TIP3   OH231303   1.609   1.810  14.784 -0.2901 -0.4372 -0.1628
 3271TIP3    H131304   1.549   1.777  14.851 -1.8698 -0.2108 -1.3842
 3271TIP3    H231305   1.565   1.791  14.701  2.1846 -1.8855 -1.2606
 3272TIP3   OH231306   6.468   4.066  11.808 -0.5232 -0.4440 -0.1414
 3272TIP3    H131307   6.390   4.093  11.858 -0.2991 -0.2356  0.0978
 3272TIP3    H231308   6.433   4.033  11.725 -0.8783 -0.5052  0.0305
 3273TIP3   OH231309   4.416   0.759   0.367  0.2626  0.3933  0.1263
 3273TIP3    H131310   4.425   0.720   0.454 -2.2888 -2.0518 -0.5644
 3273TIP3    H231311   4.484   0.715   0.315  0.0219 -0.1754  0.2814
 3274TIP3   OH231312   1.135   3.509  13.885 -0.0099 -0.4641 -0.2962
 3274TIP3    H131313   1.156   3.533  13.975 -3.0816  0.6082  0.2453
 3274TIP3    H231314   1.171   3.580  13.832  0.5735 -0.3798  0.1964
 3275TIP3   OH231315   6.352   6.499  14.932  0.4292  0.7155  0.3759
 3275TIP3    H131316   6.369   6.580  14.885  2.6261  0.0026 -0.1757
 3275TIP3    H231317   6.370   6.430  14.868  1.0334 -0.2407  1.5385
 3276TIP3   OH231318   3.886   5.240  17.016 -0.0212 -0.3351 -0.3393
 3276TIP3    H131319   3.922   5.326  17.035 -2.4627  0.6579  0.1726
 3276TIP3    H231320   3.899   5.190  17.096  0.5339 -0.1433 -0.3034
 3277TIP3   OH231321   0.962   1.760   5.544 -0.1167  0.4150  0.3654
 3277TIP3    H131322   1.006   1.792   5.622  1.3064  2.1947 -1.0634
 3277TIP3    H231323   1.031   1.723   5.490 -0.9480 -0.1165 -0.3628
 3278TIP3   OH231324   5.850   5.167   6.310 -0.1276 -0.6087 -0.1772
 3278TIP3    H131325   5.763   5.144   6.342 -0.0502 -1.0905 -0.2975
 3278TIP3    H231326   5.849   5.262   6.302 -0.2166 -0.4878  1.0656
 3279TIP3   OH231327   1.031   5.732  11.630  0.0895 -0.1786 -0.3521
 3279TIP3    H131328   1.116   5.769  11.656  0.6430 -1.3706 -0.3802
 3279TIP3    H231329   1.013   5.666  11.697  0.2527 -1.4498 -1.5164
 3280TIP3   OH231330   2.639   5.480  11.714 -0.5186 -0.3937 -0.1383
 3280TIP3    H131331   2.659   5.386  11.722  0.9930  0.0743  3.6954
 3280TIP3    H231332   2.725   5.522  11.707 -1.0748  0.7960 -0.0539
 3281TIP3   OH231333   6.251   5.975  13.087  0.2718 -0.4538  0.3057
 3281TIP3    H131334   6.272   6.025  13.165 -0.7558 -0.6123  0.6870
 3281TIP3    H231335   6.322   5.910  13.080  1.5060  0.8797 -0.0857
 3282TIP3   OH231336   5.220   0.127   5.836  0.4197 -0.2341  0.9057
 3282TIP3    H131337   5.238   0.097   5.924 -0.7421  2.0080  1.9997
 3282TIP3    H231338   5.302   0.165   5.806  1.5990 -3.2650 -0.1037
 3283TIP3   OH231339   5.432   2.295   6.642  0.2299 -0.2043  0.4883
 3283TIP3    H131340   5.483   2.255   6.572 -2.3748  1.9504 -2.9388
 3283TIP3    H231341   5.488   2.366   6.674 -0.1318  1.7039 -2.7209
 3284TIP3   OH231342   6.091   6.006  15.904  0.4857  0.1912  0.6240
 3284TIP3    H131343   6.113   6.011  15.811  1.0240 -0.4325  0.7104
 3284TIP3    H231344   6.001   6.037  15.908  0.9375  1.6504  0.1025
 3285TIP3   OH231345   4.713   5.963   1.744 -0.7127 -0.0105 -0.8578
 3285TIP3    H131346   4.711   5.875   1.780 -0.1361  0.3130  0.0062
 3285TIP3    H231347   4.799   5.970   1.702  0.8003  1.2574  2.1358
 3286TIP3   OH231348   2.707   1.502  12.092 -0.3880 -0.8514 -0.0994
 3286TIP3    H131349   2.670   1.447  12.161  0.2211 -1.6489 -0.3954
 3286TIP3    H231350   2.729   1.441  12.022 -2.5232  0.0949 -1.7308
 3287TIP3   OH231351   0.571   1.227   6.496 -0.0817  0.9224 -0.3857
 3287TIP3    H131352   0.539   1.168   6.565 -1.6232  0.4087 -1.4905
 3287TIP3    H231353   0.600   1.168   6.427 -0.1345  1.4514 -0.8620
 3288TIP3   OH231354   1.842   4.516   3.786  0.2268 -0.2893 -0.0357
 3288TIP3    H131355   1.877   4.428   3.775  0.3862 -0.2466  0.1216
 3288TIP3    H231356   1.855   4.536   3.879  0.7270  0.1197 -0.1822
 3289TIP3   OH231357   3.218   3.577  11.502  0.2242 -0.2251  0.5826
 3289TIP3    H131358   3.302   3.617  11.478  0.7813 -1.7551 -0.2311
 3289TIP3    H231359   3.161   3.595  11.428 -0.0531  0.5084  0.9750
 3290TIP3   OH231360   2.878   2.067   4.246 -0.1133 -0.1993 -0.0906
 3290TIP3    H131361   2.903   2.021   4.326  0.1661  0.1304  0.0138
 3290TIP3    H231362   2.961   2.085   4.201 -0.2474 -0.1340 -0.3169
 3291TIP3   OH231363   0.675   5.547  16.108  0.4011  0.3285  0.0140
 3291TIP3    H131364   0.697   5.501  16.189  0.1469 -1.7199 -1.0310
 3291TIP3    H231365   0.580   5.543  16.103  0.5089 -1.5298 -1.4372
 3292TIP3   OH231366   3.063   2.367   2.331  0.2376  0.2707  0.3122
 3292TIP3    H131367   3.079   2.337   2.420  1.9010  1.4607  0.4515
 3292TIP3    H231368   3.095   2.296   2.275  0.2178 -0.0015  0.6449
 3293TIP3   OH231369   2.363   5.032   2.129  0.2639 -0.0976 -0.3717
 3293TIP3    H131370   2.396   4.951   2.168  1.3915  0.0634 -0.9346
 3293TIP3    H231371   2.438   5.068   2.082 -0.2815  1.1601 -0.3301
 3294TIP3   OH231372   4.585   3.944  10.789 -0.1251  0.1960  0.3249
 3294TIP3    H131373   4.667   3.954  10.740  0.6168  1.3962  1.7332
 3294TIP3    H231374   4.542   3.868  10.748  1.7614 -0.5766 -0.3492
 3295TIP3   OH231375   1.606   6.587  13.663  0.4886  0.4283  0.1805
 3295TIP3    H131376   1.545   6.661  13.668  0.6405  0.4653  1.7774
 3295TIP3    H231377   1.675   6.608  13.725  1.5626 -0.1627 -0.7677
 3296TIP3   OH231378   6.720   2.087   2.155 -0.0661 -0.3139 -0.5678
 3296TIP3    H131379   6.721   2.177   2.189 -0.5871 -1.1817  1.9839
 3296TIP3    H231380   6.812   2.065   2.144  0.2010 -0.2607  1.2240
 3297TIP3   OH231381   4.764   1.942  15.131  0.6262 -0.1093  0.6843
 3297TIP3    H131382   4.679   1.946  15.087  0.9207 -1.2680 -0.0448
 3297TIP3    H231383   4.822   1.998  15.078  0.4051  0.4419  1.0129
 3298TIP3   OH231384   5.192   6.395   0.104  0.5418 -0.4227  0.5204
 3298TIP3    H131385   5.182   6.401   0.009  1.1726  1.6000  0.5339
 3298TIP3    H231386   5.284   6.372   0.117  0.7624  0.4697  0.6273
 3299TIP3   OH231387   1.175   0.862   1.111 -0.7662 -0.2526  0.3549
 3299TIP3    H131388   1.119   0.802   1.160 -0.0837 -0.3295  1.0532
 3299TIP3    H231389   1.141   0.949   1.132 -0.8354 -0.3171  0.5099
 3300TIP3   OH231390   4.172   1.014  11.897 -0.3171 -0.3884  0.3875
 3300TIP3    H131391   4.245   1.009  11.959  0.3130  2.3631  0.0047
 3300TIP3    H231392   4.211   0.993  11.812 -0.4670 -0.9915  0.4623
 3301TIP3   OH231393   2.072   3.769  17.194 -0.1638 -0.0501 -0.2881
 3301TIP3    H131394   2.141   3.708  17.169 -0.4713 -0.5598  0.0861
 3301TIP3    H231395   2.073   3.836  17.126  1.7951  0.8573  0.5282
 3302TIP3   OH231396   3.011   5.440   4.314 -0.0597  0.5592  0.7824
 3302TIP3    H131397   3.070   5.505   4.277 -0.3704  1.0866  1.2053
 3302TIP3    H231398   3.046   5.424   4.402  1.1738 -1.2942  0.0273
 3303TIP3   OH231399   4.433   1.982   2.995 -0.2718  0.0410 -0.5021
 3303TIP3    H131400   4.420   1.931   2.914 -1.4422 -0.1207 -0.2317
 3303TIP3    H231401   4.474   1.920   3.055 -0.6291 -0.2451 -0.5465
 3304TIP3   OH231402   5.085   3.525   1.209  0.0877 -0.1091  0.0923
 3304TIP3    H131403   5.128   3.463   1.150 -2.2298 -1.5739 -0.2310
 3304TIP3    H231404   5.146   3.536   1.282  1.8658 -0.3655 -1.3088
 3305TIP3   OH231405   5.431   5.012   4.266  0.7307 -0.3234  0.1449
 3305TIP3    H131406   5.464   4.930   4.304  1.8404 -0.3275 -0.7635
 3305TIP3    H231407   5.459   5.009   4.174 -0.1143  0.6104 -0.1652
 3306TIP3   OH231408   1.013   6.045   2.827  0.2617  0.3283 -0.7294
 3306TIP3    H131409   0.951   6.116   2.811  0.5166  1.0421  1.2233
 3306TIP3    H231410   0.989   6.009   2.912 -0.0494 -2.1878 -1.7765
 3307TIP3   OH231411   3.685   1.509   2.832 -0.1650  0.5422 -0.8935
 3307TIP3    H131412   3.707   1.456   2.756 -1.6281  1.5194 -2.0513
 3307TIP3    H231413   3.682   1.599   2.799 -1.5929  0.8996  0.1116
 3308TIP3   OH231414   5.607   4.164   2.025  0.3532  0.4334  0.0759
 3308TIP3    H131415   5.664   4.088   2.032  1.6436  1.2585 -0.9884
 3308TIP3    H231416   5.552   4.146   1.949  1.0678  0.7898 -0.5442
 3309TIP3   OH231417   1.946   4.542   0.443 -0.0605  0.1330 -0.0484
 3309TIP3    H131418   1.920   4.587   0.524  0.9036  0.9011 -0.1428
 3309TIP3    H231419   2.040   4.559   0.436 -0.1473  0.1586 -1.3766
 3310TIP3   OH231420   0.492   4.805  15.378  0.0669  0.3145 -0.3194
 3310TIP3    H131421   0.443   4.739  15.329 -0.6917  1.4456 -1.1324
 3310TIP3    H231422   0.425   4.853  15.427  0.5025  1.0210 -0.4065
 3311TIP3   OH231423   2.454   4.420   5.001 -0.0776  0.0554  0.0275
 3311TIP3    H131424   2.445   4.331   5.034 -0.5559 -0.3244 -1.0647
 3311TIP3    H231425   2.547   4.439   5.007 -0.0615 -0.2685  0.8883
 3312TIP3   OH231426   4.657   3.159  14.810  0.0051 -0.2842  0.3664
 3312TIP3    H131427   4.562   3.150  14.814  0.0425 -1.3328 -0.6324
 3312TIP3    H231428   4.677   3.224  14.877 -1.4645  0.3841  0.2064
 3313TIP3   OH231429   2.307   4.859   3.963  0.1776  0.6499 -0.0738
 3313TIP3    H131430   2.273   4.871   4.051  0.3440 -1.2881  0.3054
 3313TIP3    H231431   2.233   4.826   3.913  0.4616  0.2728 -0.2558
 3314TIP3   OH231432   4.370   5.604  14.127 -0.3366  0.3873 -0.1892
 3314TIP3    H131433   4.302   5.671  14.114 -0.0328  0.5684 -0.9015
 3314TIP3    H231434   4.444   5.653  14.163 -0.2571  0.3647 -0.3214
 3315TIP3   OH231435   0.683   6.255   3.425  0.2197 -0.0405 -0.4253
 3315TIP3    H131436   0.771   6.230   3.452 -0.0725 -2.4661 -1.4618
 3315TIP3    H231437   0.692   6.284   3.334 -0.0506 -0.3651 -0.5594
 3316TIP3   OH231438   2.534   4.598  13.715  0.5305 -0.3431 -0.1908
 3316TIP3    H131439   2.587   4.627  13.641 -0.8173 -1.2337 -1.5481
 3316TIP3    H231440   2.584   4.527  13.754  0.2101 -1.4214 -1.6783
 3317TIP3   OH231441   5.030   6.583   0.797 -0.1116 -0.2478 -0.3340
 3317TIP3    H131442   5.045   6.517   0.865 -0.7489  1.7258  1.8443
 3317TIP3    H231443   5.112   6.631   0.792  0.2594 -0.9732 -1.7226
 3318TIP3   OH231444   5.195   1.566   1.371  0.3105  0.5005  0.1956
 3318TIP3    H131445   5.200   1.579   1.466  0.9125  1.8673 -0.0073
 3318TIP3    H231446   5.226   1.476   1.358  2.0498  0.9147  1.1541
 3319TIP3   OH231447   0.429   0.084   2.835 -0.3177 -0.0082  0.5070
 3319TIP3    H131448   0.484   0.161   2.854  0.9486 -0.3765 -1.3573
 3319TIP3    H231449   0.357   0.119   2.783  0.4052 -0.0624 -0.5803
 3320TIP3   OH231450   6.681   0.815   1.849  0.3704  0.1585  0.1488
 3320TIP3    H131451   6.725   0.732   1.834 -1.0390 -0.4582 -0.8167
 3320TIP3    H231452   6.624   0.798   1.924 -0.8017 -0.1405 -0.7799
 3321TIP3   OH231453   3.285   3.022  13.240 -0.6385  0.0477  0.9250
 3321TIP3    H131454   3.232   3.072  13.177 -1.4853 -1.5872  0.2926
 3321TIP3    H231455   3.221   2.991  13.305 -0.4139 -1.4851  0.4546
 3322TIP3   OH231456   5.658   2.398   6.029  0.1752  0.4536  0.8551
 3322TIP3    H131457   5.711   2.465   5.985 -0.8935  1.4749  1.0521
 3322TIP3    H231458   5.569   2.412   5.994 -0.1704 -0.4902  1.3379
 3323TIP3   OH231459   3.396   6.005   0.533  0.5501  0.8117 -0.2245
 3323TIP3    H131460   3.405   6.034   0.624  2.9892 -0.9267  0.1868
 3323TIP3    H231461   3.306   6.030   0.509  0.3052  2.6159  2.1449
 3324TIP3   OH231462   2.721   3.501   5.194 -0.0854  0.3620 -0.2061
 3324TIP3    H131463   2.749   3.547   5.274  0.9325 -0.8547  0.1685
 3324TIP3    H231464   2.625   3.502   5.199 -0.1498  2.7632 -0.4349
 3325TIP3   OH231465   0.939   1.913  14.624  0.0538  0.3684 -0.4497
 3325TIP3    H131466   0.886   1.868  14.559  1.0304  0.4270 -1.3099
 3325TIP3    H231467   0.990   1.844  14.667 -0.0732  0.4091 -0.2304
 3326TIP3   OH231468   5.264   4.723  15.864  0.0565 -0.0119  0.3260
 3326TIP3    H131469   5.330   4.655  15.875  1.8522  1.5198 -0.4257
 3326TIP3    H231470   5.269   4.745  15.771 -1.4750  0.2183  0.2748
 3327TIP3   OH231471   3.265   6.440   2.951 -0.5677 -0.6229  0.0793
 3327TIP3    H131472   3.174   6.470   2.946 -0.2299  0.3331 -0.6711
 3327TIP3    H231473   3.314   6.506   2.903  0.2852 -2.1311 -1.2169
 3328TIP3   OH231474   4.185   1.894  14.175 -0.2777 -0.1265  0.4351
 3328TIP3    H131475   4.136   1.813  14.194  0.5189 -0.4467  1.1692
 3328TIP3    H231476   4.197   1.935  14.260  1.0110 -0.2207  0.3158
 3329TIP3   OH231477   2.676   5.579  15.348 -0.2726  0.1671 -0.3309
 3329TIP3    H131478   2.601   5.596  15.405  0.9712  0.0716  1.4401
 3329TIP3    H231479   2.715   5.499  15.384  0.7681  0.3089 -1.1106
 3330TIP3   OH231480   6.490   6.611  11.224  0.2394 -0.0810  0.1776
 3330TIP3    H131481   6.425   6.608  11.154  0.2722  0.5714  0.1127
 3330TIP3    H231482   6.570   6.576  11.184 -0.4867 -2.5851  0.7540
 3331TIP3   OH231483   2.959   6.286   0.509  0.3953  0.1776  0.0890
 3331TIP3    H131484   2.939   6.324   0.595  1.1813 -0.0455  0.3779
 3331TIP3    H231485   3.028   6.342   0.473  1.2778 -0.7139  0.3470
 3332TIP3   OH231486   6.541   2.619  16.576  0.3240 -0.2310 -0.0757
 3332TIP3    H131487   6.598   2.695  16.591  1.0103 -0.1914 -2.5366
 3332TIP3    H231488   6.491   2.642  16.498 -0.0277 -2.0056 -0.3982
 3333TIP3   OH231489   2.485   0.397   0.566 -0.0717  0.7358  0.6186
 3333TIP3    H131490   2.516   0.307   0.573  0.6798  0.9181 -0.1041
 3333TIP3    H231491   2.419   0.406   0.634 -2.7784 -1.4033 -1.4971
 3334TIP3   OH231492   0.090   0.176   3.052  0.1501 -0.2688 -0.2166
 3334TIP3    H131493   0.036   0.128   2.990 -1.3048  2.3975 -1.1899
 3334TIP3    H231494   0.150   0.227   2.998  2.4788 -1.8041  0.8056
 3335TIP3   OH231495   5.098   5.144   0.413 -0.0523 -0.1130 -0.6843
 3335TIP3    H131496   5.108   5.156   0.318  0.7252 -0.3096 -0.6329
 3335TIP3    H231497   5.169   5.084   0.437 -0.8733 -0.9002 -0.1473
 3336TIP3   OH231498   2.627   4.684   2.730  0.1302 -0.2084 -0.9286
 3336TIP3    H131499   2.604   4.619   2.797  0.4308  0.7367  0.1190
 3336TIP3    H231500   2.700   4.733   2.768 -0.2493  0.9123 -1.5936
 3337TIP3   OH231501   4.812   2.569  12.929 -0.0525  0.1397 -0.9087
 3337TIP3    H131502   4.852   2.518  12.858  0.5438 -1.4813  0.5254
 3337TIP3    H231503   4.736   2.518  12.955 -1.3860  1.6863 -1.5774
 3338TIP3   OH231504   3.852   2.590  12.608  0.7989 -0.1109  0.2303
 3338TIP3    H131505   3.888   2.672  12.572 -0.0694  0.3786  0.4605
 3338TIP3    H231506   3.795   2.557  12.539 -1.7263  1.3818  1.4476
 3339TIP3   OH231507   2.805   1.164   5.574  0.2857  0.5321  0.4733
 3339TIP3    H131508   2.796   1.255   5.543  2.9849  1.3341  1.7264
 3339TIP3    H231509   2.726   1.149   5.627 -0.4059  1.9902 -0.0831
 3340TIP3   OH231510   2.705   3.585  14.342  0.5184 -0.0620 -0.0699
 3340TIP3    H131511   2.697   3.661  14.285 -0.3958 -0.3091 -0.2969
 3340TIP3    H231512   2.799   3.569  14.348  0.6414 -0.1128 -1.6281
 3341TIP3   OH231513   2.035   2.742  14.044  0.1361  0.2048 -0.1144
 3341TIP3    H131514   2.044   2.758  14.138  1.9167 -0.3454 -0.1615
 3341TIP3    H231515   2.018   2.828  14.007 -0.8730  0.3879  0.7270
 3342TIP3   OH231516   3.161   5.252  15.229  0.3812 -0.2386 -0.3916
 3342TIP3    H131517   3.100   5.314  15.191  0.1481 -0.9496 -1.2079
 3342TIP3    H231518   3.109   5.203  15.293  0.4493  0.0850 -0.0852
 3343TIP3   OH231519   5.535   1.221  11.669  0.1249 -0.3750 -0.0918
 3343TIP3    H131520   5.494   1.135  11.678 -1.6904  0.3836 -0.6638
 3343TIP3    H231521   5.462   1.282  11.665  1.3759  1.2182  0.3214
 3344TIP3   OH231522   2.590   0.203  12.046  0.0574 -0.3140  0.3129
 3344TIP3    H131523   2.674   0.251  12.045  0.5496 -1.1585  0.4752
 3344TIP3    H231524   2.535   0.254  12.105 -0.7256  2.1715 -2.3190
 3345TIP3   OH231525   2.816   1.100  15.852 -0.0241 -0.7871  0.7733
 3345TIP3    H131526   2.858   1.090  15.766  0.9861  1.7145  0.8881
 3345TIP3    H231527   2.732   1.055  15.843  0.8568 -2.2381 -0.8714
 3346TIP3   OH231528   4.192   4.140   5.386 -0.4692 -0.0873  0.2338
 3346TIP3    H131529   4.110   4.091   5.395 -1.0173  0.9862  1.2938
 3346TIP3    H231530   4.182   4.186   5.302 -0.1528 -1.3481 -0.5324
 3347TIP3   OH231531   6.293   2.070   4.457 -0.5775 -1.1270  0.6689
 3347TIP3    H131532   6.200   2.048   4.461 -0.9170 -0.0224 -0.5651
 3347TIP3    H231533   6.328   2.038   4.540 -2.4084  0.0019  1.9508
 3348TIP3   OH231534   6.621   5.818   5.811 -0.2058  0.2494 -0.2916
 3348TIP3    H131535   6.619   5.831   5.716 -1.4431 -1.8057 -0.6020
 3348TIP3    H231536   6.531   5.794   5.834  0.9135 -3.9235  0.5944
 3349TIP3   OH231537   4.670   0.065  16.366 -0.3016  0.0485  0.8158
 3349TIP3    H131538   4.723   0.110  16.432  0.3482 -0.8525  0.9274
 3349TIP3    H231539   4.692   0.109  16.284 -0.7508  0.8598  1.1155
 3350TIP3   OH231540   2.925   2.714   2.099 -0.0603 -0.3804  0.5379
 3350TIP3    H131541   2.866   2.763   2.158  0.2223  0.8701 -0.1789
 3350TIP3    H231542   2.868   2.652   2.054 -0.7115  0.3144  0.3874
 3351TIP3   OH231543   2.605   0.489   4.493 -0.6133 -0.6329  0.0353
 3351TIP3    H131544   2.670   0.501   4.423 -0.2196 -1.2271  0.2862
 3351TIP3    H231545   2.629   0.552   4.560 -0.4956 -0.6226 -0.0171
 3352TIP3   OH231546   4.738   5.838  17.168 -0.0830 -0.3927 -0.1028
 3352TIP3    H131547   4.807   5.902  17.185  1.3771 -2.2436  1.4451
 3352TIP3    H231548   4.718   5.847  17.075  1.1535  1.2381 -0.2364
 3353TIP3   OH231549   4.472   5.648  11.110 -0.1897  0.7576  0.4690
 3353TIP3    H131550   4.540   5.660  11.044 -1.3929  1.8317 -0.6368
 3353TIP3    H231551   4.424   5.570  11.084 -0.2230  0.7789  0.4656
 3354TIP3   OH231552   1.816   0.768  12.797 -0.2996  0.1139  0.0996
 3354TIP3    H131553   1.808   0.841  12.736 -1.2613  0.8843  1.0926
 3354TIP3    H231554   1.759   0.700  12.762  1.0698 -0.4346 -1.1597
 3355TIP3   OH231555   0.726   3.103  16.135 -0.3566  0.2237 -0.1788
 3355TIP3    H131556   0.678   3.132  16.058  0.6166  0.7036 -0.6201
 3355TIP3    H231557   0.740   3.009  16.120 -0.3741  0.2667 -0.4712
 3356TIP3   OH231558   5.422   2.681  11.580 -0.3793  0.1965 -0.5392
 3356TIP3    H131559   5.457   2.606  11.628 -0.9399  0.5047  0.3674
 3356TIP3    H231560   5.495   2.743  11.577  0.4677 -0.8034 -2.2982
 3357TIP3   OH231561   2.711   5.070   2.016 -0.0599 -0.1389  0.6529
 3357TIP3    H131562   2.779   5.003   2.013 -0.1965 -0.2921  0.9882
 3357TIP3    H231563   2.735   5.126   2.089 -0.0720  0.0453  0.5168
 3358TIP3   OH231564   5.017   2.046  15.881  0.7155 -0.4721 -0.7128
 3358TIP3    H131565   5.046   2.120  15.828  0.7000 -1.1732 -1.7067
 3358TIP3    H231566   5.034   2.074  15.971  1.2282  0.5155 -1.1002
 3359TIP3   OH231567   2.350   5.000   4.598  0.6366  0.5152  0.3478
 3359TIP3    H131568   2.357   5.039   4.685  1.2092  0.0865  0.4954
 3359TIP3    H231569   2.302   4.919   4.612  0.5764  0.5325  0.2384
 3360TIP3   OH231570   6.245   4.819   1.730 -0.3142  0.3887 -0.4591
 3360TIP3    H131571   6.157   4.828   1.693 -0.7939  1.0795  0.7912
 3360TIP3    H231572   6.241   4.865   1.813  0.9655 -0.4217  0.0847
 3361TIP3   OH231573   3.382   3.773   5.714 -0.8992  0.3681  0.1980
 3361TIP3    H131574   3.305   3.825   5.735 -1.5241  0.2470 -1.6069
 3361TIP3    H231575   3.399   3.792   5.622 -0.2034 -1.4117 -0.0817
 3362TIP3   OH231576   6.598   3.265   3.442 -0.2216  0.1604  0.0954
 3362TIP3    H131577   6.651   3.299   3.370 -0.3208  0.3918  0.1304
 3362TIP3    H231578   6.639   3.301   3.521  1.1599 -1.7663  0.3151
 3363TIP3   OH231579   5.030   5.362   3.191  0.6163 -0.1408 -0.0242
 3363TIP3    H131580   4.969   5.302   3.148  1.2816  0.4875 -1.9309
 3363TIP3    H231581   4.977   5.407   3.257 -0.6987 -0.4581 -0.8365
 3364TIP3   OH231582   0.452   3.872  16.492  0.4119  0.6553  0.2987
 3364TIP3    H131583   0.371   3.834  16.527 -0.3168  0.8431 -1.1083
 3364TIP3    H231584   0.458   3.957  16.535 -0.3171  0.7697  0.1961
 3365TIP3   OH231585   1.090   5.374  14.800  0.3651 -0.0747  0.1612
 3365TIP3    H131586   1.154   5.345  14.736  0.5002  0.9495 -0.1937
 3365TIP3    H231587   1.086   5.469  14.788 -1.7007 -0.1740 -0.2835
 3366TIP3   OH231588   2.692   6.097   6.107 -0.1676 -0.0589 -0.4765
 3366TIP3    H131589   2.701   6.114   6.201  0.1134 -0.7053 -0.3785
 3366TIP3    H231590   2.779   6.118   6.071 -0.1193 -0.3119 -0.5084
 3367TIP3   OH231591   4.049   2.982  12.764  0.0788  0.7046  0.4718
 3367TIP3    H131592   4.051   2.929  12.843  2.1047 -0.9995 -0.6243
 3367TIP3    H231593   3.973   2.951  12.715  0.7669 -0.6392  0.2284
 3368TIP3   OH231594   6.163   5.602   4.184  0.4290  0.3622 -0.1201
 3368TIP3    H131595   6.126   5.555   4.109 -0.5171 -1.1963  1.2345
 3368TIP3    H231596   6.170   5.693   4.155 -1.1504  0.0518 -1.6463
 3369TIP3   OH231597   5.248   2.903  10.731  0.0901 -0.1368 -0.4522
 3369TIP3    H131598   5.245   2.979  10.673  0.5998  0.9715  0.9396
 3369TIP3    H231599   5.337   2.868  10.719 -0.1226 -0.4930 -1.0421
 3370TIP3   OH231600   2.791   3.864  13.440 -0.2046  0.2841  0.0094
 3370TIP3    H131601   2.844   3.942  13.455  0.3118 -0.3461  1.7029
 3370TIP3    H231602   2.830   3.797  13.496 -1.1937 -0.9435 -0.7176
 3371TIP3   OH231603   3.390   1.685  13.379  0.6871  0.3525  0.5312
 3371TIP3    H131604   3.411   1.602  13.422  1.3014 -0.4065 -1.1532
 3371TIP3    H231605   3.389   1.664  13.286 -0.7575  1.9028  0.1539
 3372TIP3   OH231606   2.030   4.779   0.141  0.4005 -0.3432  0.1271
 3372TIP3    H131607   2.010   4.811   0.228 -0.0704 -0.7168  0.1584
 3372TIP3    H231608   2.086   4.846   0.103 -0.5847  0.5315  0.1865
 3373TIP3   OH231609   3.896   4.688  16.781  0.1596  0.0480  0.8461
 3373TIP3    H131610   3.943   4.609  16.753  0.7676  0.3901  0.8752
 3373TIP3    H231611   3.937   4.712  16.864 -0.0771  0.3477  0.8778
 3374TIP3   OH231612   2.007   0.639  15.452 -0.7115  0.3503  0.6651
 3374TIP3    H131613   2.005   0.679  15.365 -0.1710  0.6475  0.7827
 3374TIP3    H231614   1.974   0.707  15.510  0.1181  0.6087  0.8524
 3375TIP3   OH231615   5.332   3.750   0.627 -0.6779 -0.0912 -0.1448
 3375TIP3    H131616   5.415   3.794   0.643 -0.6307 -0.1465 -0.2375
 3375TIP3    H231617   5.266   3.807   0.667 -0.4970 -0.5748  0.9027
 3376TIP3   OH231618   5.130   4.374  16.264 -0.0937 -0.5895  0.1084
 3376TIP3    H131619   5.138   4.318  16.341 -2.9945 -2.8700 -1.0690
 3376TIP3    H231620   5.202   4.348  16.207  0.4991 -0.7897  0.9340
 3377TIP3   OH231621   2.174   4.147  12.268 -0.1706  0.3035  0.3467
 3377TIP3    H131622   2.256   4.147  12.218 -0.2351 -0.3070  0.2329
 3377TIP3    H231623   2.145   4.239  12.267  0.2735  0.4443 -0.0005
 3378TIP3   OH231624   2.433   0.827   3.337 -0.0249 -0.0921  0.0412
 3378TIP3    H131625   2.455   0.735   3.322 -0.0486 -0.3622  1.5533
 3378TIP3    H231626   2.338   0.831   3.330 -0.1502 -0.4663  1.3128
 3379TIP3   OH231627   4.478   2.591  14.251  0.2802 -0.5336  0.5248
 3379TIP3    H131628   4.446   2.650  14.319  2.7614 -0.6917  1.9502
 3379TIP3    H231629   4.408   2.527  14.240 -0.7425  0.2875  1.9648
 3380TIP3   OH231630   0.678   6.692  17.287 -0.0487 -0.1033 -0.0214
 3380TIP3    H131631   0.596   6.666  17.329 -0.6921  0.4434 -0.9019
 3380TIP3    H231632   0.683   6.637  17.209  0.8121 -0.6614  0.4152
 3381TIP3   OH231633   1.404   5.046  12.131 -0.2376  0.2655 -0.1743
 3381TIP3    H131634   1.330   5.104  12.114 -0.5669  0.8027  2.5399
 3381TIP3    H231635   1.431   5.015  12.045 -3.3251  0.3954 -1.3128
 3382TIP3   OH231636   0.363   3.737  13.464 -0.1434  0.0058  0.0377
 3382TIP3    H131637   0.438   3.745  13.523 -0.1013 -3.1299  0.5862
 3382TIP3    H231638   0.401   3.745  13.376  0.5485  0.1788  0.3487
 3383TIP3   OH231639   0.551   1.768   6.001 -0.5165 -0.1313  0.3376
 3383TIP3    H131640   0.630   1.773   6.056  0.2967 -0.5159 -0.7515
 3383TIP3    H231641   0.540   1.856   5.967  0.7464 -0.5195 -1.2133
 3384TIP3   OH231642   4.349   0.415  11.636  0.3219 -0.4573  0.2264
 3384TIP3    H131643   4.349   0.470  11.714  0.1069 -1.9126  1.2990
 3384TIP3    H231644   4.385   0.471  11.567  0.8087  0.7727  1.4272
 3385TIP3   OH231645   1.748   6.667   6.214  0.0978 -0.3055  0.1758
 3385TIP3    H131646   1.777   6.742   6.267 -0.6322 -0.7957  1.3362
 3385TIP3    H231647   1.677   6.628   6.266 -0.6911 -0.7948 -1.2121
 3386TIP3   OH231648   3.856   0.015  13.526  0.2063  0.2006  0.1836
 3386TIP3    H131649   3.761   0.003  13.524  0.2742 -0.3152 -1.6933
 3386TIP3    H231650   3.885  -0.045  13.595 -0.6811 -1.0160 -0.4448
 3387TIP3   OH231651   4.786   5.170  17.513 -0.0073 -0.4389  0.0595
 3387TIP3    H131652   4.691   5.155  17.523  0.1084 -2.4103 -1.1656
 3387TIP3    H231653   4.818   5.089  17.473  2.3265 -0.0615  1.0460
 3388TIP3   OH231654   3.931   5.955   6.259  0.1337  0.8849 -0.4590
 3388TIP3    H131655   3.836   5.943   6.261  0.3103 -0.8685 -0.7295
 3388TIP3    H231656   3.964   5.892   6.322  1.2303 -0.0562 -1.9034
 3389TIP3   OH231657   5.431   3.496   3.963  0.0457 -0.4998 -0.2193
 3389TIP3    H131658   5.509   3.452   3.996 -0.2483 -0.5428  0.4195
 3389TIP3    H231659   5.360   3.433   3.976 -0.4479  0.2870  1.0626
 3390TIP3   OH231660   5.935   5.912   2.689 -0.2479 -0.3832 -0.0173
 3390TIP3    H131661   5.855   5.866   2.665 -1.1952  0.8951  0.5304
 3390TIP3    H231662   5.980   5.928   2.606 -1.3559  0.2646 -0.5182
 3391TIP3   OH231663   2.260   0.280  13.646  0.5818 -0.6804  0.1562
 3391TIP3    H131664   2.249   0.375  13.644 -0.0452 -0.7324  0.7561
 3391TIP3    H231665   2.287   0.257  13.557  2.8051  0.2992  0.5099
 3392TIP3   OH231666   5.615   3.352  16.777  0.4146 -0.8328 -0.4198
 3392TIP3    H131667   5.663   3.332  16.858  0.1229 -0.3288 -0.1202
 3392TIP3    H231668   5.593   3.444  16.785 -0.9577 -1.1418 -0.3681
 3393TIP3   OH231669   3.564   2.411  15.783  0.5009 -0.2100 -0.0580
 3393TIP3    H131670   3.547   2.480  15.848 -0.3899 -1.1336  0.7200
 3393TIP3    H231671   3.514   2.437  15.706 -1.0345 -0.7032  0.7402
 3394TIP3   OH231672   4.345   0.812   3.574  0.1900 -0.3796 -0.6678
 3394TIP3    H131673   4.372   0.900   3.548  2.0214 -0.7913 -0.2794
 3394TIP3    H231674   4.427   0.767   3.595 -0.9055 -1.2462  2.1442
 3395TIP3   OH231675   1.252   4.354  11.155 -0.4977  0.3035  0.1817
 3395TIP3    H131676   1.248   4.417  11.084  2.2814  0.8354  0.3937
 3395TIP3    H231677   1.251   4.407  11.235  1.2728  0.1065  0.3744
 3396TIP3   OH231678   5.707   3.523   0.017  0.0666  0.2797  0.1449
 3396TIP3    H131679   5.687   3.598  -0.040 -3.9033 -0.1077  0.7172
 3396TIP3    H231680   5.729   3.452  -0.044 -1.0145  0.6984 -0.7732
 3397TIP3   OH231681   1.117   5.744   1.724 -0.0798  0.5213 -1.1511
 3397TIP3    H131682   1.173   5.689   1.669  2.0284 -0.0180  1.3283
 3397TIP3    H231683   1.178   5.802   1.770 -1.5879  0.4544  1.1385
 3398TIP3   OH231684   6.041   2.487   3.411  0.1262 -0.6258  0.1048
 3398TIP3    H131685   6.101   2.418   3.439 -1.4044 -1.8522  0.4860
 3398TIP3    H231686   5.957   2.443   3.398 -0.6393  0.9730 -0.7228
 3399TIP3   OH231687   4.510   5.626   2.972 -0.6636  0.0654  0.1038
 3399TIP3    H131688   4.513   5.586   2.885 -1.3437 -0.2538  0.2183
 3399TIP3    H231689   4.417   5.635   2.991 -0.5285 -0.5522  1.1087
 3400TIP3   OH231690   4.807   1.254   2.474 -0.1375  0.1589 -0.6146
 3400TIP3    H131691   4.886   1.224   2.520  1.2941  3.0851 -0.9362
 3400TIP3    H231692   4.745   1.273   2.544  0.3226  0.1469 -0.1929
 3401TIP3   OH231693   0.348   3.460   1.148  0.1653  0.0930  0.5630
 3401TIP3    H131694   0.393   3.450   1.232  1.5784 -0.4228 -0.2331
 3401TIP3    H231695   0.321   3.552   1.146 -0.4994 -0.0514  1.8679
 3402TIP3   OH231696   0.297   1.964  16.241  0.4978  0.1320 -0.6456
 3402TIP3    H131697   0.326   1.970  16.332  0.1881 -0.3469 -0.5112
 3402TIP3    H231698   0.272   2.053  16.218  1.1666  0.3748 -0.4626
 3403TIP3   OH231699   1.389   5.621   3.691 -0.4373 -0.6802 -0.6854
 3403TIP3    H131700   1.378   5.716   3.688  0.3301 -0.4210  2.0720
 3403TIP3    H231701   1.481   5.607   3.667  0.3275 -0.3833  1.8524
 3404TIP3   OH231702   1.840   0.977   6.721  0.1702  0.2293  0.0377
 3404TIP3    H131703   1.795   1.059   6.740 -0.6981 -0.2600  0.1547
 3404TIP3    H231704   1.790   0.910   6.769  1.5350 -0.2335  0.8995
 3405TIP3   OH231705   1.871   1.739  15.863 -0.0714  0.1400 -0.7148
 3405TIP3    H131706   1.885   1.833  15.873  2.0775 -0.2080  0.0758
 3405TIP3    H231707   1.847   1.708  15.951 -0.9863 -0.0409 -1.0158
 3406TIP3   OH231708   2.907   2.016  14.829  0.4026 -0.1440  0.1657
 3406TIP3    H131709   2.840   1.947  14.826 -0.4605  0.6762  0.1091
 3406TIP3    H231710   2.990   1.968  14.835 -0.1935 -1.1832  0.4674
 3407TIP3   OH231711   1.709   4.752   5.547  0.4997 -0.6512  0.6705
 3407TIP3    H131712   1.713   4.847   5.550 -0.4387 -0.6151  0.8294
 3407TIP3    H231713   1.616   4.731   5.537  0.6035 -1.5631  1.4447
 3408TIP3   OH231714   1.661   4.622  16.531  0.4287 -0.0715  0.0153
 3408TIP3    H131715   1.585   4.575  16.498  1.0622 -0.1622 -1.4041
 3408TIP3    H231716   1.627   4.678  16.600 -0.7285 -0.9379  0.1738
 3409TIP3   OH231717   3.688   6.525  17.208 -0.3524  0.3428 -0.4519
 3409TIP3    H131718   3.688   6.551  17.116  1.1363  1.1557 -0.2645
 3409TIP3    H231719   3.773   6.482  17.220 -0.7641 -0.2510  0.4124
 3410TIP3   OH231720   1.758   6.506  13.199  0.0945 -0.0819 -0.4809
 3410TIP3    H131721   1.735   6.568  13.267 -0.7601  1.4268 -2.0580
 3410TIP3    H231722   1.720   6.423  13.227 -0.7523  0.6411  0.5689
 3411TIP3   OH231723   5.224   4.516   2.838  0.1189 -0.0535 -0.4892
 3411TIP3    H131724   5.182   4.449   2.892  2.7285 -1.5659 -0.1825
 3411TIP3    H231725   5.197   4.598   2.877 -2.6882 -0.8502 -0.4919
 3412TIP3   OH231726   0.530   0.167   3.415  0.5806  0.8205 -0.1661
 3412TIP3    H131727   0.476   0.212   3.480  1.1953  0.1768  0.8085
 3412TIP3    H231728   0.478   0.171   3.335 -0.8265  0.4236  0.6756
 3413TIP3   OH231729   2.800   4.737   4.521  0.4394  0.0769  0.1125
 3413TIP3    H131730   2.706   4.726   4.507  0.2318 -1.9155  2.4077
 3413TIP3    H231731   2.833   4.648   4.531  2.5301  0.7624 -0.2248
 3414TIP3   OH231732   4.455   1.846  15.336  0.2765 -0.1704 -0.0887
 3414TIP3    H131733   4.502   1.826  15.255  3.0642  1.2327  1.0799
 3414TIP3    H231734   4.378   1.895  15.306  1.5126  0.8006 -1.8929
 3415TIP3   OH231735   4.177   6.579   2.814 -0.0154  0.4011 -0.5879
 3415TIP3    H131736   4.124   6.508   2.851 -0.7303  1.4130  0.4082
 3415TIP3    H231737   4.128   6.658   2.836  1.6723  1.3429 -0.0682
 3416TIP3   OH231738   2.128   1.140   3.972  0.2356 -0.1026  0.8772
 3416TIP3    H131739   2.118   1.086   4.050 -2.9904 -1.6466 -0.4106
 3416TIP3    H231740   2.166   1.080   3.907  0.7651  0.5158  0.5979
 3417TIP3   OH231741   4.332   1.606   5.285 -0.6538  0.5294 -0.4559
 3417TIP3    H131742   4.306   1.682   5.337  1.1563 -0.5268  2.2066
 3417TIP3    H231743   4.400   1.640   5.227 -1.2968  1.3460 -0.7535
 3418TIP3   OH231744   3.242   0.541  13.074  0.7683 -0.3836  0.3168
 3418TIP3    H131745   3.267   0.547  13.166  2.1984 -1.1246  0.0044
 3418TIP3    H231746   3.284   0.462  13.042 -1.9610 -1.6973 -0.3331
 3419TIP3   OH231747   2.821   3.553   1.551 -0.2611 -1.0704  0.0217
 3419TIP3    H131748   2.825   3.642   1.514 -1.1631 -1.2192 -0.4492
 3419TIP3    H231749   2.876   3.558   1.630  1.2992 -0.6182 -1.0452
 3420TIP3   OH231750   1.459   2.627   0.537  0.7339 -0.1228 -0.3143
 3420TIP3    H131751   1.505   2.651   0.617 -1.1706 -3.0867  1.8645
 3420TIP3    H231752   1.400   2.701   0.520  2.6627  1.4870 -0.3204
 3421TIP3   OH231753   1.439   5.177   2.666 -1.0612 -0.0967  0.4809
 3421TIP3    H131754   1.490   5.244   2.620 -1.3543  0.1810  0.5590
 3421TIP3    H231755   1.398   5.126   2.596 -0.2854 -0.6325  0.4061
 3422TIP3   OH231756   2.676   2.042   6.727 -0.1359 -0.4135 -0.0695
 3422TIP3    H131757   2.714   1.987   6.795 -0.0077 -1.5949 -1.0657
 3422TIP3    H231758   2.596   1.997   6.700  0.6883 -0.8866 -1.8675
 3423TIP3   OH231759   2.115   4.012  14.080 -0.2866 -0.6095  0.3525
 3423TIP3    H131760   2.051   4.074  14.046 -0.5943 -1.1109 -0.0107
 3423TIP3    H231761   2.195   4.063  14.091 -1.0577  0.3123  1.9677
 3424TIP3   OH231762   2.651   4.934  16.289 -0.0379 -0.5744 -0.0206
 3424TIP3    H131763   2.653   4.850  16.335  0.6275 -0.1402  0.7780
 3424TIP3    H231764   2.733   4.936  16.240  0.6737  0.2291  1.1507
 3425TIP3   OH231765   0.946   2.352   3.636 -0.6490 -0.4425  0.2486
 3425TIP3    H131766   0.945   2.439   3.595  0.6007 -0.3005  0.4750
 3425TIP3    H231767   0.936   2.291   3.563 -1.8478 -0.1115  0.1203
 3426TIP3   OH231768   5.790   1.863   0.097 -0.2594  0.3321  0.1457
 3426TIP3    H131769   5.722   1.930   0.096 -0.5875  0.0130 -1.5798
 3426TIP3    H231770   5.807   1.847   0.190 -2.1759  0.7889  0.6115
 3427TIP3   OH231771   3.158   4.453   5.653  0.3994 -0.0184  0.4691
 3427TIP3    H131772   3.085   4.392   5.641  1.0719 -0.3886 -2.2604
 3427TIP3    H231773   3.124   4.519   5.714 -1.2711 -1.5951  1.3462
 3428TIP3   OH231774   1.386   2.885   1.191 -0.4406  0.1494  0.0768
 3428TIP3    H131775   1.405   2.976   1.167 -1.5772  0.6037  0.7990
 3428TIP3    H231776   1.426   2.833   1.122  1.1523  1.1393  0.2107
 3429TIP3   OH231777   6.728   1.198  16.689 -0.2724  0.4256  0.0889
 3429TIP3    H131778   6.715   1.156  16.774  3.6707  1.2106  1.2925
 3429TIP3    H231779   6.691   1.286  16.700  1.6738  1.1421  1.7649
 3430TIP3   OH231780   0.972   1.786   1.897 -0.3430  0.1078 -0.0366
 3430TIP3    H131781   1.015   1.711   1.855  0.1801 -0.6342  1.7102
 3430TIP3    H231782   1.010   1.789   1.985 -0.6689  2.1900  0.0822
 3431TIP3   OH231783   6.722   6.008   4.414  0.4120 -0.1268  0.0813
 3431TIP3    H131784   6.777   5.988   4.338  1.8549 -2.7418  1.6573
 3431TIP3    H231785   6.783   6.046   4.477  0.1364 -1.7227  1.3478
 3432TIP3   OH231786   4.478   2.909   5.766 -0.4256  0.2350  0.4874
 3432TIP3    H131787   4.504   2.818   5.780  0.7874  0.6316  0.9467
 3432TIP3    H231788   4.420   2.928   5.840 -0.0322  0.0725  0.8431
 3433TIP3   OH231789   6.394   2.685  16.342 -0.0289 -0.3686 -0.0242
 3433TIP3    H131790   6.336   2.608  16.340  1.4040 -1.4861 -1.0155
 3433TIP3    H231791   6.430   2.689  16.254 -0.4634  1.8025 -0.1439
 3434TIP3   OH231792   1.224   6.626  16.954 -0.0227 -0.8668  0.1438
 3434TIP3    H131793   1.232   6.721  16.943  0.0911 -0.7484  1.1541
 3434TIP3    H231794   1.236   6.590  16.865  0.6508  0.0104 -0.1350
 3435TIP3   OH231795   1.370   2.596   5.836 -0.3749  0.6545  0.5673
 3435TIP3    H131796   1.299   2.659   5.836 -1.0658 -0.0997  0.8246
 3435TIP3    H231797   1.400   2.592   5.745 -2.3140 -0.7941 -0.0876
 3436TIP3   OH231798   3.970   5.084  12.401  0.3962 -0.3315  0.0311
 3436TIP3    H131799   3.932   5.010  12.449  1.7833 -1.2120 -0.1659
 3436TIP3    H231800   3.944   5.161  12.451 -0.5023 -0.9953  0.6329
 3437TIP3   OH231801   6.361   4.589   1.781 -0.1335  0.1423  0.6568
 3437TIP3    H131802   6.315   4.665   1.746  0.1291  0.2564  0.5587
 3437TIP3    H231803   6.393   4.617   1.867  0.6769  0.4211  0.2757
 3438TIP3   OH231804   6.229   1.327  12.995  0.1073  0.6572 -0.0168
 3438TIP3    H131805   6.319   1.296  12.998 -0.3695 -0.7529  0.4731
 3438TIP3    H231806   6.202   1.315  12.904  0.3907  1.0286 -0.1506
 3439TIP3   OH231807   5.304   1.122   3.922 -0.2554 -0.1478 -0.0557
 3439TIP3    H131808   5.326   1.212   3.898 -0.5903 -0.0901 -0.1490
 3439TIP3    H231809   5.370   1.068   3.878 -0.1856  0.0359 -0.1763
 3440TIP3   OH231810   1.757   2.415   1.963  0.1086  0.1073  0.1421
 3440TIP3    H131811   1.709   2.461   1.894 -0.6121 -2.7394 -1.4045
 3440TIP3    H231812   1.848   2.440   1.950 -0.4202  2.8356  0.8935
 3441TIP3   OH231813   6.193   5.755  11.411 -0.1725  0.3645  0.3074
 3441TIP3    H131814   6.287   5.738  11.398 -0.9514 -3.2118 -2.4653
 3441TIP3    H231815   6.172   5.821  11.345 -0.0690 -1.3201 -1.5235
 3442TIP3   OH231816   2.917   6.212  13.912  0.1093 -0.0903 -0.0064
 3442TIP3    H131817   2.893   6.127  13.877 -0.3309  0.8355 -2.0877
 3442TIP3    H231818   2.863   6.222  13.991  0.5245 -1.8916  0.5553
 3443TIP3   OH231819   3.105   4.830  17.410  0.2096 -0.6450  0.3123
 3443TIP3    H131820   3.087   4.918  17.442  1.3007 -0.4865  0.5030
 3443TIP3    H231821   3.045   4.774  17.459  0.0843 -0.1050  0.7851
 3444TIP3   OH231822   3.522   3.075   6.622 -0.2402 -0.1429  0.5173
 3444TIP3    H131823   3.431   3.089   6.599 -0.4554 -0.7839  0.9428
 3444TIP3    H231824   3.530   2.980   6.632  0.3939 -0.0683  0.7859
 3445TIP3   OH231825   3.952   0.126   4.975  0.1761  0.0551 -0.3335
 3445TIP3    H131826   4.034   0.100   5.017  0.5818  1.1744 -0.3889
 3445TIP3    H231827   3.897   0.159   5.046  0.2549  0.4732 -0.4644
 3446TIP3   OH231828   1.226   1.728  16.901  0.3062 -0.0536 -0.1106
 3446TIP3    H131829   1.152   1.784  16.877  0.4577  0.4896  0.6673
 3446TIP3    H231830   1.299   1.761  16.848  0.6292  1.1206  1.0001
 3447TIP3   OH231831   4.759   4.394  13.398  0.1859 -0.8271  0.3537
 3447TIP3    H131832   4.851   4.401  13.370  0.0567 -1.2946 -0.2122
 3447TIP3    H231833   4.709   4.421  13.321 -0.1428  0.9085  1.1293
 3448TIP3   OH231834   1.347   3.735   4.943  0.4304 -0.2299  0.1112
 3448TIP3    H131835   1.347   3.701   4.853 -0.0871 -0.2945  0.1330
 3448TIP3    H231836   1.408   3.679   4.990 -0.6280 -1.3409  0.2154
 3449TIP3   OH231837   1.609   5.494   2.328 -0.5725 -0.1652  0.0449
 3449TIP3    H131838   1.561   5.548   2.391 -0.3105 -0.7134  0.7394
 3449TIP3    H231839   1.701   5.508   2.350 -0.3748  1.1440 -1.5055
 3450TIP3   OH231840   6.380   0.517  13.585  0.2860  0.2341 -0.0703
 3450TIP3    H131841   6.393   0.472  13.502 -2.2309  0.0199 -0.4311
 3450TIP3    H231842   6.363   0.608  13.562 -0.2663  0.2068  0.1950
 3451TIP3   OH231843   6.583   4.582   0.557 -0.4428  0.3666 -0.3139
 3451TIP3    H131844   6.520   4.653   0.548 -1.9129 -0.7472  0.5885
 3451TIP3    H231845   6.563   4.543   0.642 -0.2740 -1.6574 -1.1465
 3452TIP3   OH231846   3.033   3.252   4.094 -0.1498 -0.3157  0.1304
 3452TIP3    H131847   3.075   3.227   4.011  0.6476 -0.8216  0.6738
 3452TIP3    H231848   2.945   3.279   4.069  0.4457  0.6392 -1.0319
 3453TIP3   OH231849   2.448   5.388  12.568 -0.4117 -0.0269  0.0636
 3453TIP3    H131850   2.521   5.367  12.626 -0.8458  0.8243  0.9652
 3453TIP3    H231851   2.377   5.412  12.628 -1.5375 -1.1497 -0.7805
 3454TIP3   OH231852   5.763   4.883   5.770  0.2437  0.5024  0.1181
 3454TIP3    H131853   5.851   4.914   5.751 -0.0708  0.2014 -2.0163
 3454TIP3    H231854   5.715   4.892   5.688 -1.2523 -0.8929  0.7727
 3455TIP3   OH231855   1.035   3.566  11.940  0.0987 -0.7545  0.2582
 3455TIP3    H131856   1.059   3.600  11.854  1.0953  0.9955  1.1622
 3455TIP3    H231857   0.940   3.573  11.943  0.2188  1.8475  0.2729
 3456TIP3   OH231858   0.007   6.263   0.314 -0.1527  0.3308  0.3148
 3456TIP3    H131859  -0.063   6.207   0.346  0.3845  1.0167  2.9283
 3456TIP3    H231860   0.081   6.245   0.372  0.7322  2.0936 -0.1879
 3457TIP3   OH231861   4.600   5.681  11.654  0.2665  0.0509  0.5025
 3457TIP3    H131862   4.662   5.696  11.583 -0.2535 -0.8320 -0.1649
 3457TIP3    H231863   4.654   5.669  11.732  0.8970  0.0225  0.0670
 3458TIP3   OH231864   2.433   4.633  12.399 -0.1175 -0.2705  0.5722
 3458TIP3    H131865   2.357   4.643  12.342 -0.0077 -1.3778  0.2025
 3458TIP3    H231866   2.409   4.563  12.460  0.6528 -0.7641  0.3357
 3459TIP3   OH231867   0.680   5.427  13.278  0.2489 -0.3920  0.2377
 3459TIP3    H131868   0.739   5.361  13.314  0.4702 -0.5244 -0.3599
 3459TIP3    H231869   0.617   5.443  13.348  0.7832 -0.5083  0.7494
 3460TIP3   OH231870   5.920   5.008  16.903 -0.1671 -0.0016  0.0724
 3460TIP3    H131871   5.997   5.062  16.888 -0.1578  0.5326  1.8963
 3460TIP3    H231872   5.954   4.926  16.940 -0.3351 -0.5755 -0.9918
 3461TIP3   OH231873   5.237   5.738  15.631  0.3078  0.2099  0.0076
 3461TIP3    H131874   5.275   5.817  15.593 -1.2503  0.1537 -1.8170
 3461TIP3    H231875   5.239   5.754  15.726  2.6434  1.1518 -0.1214
 3462TIP3   OH231876   6.037   1.177  14.634 -0.4033  0.2626 -0.2334
 3462TIP3    H131877   6.092   1.243  14.590 -1.1366  2.7092  2.2087
 3462TIP3    H231878   6.095   1.136  14.698 -0.3801 -0.2723 -0.5911
 3463TIP3   OH231879   4.761   3.351  14.993  0.1102  0.5158 -0.2851
 3463TIP3    H131880   4.848   3.374  14.962  0.3803 -0.2800 -0.1377
 3463TIP3    H231881   4.758   3.385  15.082  0.9307 -0.9806  0.3463
 3464TIP3   OH231882   5.811   4.655  17.157 -0.1448  0.2726  0.0532
 3464TIP3    H131883   5.865   4.615  17.224  1.5428  0.3171 -1.2048
 3464TIP3    H231884   5.852   4.629  17.074 -0.4572  2.4530 -0.8810
 3465TIP3   OH231885   5.283   3.371  16.095 -0.3383  0.2439 -0.2805
 3465TIP3    H131886   5.307   3.278  16.093 -0.5697  0.1621  0.4915
 3465TIP3    H231887   5.352   3.415  16.045  0.8283 -0.1060  0.9850
 3466TIP3   OH231888   3.827   4.164  15.920 -0.4649 -0.1515  0.3383
 3466TIP3    H131889   3.736   4.182  15.941 -0.4394  0.0714  0.2699
 3466TIP3    H231890   3.829   4.073  15.890 -1.2134  0.7188 -2.7253
 3467TIP3   OH231891   5.618   3.169   3.199  0.4270  0.2845  0.2892
 3467TIP3    H131892   5.564   3.196   3.125  2.7401  0.2661 -1.5450
 3467TIP3    H231893   5.560   3.172   3.274 -2.4071 -0.8301 -1.6730
 3468TIP3   OH231894   2.148   4.899  13.342 -0.1645  0.6936  0.3284
 3468TIP3    H131895   2.205   4.834  13.383 -0.1106  1.0970  0.8945
 3468TIP3    H231896   2.155   4.976  13.397  1.5826  2.0096 -1.5613
 3469TIP3   OH231897   3.004   4.570   2.133 -0.1080  0.2237 -0.1820
 3469TIP3    H131898   2.913   4.601   2.134 -0.1791  0.0441  0.9532
 3469TIP3    H231899   3.037   4.594   2.047 -1.0954  0.7024 -0.4431
 3470TIP3   OH231900   3.426   4.195   3.384  0.2073 -0.1673 -0.9931
 3470TIP3    H131901   3.493   4.210   3.450  1.6358 -0.7218 -2.2675
 3470TIP3    H231902   3.344   4.190   3.434  0.6944  2.9627  0.4041
 3471TIP3   OH231903   5.207   0.381   1.682 -0.2548 -0.2023  0.0617
 3471TIP3    H131904   5.200   0.320   1.756  1.0216  2.0702  2.2051
 3471TIP3    H231905   5.119   0.417   1.672 -0.3596 -0.2282  0.7912
 3472TIP3   OH231906   1.803   3.353   3.033  0.1420 -0.6136  0.4283
 3472TIP3    H131907   1.816   3.272   2.983  1.0522 -1.2896  1.6881
 3472TIP3    H231908   1.774   3.417   2.969  0.6397 -1.6185 -0.8392
 3473TIP3   OH231909   4.047   5.569   4.805 -0.3715 -0.1368  0.0138
 3473TIP3    H131910   4.108   5.501   4.775  1.6993 -0.2601  3.9763
 3473TIP3    H231911   4.001   5.529   4.879 -1.7234  1.6465  0.2007
 3474TIP3   OH231912   2.406   0.541   3.337  0.1048  0.2861 -0.4413
 3474TIP3    H131913   2.419   0.459   3.384 -0.7848 -0.7974 -1.9967
 3474TIP3    H231914   2.311   0.547   3.324 -0.1250  2.7667  1.6361
 3475TIP3   OH231915   0.946   5.964  14.585 -0.6829  0.2519 -0.6063
 3475TIP3    H131916   0.963   5.896  14.650 -0.8225 -0.6519 -1.5090
 3475TIP3    H231917   0.858   5.946  14.553 -1.1776  1.5304 -0.0638
 3476TIP3   OH231918   5.851   6.412  16.389  0.2430 -0.1198  0.2734
 3476TIP3    H131919   5.796   6.453  16.455  0.3339 -0.3813  0.5146
 3476TIP3    H231920   5.826   6.320  16.390  1.0968 -0.3579  0.8154
 3477TIP3   OH231921   4.760   3.433  15.832  0.6691  0.1966  0.0184
 3477TIP3    H131922   4.780   3.525  15.820 -1.3728  0.9061  1.5110
 3477TIP3    H231923   4.836   3.398  15.880  0.9212  1.3896  0.5206
 3478TIP3   OH231924   2.275   3.837  15.300 -0.2367 -0.3418  0.0436
 3478TIP3    H131925   2.315   3.779  15.236 -0.1948  0.5171 -0.7390
 3478TIP3    H231926   2.302   3.802  15.385  1.3568 -0.3622 -0.4421
 3479TIP3   OH231927   1.955   0.048  16.642  0.2490  0.3541  0.6263
 3479TIP3    H131928   1.902   0.073  16.718 -0.1110  0.6726  0.2755
 3479TIP3    H231929   2.014   0.122  16.630 -0.1872  0.6321  0.1563
 3480TIP3   OH231930   1.770   5.566   3.309  0.0648  0.4701 -0.5374
 3480TIP3    H131931   1.710   5.529   3.374  2.6746 -1.4091  1.0168
 3480TIP3    H231932   1.740   5.530   3.226 -0.5374 -1.0685  0.2964
 3481TIP3   OH231933   1.980   1.065   5.569  0.6075  0.0710 -0.2211
 3481TIP3    H131934   1.959   1.029   5.655 -0.5144 -0.7076 -0.7904
 3481TIP3    H231935   1.963   0.993   5.508  2.7235  0.1635 -0.9917
 3482TIP3   OH231936   1.462   3.332   0.782  0.5574 -0.2477 -0.2461
 3482TIP3    H131937   1.461   3.297   0.692  1.7092 -0.4629 -0.1857
 3482TIP3    H231938   1.426   3.420   0.773  1.6505  0.1419 -1.1180
 3483TIP3   OH231939   4.779   0.577  10.603 -0.3960 -0.1943 -0.4892
 3483TIP3    H131940   4.697   0.564  10.652 -0.1964 -0.3351 -0.1907
 3483TIP3    H231941   4.822   0.650  10.647  0.5392 -1.3354  0.5530
 3484TIP3   OH231942   5.428   0.282   0.025  0.3445 -0.1632  0.9030
 3484TIP3    H131943   5.381   0.225   0.086  2.1888 -0.8420  1.8030
 3484TIP3    H231944   5.412   0.243  -0.061 -0.5297 -0.4966  1.2013
 3485TIP3   OH231945   2.610   5.331  15.506 -0.0994  0.0996  0.1723
 3485TIP3    H131946   2.610   5.320  15.601  0.2557  0.3058  0.1982
 3485TIP3    H231947   2.525   5.370  15.487  0.4215  1.5152  0.5879
 3486TIP3   OH231948   6.373   0.010   3.151 -0.2271 -0.3734 -0.0196
 3486TIP3    H131949   6.319  -0.016   3.226 -0.5601  1.5463  0.4657
 3486TIP3    H231950   6.461  -0.023   3.172  0.2716  2.0886  2.4811
 3487TIP3   OH231951   6.571   3.772  14.795  0.5929 -0.2262  0.0290
 3487TIP3    H131952   6.557   3.853  14.746  0.4638 -0.2791 -0.0210
 3487TIP3    H231953   6.654   3.739  14.762  0.3722 -0.4035 -0.3489
 3488TIP3   OH231954   4.145   0.098   1.537  0.1996 -0.4414  0.1996
 3488TIP3    H131955   4.203   0.174   1.544  0.4074 -0.6562  0.8858
 3488TIP3    H231956   4.116   0.081   1.626 -0.9919 -0.3002 -0.1503
 3489TIP3   OH231957   3.658   0.529   6.683 -0.3408  0.7442 -0.0774
 3489TIP3    H131958   3.704   0.448   6.704 -1.4184  0.8422  3.2304
 3489TIP3    H231959   3.728   0.592   6.662  0.7904 -0.0612  1.1258
 3490TIP3   OH231960   5.778   1.885  12.339 -0.3384  0.4198 -0.0429
 3490TIP3    H131961   5.759   1.979  12.333 -1.4944  0.1763 -0.5130
 3490TIP3    H231962   5.710   1.851  12.398  1.2884  0.1721  1.8138
 3491TIP3   OH231963   1.111   2.719   2.318 -0.2800 -0.1644 -0.5177
 3491TIP3    H131964   1.152   2.788   2.371 -1.5892  1.8455 -1.9869
 3491TIP3    H231965   1.027   2.756   2.290 -0.9552 -2.2998 -1.5397
 3492TIP3   OH231966   6.614   2.133  15.756  0.3364 -0.5534 -0.5500
 3492TIP3    H131967   6.626   2.051  15.805  1.3126  0.7904  1.6255
 3492TIP3    H231968   6.574   2.193  15.819 -1.4283  0.3527 -2.4359
 3493TIP3   OH231969   6.163   0.029  14.169  0.3328  0.1360 -0.4358
 3493TIP3    H131970   6.240  -0.028  14.170  0.0912 -0.2118  1.0733
 3493TIP3    H231971   6.180   0.090  14.097  2.9420  1.2685  0.9976
 3494TIP3   OH231972   5.608   6.104  14.768 -0.1873  0.6598 -0.2204
 3494TIP3    H131973   5.539   6.169  14.779 -0.0125  0.5791  1.8446
 3494TIP3    H231974   5.602   6.049  14.846  1.5620  0.0326 -0.4665
 3495TIP3   OH231975   4.750   3.544   0.215  0.5304 -0.5011  0.1467
 3495TIP3    H131976   4.700   3.505   0.287  0.1309  1.4117  0.9887
 3495TIP3    H231977   4.749   3.479   0.146 -2.7913 -0.7556  0.2939
 3496TIP3   OH231978   1.749   3.080   3.539  0.1627  1.3062 -0.0220
 3496TIP3    H131979   1.822   3.029   3.504  0.2376  1.3203  0.1093
 3496TIP3    H231980   1.732   3.041   3.625 -1.0333  0.2736 -0.6979
 3497TIP3   OH231981   3.005   2.609  13.637  0.3998  0.1716 -0.1455
 3497TIP3    H131982   3.046   2.616  13.723  1.4718 -0.4252 -0.5953
 3497TIP3    H231983   2.953   2.528  13.641  0.1317  0.3530  0.0653
 3498TIP3   OH231984   5.401   6.645   0.119  0.0347  0.4435 -0.1451
 3498TIP3    H131985   5.468   6.648   0.051  2.3579 -1.8811  1.8149
 3498TIP3    H231986   5.430   6.710   0.184  0.0656 -0.1385  0.4338
 3499TIP3   OH231987   4.005   6.053  14.344 -0.3248 -0.1120 -0.0997
 3499TIP3    H131988   4.083   5.996  14.345 -1.3679 -1.6155 -0.4379
 3499TIP3    H231989   3.982   6.059  14.252  0.5394  2.0308 -0.2220
 3500TIP3   OH231990   5.531   4.124   4.129  0.2666  0.1921  0.2530
 3500TIP3    H131991   5.577   4.040   4.139  3.2180  1.7691  1.0617
 3500TIP3    H231992   5.438   4.101   4.136  0.9883 -2.8031  1.8952
 3501TIP3   OH231993   3.443   2.527   0.544 -0.3298 -0.0511 -0.0389
 3501TIP3    H131994   3.481   2.549   0.458 -2.8782  1.9683 -0.7611
 3501TIP3    H231995   3.505   2.564   0.607 -0.1373  1.5567 -1.1091
 3502TIP3   OH231996   0.037   6.461   4.553 -0.6764 -0.0945 -0.4376
 3502TIP3    H131997   0.067   6.549   4.573  0.2587 -0.7993  1.5001
 3502TIP3    H231998  -0.050   6.455   4.593 -0.3797 -0.2993  0.1968
 3503TIP3   OH231999   1.141   6.057  10.929 -0.5331 -0.0222  0.2796
 3503TIP3    H132000   1.155   6.084  10.838 -1.0319  1.4140  0.5906
 3503TIP3    H232001   1.201   5.984  10.942  1.0959  1.0852 -0.5897
 3504TIP3   OH232002   1.395   3.638  15.762 -0.2086  0.5102 -0.0198
 3504TIP3    H132003   1.436   3.674  15.683 -1.0119 -0.1882 -0.7670
 3504TIP3    H232004   1.455   3.568  15.790  0.3821  1.1476  0.3490
 3505TIP3   OH232005   0.843   5.988   4.289  0.4694  0.1734 -0.0874
 3505TIP3    H132006   0.841   6.067   4.344  2.6075  0.0567  0.2249
 3505TIP3    H232007   0.757   5.948   4.301  0.9805 -0.1005  3.5748
 3506TIP3   OH232008   5.286   1.143  14.706 -0.7426 -0.1479  0.0965
 3506TIP3    H132009   5.230   1.220  14.694  0.1268  0.9396  2.4351
 3506TIP3    H232010   5.244   1.095  14.778 -0.7569 -1.3900 -0.7259
 3507TIP3   OH232011   1.362   4.782  11.244 -0.0815 -0.2973 -0.5112
 3507TIP3    H132012   1.439   4.747  11.199  0.5676 -0.1323  0.4246
 3507TIP3    H232013   1.370   4.877  11.234 -0.5425 -0.3052 -0.9965
 3508TIP3   OH232014   0.867   4.594  12.067 -0.4415  0.1615 -0.6448
 3508TIP3    H132015   0.798   4.535  12.097  1.2551 -2.4473 -1.4848
 3508TIP3    H232016   0.935   4.589  12.135  0.2113  0.1745 -1.2768
 3509TIP3   OH232017   1.466   4.857   4.873 -0.1139 -0.6631  0.0984
 3509TIP3    H132018   1.522   4.811   4.935  1.7512 -1.2697 -1.9170
 3509TIP3    H232019   1.465   4.947   4.904 -0.0971 -1.1376  1.5633
 3510TIP3   OH232020   1.001   5.573  11.404  0.1458  0.3844  0.0278
 3510TIP3    H132021   1.000   5.632  11.328 -1.1060 -0.4303 -0.6254
 3510TIP3    H232022   1.024   5.629  11.478  0.6954  1.3379 -0.8462
 3511TIP3   OH232023   5.472   2.677   0.206 -0.4402 -0.6043  0.0258
 3511TIP3    H132024   5.395   2.631   0.172 -0.3910 -0.4860 -0.2545
 3511TIP3    H232025   5.440   2.764   0.228  0.0597  0.2271 -2.2487
 3512TIP3   OH232026   4.690   2.710   5.514  0.1977 -0.2761 -0.7723
 3512TIP3    H132027   4.726   2.767   5.446  0.5144 -0.3205 -0.6435
 3512TIP3    H232028   4.628   2.653   5.468 -1.1708  1.0815 -0.6941
 3513TIP3   OH232029   6.551   3.938  13.718 -0.3201 -0.2525 -0.5344
 3513TIP3    H132030   6.617   3.869  13.716  0.7992  0.7675 -1.3655
 3513TIP3    H232031   6.542   3.965  13.626 -0.4149  0.9530 -0.1987
 3514TIP3   OH232032   2.482   4.692   0.541 -0.2573 -0.2187  0.4496
 3514TIP3    H132033   2.519   4.756   0.602 -0.2666  1.9598 -1.6931
 3514TIP3    H232034   2.559   4.652   0.500 -0.2557 -1.5525  1.6709
 3515TIP3   OH232035   2.251   5.385  14.367 -0.1992  0.5011 -0.2527
 3515TIP3    H132036   2.266   5.336  14.286 -0.4016  0.4102 -0.2368
 3515TIP3    H232037   2.216   5.469  14.339 -1.3518  0.0555 -0.2217
 3516TIP3   OH232038   5.925   0.803   4.073 -0.7338 -0.6353 -0.1130
 3516TIP3    H132039   5.887   0.715   4.064 -0.7368 -0.6197 -0.2441
 3516TIP3    H232040   5.977   0.815   3.994 -1.6066 -0.0820 -0.6168
 3517TIP3   OH232041   6.045   1.471  15.330 -0.1960  0.6250  0.0835
 3517TIP3    H132042   5.969   1.422  15.361 -0.0768  0.3648 -0.0329
 3517TIP3    H232043   6.117   1.442  15.386 -0.1328  0.6982  0.0404
 3518TIP3   OH232044   5.906   5.523   1.499 -0.6507 -0.2836  0.2044
 3518TIP3    H132045   5.856   5.454   1.541 -0.7231  0.5335  1.4880
 3518TIP3    H232046   5.910   5.496   1.407 -2.3379 -1.0033  0.3016
 3519TIP3   OH232047   3.210   3.270  14.117  0.0879  0.3640 -0.5417
 3519TIP3    H132048   3.212   3.203  14.048  1.1306  0.0032 -0.1801
 3519TIP3    H232049   3.118   3.276  14.142 -0.2875  0.3750 -1.8402
 3520TIP3   OH232050   4.928   1.504  15.322  0.2205 -0.2902 -0.0692
 3520TIP3    H132051   4.906   1.587  15.280  0.1674 -0.9793 -1.4409
 3520TIP3    H232052   5.021   1.492  15.305  0.5472  0.1061  1.2821
 3521TIP3   OH232053   2.886   2.062  14.216 -0.7780  0.2521  0.2000
 3521TIP3    H132054   2.888   2.000  14.289  1.4813 -0.4663 -0.3961
 3521TIP3    H232055   2.940   2.022  14.149 -1.5946  1.5841 -1.3249
 3522TIP3   OH232056   6.565   6.227   4.272 -0.3274  0.1155  0.3006
 3522TIP3    H132057   6.488   6.171   4.271  0.4859 -1.1581  2.3441
 3522TIP3    H232058   6.637   6.169   4.299  1.3378  1.2861 -1.3910
 3523TIP3   OH232059   3.313   0.317   0.792 -0.6901  0.0879 -0.0472
 3523TIP3    H132060   3.345   0.240   0.840 -0.6584 -0.6789 -1.2365
 3523TIP3    H232061   3.228   0.289   0.757 -0.8221  0.7088 -0.2224
 3524TIP3   OH232062   6.023   0.948   2.207 -0.4330  0.3262 -0.3218
 3524TIP3    H132063   5.972   0.968   2.129 -2.5308  0.2557  0.9555
 3524TIP3    H232064   5.987   1.005   2.275 -1.1075 -2.0305  1.4346
 3525TIP3   OH232065   5.149   4.300   3.444  0.2160  0.2621 -0.1278
 3525TIP3    H132066   5.235   4.298   3.487 -0.0063 -1.7649  0.3347
 3525TIP3    H232067   5.088   4.327   3.513  0.2126 -0.4252  0.1493
 3526TIP3   OH232068   4.623   3.962   6.391  0.0994 -0.1757 -0.2136
 3526TIP3    H132069   4.660   3.917   6.467 -1.1443 -2.0001 -0.6226
 3526TIP3    H232070   4.653   4.053   6.400  2.9676 -1.0929  0.4847
 3527TIP3   OH232071   0.726   5.800  16.048  0.0819 -0.0726  0.5661
 3527TIP3    H132072   0.720   5.717  16.095 -2.2780  0.2457  0.9681
 3527TIP3    H232073   0.666   5.858  16.094 -0.2847  1.0717 -1.2414
 3528TIP3   OH232074   5.955   6.051  12.204  0.4450  0.2023 -0.2478
 3528TIP3    H132075   5.872   6.093  12.182  0.0481 -0.8833 -0.9266
 3528TIP3    H232076   6.015   6.075  12.134  0.6465  0.8078  0.1273
 3529TIP3   OH232077   4.395   4.482   2.812  0.3618  0.2782  0.3897
 3529TIP3    H132078   4.425   4.492   2.721  2.8237  0.1336  1.1090
 3529TIP3    H232079   4.436   4.555   2.858 -2.1257  1.2697  1.1536
 3530TIP3   OH232080   6.726   5.747  16.244  0.8440  0.0665 -0.4946
 3530TIP3    H132081   6.631   5.738  16.250  0.9300 -0.9207 -0.3699
 3530TIP3    H232082   6.750   5.697  16.166  1.1559  1.2943 -1.2163
 3531TIP3   OH232083   3.875   0.594  12.949  0.3607 -0.4974 -0.0156
 3531TIP3    H132084   3.932   0.567  13.022  1.4775  1.2822 -0.1618
 3531TIP3    H232085   3.930   0.586  12.871 -0.4196 -1.1684 -0.5143
 3532TIP3   OH232086   0.612   4.828  16.355 -0.7593  0.1963 -0.2693
 3532TIP3    H132087   0.590   4.855  16.266 -0.3829 -0.4043 -0.5432
 3532TIP3    H232088   0.624   4.733  16.350  2.2158  0.4830 -0.2222
 3533TIP3   OH232089   3.700   3.110   0.365 -0.0783 -0.3810 -0.3245
 3533TIP3    H132090   3.611   3.140   0.381  0.4019  0.4818  0.8958
 3533TIP3    H232091   3.737   3.097   0.453  0.9101 -0.9895 -0.8131
 3534TIP3   OH232092   0.495   0.032   3.986  0.0043  0.0295  0.5685
 3534TIP3    H132093   0.583   0.028   3.950 -0.2637 -1.5320  0.0271
 3534TIP3    H232094   0.471   0.124   3.980  1.1593  0.2965 -0.3298
 3535TIP3   OH232095   3.196   0.921   3.482 -0.6498  1.0582 -0.3888
 3535TIP3    H132096   3.215   1.008   3.516 -0.8539  0.5266  1.1767
 3535TIP3    H232097   3.123   0.934   3.421  0.0727  2.1184 -1.0554
 3536TIP3   OH232098   3.773   2.764   2.084 -0.0292 -0.4978  0.3055
 3536TIP3    H132099   3.783   2.857   2.102 -0.3949 -0.3289 -0.3093
 3536TIP3    H232100   3.839   2.721   2.138  0.6669  0.1762  0.0101
 3537TIP3   OH232101   1.444   0.468   0.560  0.3996 -0.0524  0.2629
 3537TIP3    H132102   1.349   0.471   0.548  0.2107  0.7077  1.8149
 3537TIP3    H232103   1.457   0.482   0.653  1.9186 -2.9765  0.6013
 3538TIP3   OH232104   0.614   2.123   2.216 -0.0179  0.6426 -0.1796
 3538TIP3    H132105   0.666   2.082   2.286  0.8835  4.4218  1.6528
 3538TIP3    H232106   0.547   2.058   2.195  0.1891 -1.1258  3.6234
 3539TIP3   OH232107   5.684   6.381  15.051  0.3482 -0.1701  0.2483
 3539TIP3    H132108   5.606   6.433  15.071 -0.5849  0.0130 -3.1326
 3539TIP3    H232109   5.754   6.446  15.039 -0.0900  0.1123 -0.9750
 3540TIP3   OH232110   1.310   3.073   3.046 -0.2515  0.6839 -0.5176
 3540TIP3    H132111   1.288   2.984   3.020 -0.9311  0.9822 -0.9970
 3540TIP3    H232112   1.245   3.095   3.113  1.4440 -0.0596  1.4900
 3541TIP3   OH232113   3.566   4.555  14.278 -0.1855  0.1140 -0.4441
 3541TIP3    H132114   3.553   4.604  14.197  0.7028  0.0482 -0.6303
 3541TIP3    H232115   3.551   4.464  14.254 -1.8674  0.2449 -0.0926
 3542TIP3   OH232116   1.331   4.489  14.449 -0.3193 -0.2750  0.5573
 3542TIP3    H132117   1.309   4.516  14.360 -0.7298 -0.4561  0.6050
 3542TIP3    H232118   1.252   4.505  14.500  0.2672  0.9096  1.1360
 3543TIP3   OH232119   2.175   5.469  11.451  0.1142  1.0220  0.0305
 3543TIP3    H132120   2.160   5.437  11.362  0.0701  3.4956 -0.9209
 3543TIP3    H232121   2.270   5.467  11.462  0.1270  0.8304 -0.1218
 3544TIP3   OH232122   4.432   4.878  17.290  0.7782 -0.2556  0.6340
 3544TIP3    H132123   4.420   4.950  17.352 -1.0039  0.5423 -0.5579
 3544TIP3    H232124   4.415   4.799  17.342 -2.3672  0.4547  0.8955
 3545TIP3   OH232125   1.547   1.334  15.331 -0.1722 -0.3044  0.3000
 3545TIP3    H132126   1.565   1.384  15.411 -0.0859 -0.5048  0.4080
 3545TIP3    H232127   1.543   1.399  15.262  0.9983 -0.2462  0.2639
 3546TIP3   OH232128   4.521   2.465   0.955  0.0219 -0.3543  0.4810
 3546TIP3    H132129   4.586   2.523   0.993  0.2574 -0.3738  0.1115
 3546TIP3    H232130   4.478   2.424   1.030 -0.2007  0.3548  0.7459
 3547TIP3   OH232131   0.762   1.085   3.086 -0.0382  0.0015  0.3819
 3547TIP3    H132132   0.675   1.047   3.074 -0.1656  0.9148 -1.9705
 3547TIP3    H232133   0.748   1.156   3.149 -0.9065 -0.0939  0.3104
 3548TIP3   OH232134   2.373   4.383   1.152  0.0070  0.4304  0.0214
 3548TIP3    H132135   2.282   4.394   1.178  0.5845 -0.4235  2.8414
 3548TIP3    H232136   2.408   4.320   1.216  1.9975 -1.1110 -2.4051
 3549TIP3   OH232137   4.373   2.009   1.284  0.1782 -0.5264 -0.3020
 3549TIP3    H132138   4.456   1.979   1.320  0.7952  1.7693  0.3428
 3549TIP3    H232139   4.376   2.105   1.293 -2.6006 -0.3883 -0.1384
 3550TIP3   OH232140   5.263   3.383  14.243 -0.5677 -0.0031  0.8986
 3550TIP3    H132141   5.198   3.406  14.310 -0.7837  1.2734  0.2795
 3550TIP3    H232142   5.291   3.467  14.207 -1.8392 -0.6683 -1.9018
 3551TIP3   OH232143   0.040   2.573   1.203 -0.8110  0.5424 -0.1470
 3551TIP3    H132144   0.004   2.644   1.257 -0.4697 -0.1852  1.0973
 3551TIP3    H232145   0.033   2.495   1.259  1.5604  0.1517 -0.2768
 3552TIP3   OH232146   3.717   6.695   6.126 -0.3247 -0.0133 -0.0189
 3552TIP3    H132147   3.695   6.651   6.208  2.7101  0.3393  1.1019
 3552TIP3    H232148   3.802   6.735   6.142 -0.0836  0.9442 -3.0439
 3553TIP3   OH232149   4.531   3.733  11.659 -0.8398  0.4109 -0.1631
 3553TIP3    H132150   4.503   3.644  11.679 -1.0330  0.4924 -0.0704
 3553TIP3    H232151   4.551   3.731  11.565  2.6379 -0.6708  0.4555
 3554TIP3   OH232152   4.661   2.554  16.205 -0.4285  0.0045 -0.0477
 3554TIP3    H132153   4.648   2.634  16.257 -0.8209  0.2268 -0.4683
 3554TIP3    H232154   4.643   2.483  16.266 -0.3697  0.2454  0.2570
 3555TIP3   OH232155   3.095   2.722   0.355  0.4430 -0.3168 -0.3715
 3555TIP3    H132156   3.026   2.691   0.297 -0.3898  1.1840 -0.2486
 3555TIP3    H232157   3.157   2.767   0.298  0.8481 -0.8580 -0.3666
 3556TIP3   OH232158   4.897   3.440  12.558  0.6338 -0.2014 -0.1906
 3556TIP3    H132159   4.887   3.522  12.511 -0.3073 -0.9679 -1.3882
 3556TIP3    H232160   4.980   3.405  12.527  1.2960  0.5311  0.7221
 3557TIP3   OH232161   3.125   3.835  13.877 -0.2734 -0.3687  0.7786
 3557TIP3    H132162   3.164   3.884  13.805 -1.1136  0.7122  1.0365
 3557TIP3    H232163   3.111   3.747  13.841 -3.0421  0.7794 -1.2930
 3558TIP3   OH232164   2.666   4.567  16.719  0.2273 -0.4179  0.1991
 3558TIP3    H132165   2.758   4.552  16.697 -0.1008  0.1378 -1.7446
 3558TIP3    H232166   2.619   4.501  16.668 -0.5220  0.0729  0.2517
 3559TIP3   OH232167   1.606   1.746  13.085  0.3654 -0.2972  0.1792
 3559TIP3    H132168   1.653   1.797  13.019  0.2090  0.0499  0.3329
 3559TIP3    H232169   1.622   1.655  13.061  0.9507 -0.1799  0.1118
 3560TIP3   OH232170   4.071   6.097   5.175 -0.4623  0.0255  0.4045
 3560TIP3    H132171   4.107   6.011   5.153  2.2802  0.7486  1.6385
 3560TIP3    H232172   4.094   6.152   5.100 -0.2702  0.1574  0.5587
 3561TIP3   OH232173   4.533   5.443   6.452  0.4040  0.9476  0.5820
 3561TIP3    H132174   4.529   5.379   6.381  1.8151 -0.7562  1.9243
 3561TIP3    H232175   4.541   5.527   6.409  0.8847 -0.0051 -1.2788
 3562TIP3   OH232176   5.890   6.722  12.427  0.7784 -0.3751 -0.0826
 3562TIP3    H132177   5.846   6.702  12.510  0.2546  0.8929 -0.0409
 3562TIP3    H232178   5.820   6.753  12.370  1.0165 -1.8661 -1.2456
 3563TIP3   OH232179   4.907   0.079   2.433 -0.6543 -0.1754  0.1785
 3563TIP3    H132180   4.901  -0.008   2.393  0.3775  0.0606 -0.5405
 3563TIP3    H232181   4.817   0.114   2.429 -0.9019 -0.8525 -0.3524
 3564TIP3   OH232182   2.339   3.037   0.349 -0.1683  0.3426  0.4095
 3564TIP3    H132183   2.335   3.118   0.298 -0.1905  0.4089  0.5160
 3564TIP3    H232184   2.281   2.977   0.303 -0.3633  0.4733  0.4787
 3565TIP3   OH232185   3.340   5.918   1.788 -0.0371  0.0116  0.2786
 3565TIP3    H132186   3.344   5.924   1.884  1.4817 -1.2410  0.3341
 3565TIP3    H232187   3.284   5.843   1.771 -0.3476  0.2645  0.1802
 3566TIP3   OH232188   1.610   6.485   0.759 -0.3114  0.5927 -0.6376
 3566TIP3    H132189   1.645   6.564   0.718  1.6048  1.2718  2.0296
 3566TIP3    H232190   1.628   6.496   0.853  2.1405 -3.9141 -0.2689
 3567TIP3   OH232191   5.999   4.072  11.655  0.3590  0.2049 -0.0404
 3567TIP3    H132192   5.991   4.005  11.723 -0.3586 -1.1607 -1.4109
 3567TIP3    H232193   5.954   4.148  11.692  2.6249  0.5790  2.2318
 3568TIP3   OH232194   2.505   4.393   1.884  0.1079  0.3829  0.0100
 3568TIP3    H132195   2.496   4.458   1.954 -0.6741  0.0554  0.2284
 3568TIP3    H232196   2.429   4.336   1.894 -1.1998  1.5373 -2.3848
 3569TIP3   OH232197   4.799   0.358   3.794  0.0038  0.5657  0.5347
 3569TIP3    H132198   4.723   0.403   3.832  0.6421 -0.1733  2.8678
 3569TIP3    H232199   4.850   0.428   3.753 -0.6914  1.4673  1.1525
 3570TIP3   OH232200   1.019   1.065  11.075 -0.0028  0.3322  0.2544
 3570TIP3    H132201   1.037   1.112  10.994 -1.6122  0.3526 -0.1402
 3570TIP3    H232202   0.925   1.044  11.069  0.3973 -1.8951  0.9451
 3571TIP3   OH232203   0.145   6.307   4.981  0.2754  0.4469  0.2353
 3571TIP3    H132204   0.148   6.222   5.026  2.3909  1.4324  2.1699
 3571TIP3    H232205   0.230   6.346   4.999 -0.5327  2.8800 -0.8671
 3572TIP3   OH232206   6.685   0.123  10.754  0.8728  0.1196  0.3334
 3572TIP3    H132207   6.658   0.039  10.790  0.7551 -0.3488 -0.8003
 3572TIP3    H232208   6.773   0.138  10.790  1.1751 -0.8263  0.0082
 3573TIP3   OH232209   0.678   0.670  15.184 -0.2717 -0.3586 -0.0297
 3573TIP3    H132210   0.752   0.653  15.126  0.1333 -0.1039  0.4044
 3573TIP3    H232211   0.715   0.724  15.254 -0.8471 -0.3168  0.2428
 3574TIP3   OH232212   0.323   6.350   5.218  0.5348  0.0574 -0.5245
 3574TIP3    H132213   0.342   6.264   5.256  2.5355  1.2187  1.3568
 3574TIP3    H232214   0.408   6.395   5.218 -0.7234  2.6117  0.1225
 3575TIP3   OH232215   4.140   2.299  14.773  0.4067  0.7778 -0.0039
 3575TIP3    H132216   4.081   2.361  14.815 -0.0449  2.1999 -2.5418
 3575TIP3    H232217   4.223   2.310  14.818 -0.3120  1.4122  1.2088
 3576TIP3   OH232218   4.617   1.408   1.197 -0.0765  0.2286  0.2827
 3576TIP3    H132219   4.671   1.424   1.120 -2.0921  0.8845 -1.0748
 3576TIP3    H232220   4.672   1.436   1.270  2.0124 -0.6933 -0.8385
 3577TIP3   OH232221   6.503   4.499  13.618  0.6222 -0.3051  0.7295
 3577TIP3    H132222   6.441   4.451  13.673 -0.3307  1.4028  1.1973
 3577TIP3    H232223   6.478   4.590  13.627  1.2132  0.1559 -1.6143
 3578TIP3   OH232224   2.474   6.291   5.082 -0.3091 -0.3400  0.0971
 3578TIP3    H132225   2.406   6.349   5.116  0.8964  2.0116 -1.2232
 3578TIP3    H232226   2.552   6.346   5.077  1.0932 -2.2909 -0.6372
 3579TIP3   OH232227   1.547   0.246   0.181  0.2124 -0.1913 -0.3836
 3579TIP3    H132228   1.495   0.290   0.114 -1.8486  0.7996  1.7334
 3579TIP3    H232229   1.628   0.221   0.136  0.5425  3.6783 -2.3687
 3580TIP3   OH232230   5.366   3.327   3.196  0.2731 -0.1813 -0.7955
 3580TIP3    H132231   5.419   3.359   3.123  0.8243 -0.0423 -0.3471
 3580TIP3    H232232   5.329   3.406   3.236  1.4025 -0.0841  0.1361
 3581TIP3   OH232233   2.403   5.785   3.205 -0.1737  0.1671 -0.0182
 3581TIP3    H132234   2.451   5.810   3.284  1.6080  1.5590 -1.4423
 3581TIP3    H232235   2.382   5.693   3.218  0.9530  0.0989  1.6457
 3582TIP3   OH232236   1.366   6.759   1.384 -0.0629  0.2271  0.6586
 3582TIP3    H132237   1.401   6.738   1.298  2.0425  0.3090  1.4307
 3582TIP3    H232238   1.271   6.752   1.374  0.1202  0.3290 -1.6634
 3583TIP3   OH232239   0.687   3.104  13.374  0.1622 -0.4560  0.4551
 3583TIP3    H132240   0.746   3.171  13.340 -0.3652 -0.0722  0.2868
 3583TIP3    H232241   0.642   3.069  13.297 -0.6507  0.0520  0.6834
 3584TIP3   OH232242   1.620   3.244   4.555 -0.2235 -0.2251  0.2205
 3584TIP3    H132243   1.633   3.278   4.643 -0.8391  4.0770 -1.1059
 3584TIP3    H232244   1.706   3.213   4.528  0.6531  1.1052  1.3621
 3585TIP3   OH232245   2.592   2.584   1.132 -0.0047  0.3681 -0.2126
 3585TIP3    H132246   2.586   2.511   1.195  2.0156  0.7103  0.4495
 3585TIP3    H232247   2.659   2.556   1.070 -0.0916  1.1573 -0.6661
 3586TIP3   OH232248   5.018   2.016  13.051  0.1615 -0.4793 -0.6025
 3586TIP3    H132249   5.078   2.013  12.976  0.9842  0.7434 -0.0319
 3586TIP3    H232250   4.933   1.995  13.014  0.5258  0.2524 -1.9280
 3587TIP3   OH232251   2.585   2.439   0.147  0.1936 -0.0094 -0.4380
 3587TIP3    H132252   2.673   2.477   0.153 -0.4100  1.1859  2.3454
 3587TIP3    H232253   2.595   2.352   0.187  0.1583  0.0464 -0.3069
 3588TIP3   OH232254   3.821   2.171   5.312 -0.3380  0.2977 -0.5572
 3588TIP3    H132255   3.737   2.215   5.327 -0.9225 -0.5184 -1.3558
 3588TIP3    H232256   3.834   2.177   5.218 -0.1383 -0.7285 -0.5990
 3589TIP3   OH232257   2.757   2.191   0.973 -0.5407  0.3255  0.3271
 3589TIP3    H132258   2.846   2.228   0.972 -0.7911  1.0435 -2.0935
 3589TIP3    H232259   2.761   2.122   1.039  2.7604 -1.8282 -1.8051
 3590TIP3   OH232260   0.958   2.105  16.610 -0.5738 -0.1683  0.5031
 3590TIP3    H132261   0.990   2.019  16.639  0.6770  0.5458  1.3562
 3590TIP3    H232262   1.009   2.168  16.661 -0.4858  1.1232 -1.0892
 3591TIP3   OH232263   4.328   2.345   2.425  0.1537  0.3181 -0.0373
 3591TIP3    H132264   4.420   2.329   2.445  0.0153 -0.4163  0.0305
 3591TIP3    H232265   4.297   2.401   2.497  0.4258  0.1859  0.1837
 3592TIP3   OH232266   6.755   5.820   2.071  0.0602 -0.6717 -0.1385
 3592TIP3    H132267   6.694   5.874   2.120 -0.2926 -1.1740 -0.0169
 3592TIP3    H232268   6.789   5.878   2.002 -1.3598 -0.6735 -0.8854
 3593TIP3   OH232269   5.642   1.357  11.389  0.1900 -0.3245  0.2539
 3593TIP3    H132270   5.614   1.444  11.362  1.4104  0.0396  0.0968
 3593TIP3    H232271   5.737   1.362  11.390  0.2513 -1.3167  1.3883
 3594TIP3   OH232272   1.229   0.652   0.596  0.3606 -1.0384  0.4932
 3594TIP3    H132273   1.218   0.673   0.689  2.3267  1.0616  0.3322
 3594TIP3    H232274   1.163   0.705   0.551  0.8034 -0.3957  0.5803
 3595TIP3   OH232275   4.312   3.530   2.902  0.1171  0.2988 -0.1029
 3595TIP3    H132276   4.258   3.604   2.927 -1.7033 -0.8899 -0.3745
 3595TIP3    H232277   4.310   3.471   2.977  0.2177 -0.2059 -0.4881
 3596TIP3   OH232278   1.078   0.358  17.384  0.8115 -1.0023 -0.9234
 3596TIP3    H132279   1.062   0.409  17.305  0.9052 -0.1232 -0.3861
 3596TIP3    H232280   1.113   0.421  17.447 -2.6895 -0.7539  1.0655
 3597TIP3   OH232281   5.240   4.308   5.261 -0.0167 -0.2710  0.1661
 3597TIP3    H132282   5.235   4.265   5.346 -0.8624  0.1840  0.3609
 3597TIP3    H232283   5.266   4.239   5.200 -2.1764 -1.2906  0.3136
 3598TIP3   OH232284   5.039   4.621  14.236 -0.5578 -0.8990  0.4879
 3598TIP3    H132285   5.118   4.639  14.286 -0.9932  1.3218  0.4764
 3598TIP3    H232286   5.002   4.544  14.277  2.9310 -3.7791 -1.1787
 3599TIP3   OH232287   6.286   4.014  13.407 -0.3162 -0.5471  0.0131
 3599TIP3    H132288   6.281   4.081  13.339  0.9745 -1.7861 -1.3815
 3599TIP3    H232289   6.280   4.063  13.489 -3.0578  0.9090 -0.9012
 3600TIP3   OH232290   6.667   4.032   1.758 -0.3115  0.2559 -0.2848
 3600TIP3    H132291   6.681   4.125   1.741 -0.6229  0.4834  0.6745
 3600TIP3    H232292   6.635   3.997   1.674  0.3326  0.8907 -0.8069
 3601TIP3   OH232293   2.718   5.253   4.725 -0.3450 -0.7683  0.0663
 3601TIP3    H132294   2.705   5.339   4.766  0.7727 -0.5577  0.0061
 3601TIP3    H232295   2.768   5.203   4.790 -1.0135 -1.3903  0.1122
 3602TIP3   OH232296   1.196   5.008  17.283 -0.4159  0.0892  0.8695
 3602TIP3    H132297   1.189   5.028  17.377 -1.2112  0.1009  0.8119
 3602TIP3    H232298   1.204   5.093  17.240 -1.0758  0.1421  0.8465
 3603TIP3   OH232299   6.721   3.669   1.423 -0.0555  0.1157  0.0281
 3603TIP3    H132300   6.735   3.749   1.372  0.7803  0.3043  0.5432
 3603TIP3    H232301   6.788   3.609   1.390 -0.9294 -0.5231 -0.6368
 3604TIP3   OH232302   4.878   3.642   2.907  0.4860  0.1570  0.0253
 3604TIP3    H132303   4.795   3.596   2.898  0.3121  0.1302  1.5847
 3604TIP3    H232304   4.857   3.733   2.885 -0.1486  0.2974  1.1140
 3605TIP3   OH232305   6.114   4.093   1.153 -0.8926  0.4191  0.3505
 3605TIP3    H132306   6.078   4.005   1.164  0.0473  0.2748  2.9606
 3605TIP3    H232307   6.162   4.089   1.070  0.6312 -2.1079  1.2369
 3606TIP3   OH232308   0.930   4.583  16.238  0.2638 -0.0215  0.1656
 3606TIP3    H132309   0.899   4.605  16.326 -0.0698  0.6885 -0.1235
 3606TIP3    H232310   0.971   4.497  16.248 -1.2710 -0.7257  0.6924
 3607TIP3   OH232311   1.486   3.245  17.198 -0.0398 -0.2052  0.0359
 3607TIP3    H132312   1.401   3.213  17.167 -1.9210  2.3595  2.1062
 3607TIP3    H232313   1.513   3.308  17.130 -0.7287  0.3155  0.2298
 3608TIP3   OH232314   2.691   3.181   3.583  0.1915  0.2238  0.5979
 3608TIP3    H132315   2.736   3.229   3.514  0.6473  2.3575  2.2713
 3608TIP3    H232316   2.598   3.191   3.562  0.3424  0.2482 -0.0733
 3609TIP3   OH232317   0.406   0.882  15.289  0.2555  0.0781  0.4805
 3609TIP3    H132318   0.375   0.966  15.322 -2.6464 -0.4437 -0.6200
 3609TIP3    H232319   0.407   0.892  15.194  2.2795 -0.4129  0.4067
 3610TIP3   OH232320   4.640   6.068   5.584  0.2699  0.9814  0.2875
 3610TIP3    H132321   4.617   6.121   5.508 -0.1074 -0.0322 -0.3233
 3610TIP3    H232322   4.579   6.095   5.653 -1.8900 -0.6484 -0.8774
 3611TIP3   OH232323   1.361   3.686   1.968  0.1644 -0.0684 -0.0484
 3611TIP3    H132324   1.454   3.673   1.948  0.1220 -0.4330 -0.0037
 3611TIP3    H232325   1.331   3.747   1.900  0.3320 -0.2850 -0.3202
 3612TIP3   OH232326   2.769   3.504   4.014  0.4513 -0.3195 -0.1046
 3612TIP3    H132327   2.744   3.592   3.986 -0.3324 -0.3325  0.4941
 3612TIP3    H232328   2.742   3.500   4.106  1.3722 -0.8553  0.1562
 3613TIP3   OH232329   3.471   2.733  11.506 -0.6102 -0.4784  0.1819
 3613TIP3    H132330   3.397   2.789  11.528 -1.2129 -0.8571 -0.8239
 3613TIP3    H232331   3.533   2.746  11.578 -1.9628 -0.7411  1.4448
 3614TIP3   OH232332   2.512   3.097   5.299  0.1964  0.2848 -0.2454
 3614TIP3    H132333   2.500   3.065   5.210 -0.0030 -1.2016  0.2942
 3614TIP3    H232334   2.498   3.020   5.354 -0.7104  1.3876  1.1303
 3615TIP3   OH232335   1.429   3.756  13.065 -0.1449  0.7968  0.8586
 3615TIP3    H132336   1.426   3.788  13.156  1.3136  1.6946  0.6051
 3615TIP3    H232337   1.522   3.742  13.047 -0.5681 -2.6138  0.5700
 3616TIP3   OH232338   4.199   5.174   4.264  0.1694 -0.5059 -0.3046
 3616TIP3    H132339   4.115   5.217   4.283 -0.0394 -1.2185  0.4170
 3616TIP3    H232340   4.264   5.242   4.279 -0.1239 -0.5505  1.3139
 3617TIP3   OH232341   5.667   6.182   6.320  0.0107  0.1264 -0.7282
 3617TIP3    H132342   5.652   6.275   6.306 -0.0086  0.3179  0.5305
 3617TIP3    H232343   5.740   6.160   6.262  1.6681  1.4611  0.7872
 3618TIP3   OH232344   5.122   0.586   2.690 -0.4232 -0.8330 -0.2518
 3618TIP3    H132345   5.070   0.506   2.684 -0.5016 -1.0730  2.2845
 3618TIP3    H232346   5.212   0.558   2.674 -0.5234 -1.3477  0.0617
 3619TIP3   OH232347   2.327   1.705   3.075 -0.4219 -0.2352  0.0515
 3619TIP3    H132348   2.404   1.692   3.130 -1.0651  1.2719  1.3595
 3619TIP3    H232349   2.328   1.798   3.053 -1.8767 -0.1794  0.1296
 3620TIP3   OH232350   2.585   0.169  11.511  0.0341 -0.1626  0.8482
 3620TIP3    H132351   2.614   0.205  11.427 -2.1411  1.0802  0.5706
 3620TIP3    H232352   2.511   0.223  11.536 -0.5916 -1.7456  2.6314
 3621TIP3   OH232353   3.842   3.062   0.634  0.6271 -0.4290  0.0895
 3621TIP3    H132354   3.805   3.021   0.712 -0.0746  0.7707  0.4124
 3621TIP3    H232355   3.927   3.096   0.662  1.2588 -1.6720 -0.2051
 3622TIP3   OH232356   2.309   6.756  16.664 -0.4173 -0.2856 -0.5349
 3622TIP3    H132357   2.249   6.824  16.632  0.5888  0.8074 -0.1714
 3622TIP3    H232358   2.292   6.753  16.758 -0.6880 -0.7791 -0.5979
 3623TIP3   OH232359   3.417   2.399   1.188 -0.1461  0.7113  0.0667
 3623TIP3    H132360   3.322   2.402   1.179  0.0274  2.8453 -2.2864
 3623TIP3    H232361   3.450   2.438   1.107  2.7970 -1.0620  0.2821
 3624TIP3   OH232362   4.315   6.736  11.278 -0.3501  0.7017  0.2594
 3624TIP3    H132363   4.260   6.719  11.202  0.6100  0.5183 -0.4092
 3624TIP3    H232364   4.286   6.672  11.343 -1.1671  0.8525  0.0618
 3625TIP3   OH232365   5.275   2.826  13.505  0.1035  0.0143  0.0049
 3625TIP3    H132366   5.218   2.854  13.576  0.8231 -0.2531  0.6997
 3625TIP3    H232367   5.359   2.805  13.547  0.6703  0.2367 -0.9688
 3626TIP3   OH232368   3.677   4.432   5.713  0.3093 -0.0107 -0.1417
 3626TIP3    H132369   3.706   4.343   5.693  0.3197  0.0316 -0.3148
 3626TIP3    H232370   3.754   4.474   5.752  0.9651  0.5499 -1.9305
 3627TIP3   OH232371   0.235   1.166   2.462 -0.1972  0.3928  0.6965
 3627TIP3    H132372   0.229   1.127   2.375  0.9623  1.4457  0.1270
 3627TIP3    H232373   0.162   1.227   2.466 -0.3344  0.2422  0.5171
 3628TIP3   OH232374   2.909   2.836   3.415  1.0954  0.2748 -0.5960
 3628TIP3    H132375   2.851   2.851   3.490  1.5239 -0.0949 -0.1857
 3628TIP3    H232376   2.981   2.784   3.450  2.7174  2.3616 -0.6370
 3629TIP3   OH232377   2.478   2.130  13.051  0.1363 -0.2643  0.1890
 3629TIP3    H132378   2.477   2.036  13.070 -1.4388  0.0146  1.7652
 3629TIP3    H232379   2.485   2.171  13.137 -3.0309  1.0649 -0.0821
 3630TIP3   OH232380   1.998   4.288  16.237  0.1780 -0.0117 -0.2453
 3630TIP3    H132381   1.943   4.279  16.159 -1.0686  1.8745  0.3423
 3630TIP3    H232382   1.946   4.250  16.308 -0.2754  1.4760  0.2550
 3631TIP3   OH232383   2.182   6.706  12.939 -0.0247 -0.2263  0.3017
 3631TIP3    H132384   2.170   6.615  12.965 -0.3183 -0.2889 -0.0383
 3631TIP3    H232385   2.204   6.701  12.845 -1.1281  0.1093  0.0099
 3632TIP3   OH232386   4.585   4.508  12.259  0.0734  0.3510 -0.0330
 3632TIP3    H132387   4.621   4.482  12.174 -0.0321  0.9270 -0.2543
 3632TIP3    H232388   4.538   4.589  12.241  1.0822  1.1455  0.7966
 3633TIP3   OH232389   0.207   0.792   2.161 -0.2899  0.0055  0.5984
 3633TIP3    H132390   0.138   0.744   2.208 -1.4858 -1.2687 -2.2455
 3633TIP3    H232391   0.236   0.733   2.092  1.9022  1.4960  0.1348
 3634TIP3   OH232392   0.877   4.014  15.436 -0.4673 -0.4463 -0.4732
 3634TIP3    H132393   0.786   4.033  15.411  0.4369  2.6885 -1.8296
 3634TIP3    H232394   0.879   4.028  15.530 -1.0350  1.2875 -0.6909
 3635TIP3   OH232395   3.595   0.187   5.598  0.3509 -0.1926  0.3260
 3635TIP3    H132396   3.528   0.236   5.551  0.3389 -1.0210 -0.5599
 3635TIP3    H232397   3.552   0.104   5.622  0.5513 -0.0364  1.2469
 3636TIP3   OH232398   2.919   5.346  14.750 -0.4646 -0.2455 -0.1405
 3636TIP3    H132399   3.001   5.396  14.748  0.7683 -2.1968 -0.5544
 3636TIP3    H232400   2.897   5.339  14.843  1.3588 -1.9933  0.2323
 3637TIP3   OH232401   3.581   4.540   1.820  0.1391  0.0500 -0.8108
 3637TIP3    H132402   3.523   4.513   1.748  0.8718  1.1077 -1.8221
 3637TIP3    H232403   3.530   4.606   1.867  1.7547  4.0553 -4.0307
 3638TIP3   OH232404   4.198   4.667   1.643  0.1263  0.0509  0.4012
 3638TIP3    H132405   4.117   4.637   1.602 -0.3937 -0.9106  2.0505
 3638TIP3    H232406   4.185   4.653   1.736  1.9843  0.4216  0.7677
 3639TIP3   OH232407   0.220   2.216  15.098  0.0967 -0.6849  0.0386
 3639TIP3    H132408   0.165   2.257  15.164 -0.2488  0.2692 -0.8257
 3639TIP3    H232409   0.298   2.188  15.146  1.0356  2.3080  0.4627
 3640TIP3   OH232410   0.318   1.974   0.068 -0.8689  0.1602  0.2142
 3640TIP3    H132411   0.271   1.913   0.012 -0.5308 -0.6540  0.7988
 3640TIP3    H232412   0.403   1.987   0.024 -1.4780  1.3814 -0.6725
 3641TIP3   OH232413   3.790   6.068  14.505 -1.0799  0.3072  0.5290
 3641TIP3    H132414   3.868   6.046  14.454 -1.5307 -1.1375  0.4024
 3641TIP3    H232415   3.775   6.161  14.490 -0.6673  0.1092 -1.2245
 3642TIP3   OH232416   3.440   3.192   3.781  0.2226  0.0260  0.5583
 3642TIP3    H132417   3.391   3.119   3.819 -0.8057  1.2160  1.5964
 3642TIP3    H232418   3.379   3.234   3.721  0.1559  1.0954  1.3329
 3643TIP3   OH232419   5.779   6.179   5.457 -0.1476  0.5255 -0.4149
 3643TIP3    H132420   5.694   6.162   5.498  0.4350 -1.4543  0.0932
 3643TIP3    H232421   5.764   6.256   5.402 -2.5283 -0.3271 -1.1125
 3644TIP3   OH232422   4.068   2.177   0.175  0.3224 -0.1769  0.1813
 3644TIP3    H132423   4.004   2.144   0.238  0.4120 -0.8033 -0.0450
 3644TIP3    H232424   4.015   2.211   0.103  0.2296 -0.1995  0.2386
 3645TIP3   OH232425   5.450   4.292   2.919 -0.8184 -0.3977  0.1098
 3645TIP3    H132426   5.426   4.212   2.872 -1.3707 -0.1704  0.0033
 3645TIP3    H232427   5.369   4.343   2.923 -0.4631  0.1671  0.1597
 3646TIP3   OH232428   4.911   2.497  15.573 -0.4625 -0.3108  0.1325
 3646TIP3    H132429   4.854   2.571  15.554  1.2944  0.9131 -0.6875
 3646TIP3    H232430   4.863   2.421  15.541 -1.5449  0.6918 -0.7105
 3647TIP3   OH232431   0.516   3.521  11.662 -0.6133  0.0714 -0.4362
 3647TIP3    H132432   0.446   3.490  11.604  0.1731 -0.5683 -1.0871
 3647TIP3    H232433   0.472   3.573  11.728 -1.6614 -0.0181 -1.0404
 3648TIP3   OH232434   3.559   5.431  11.262 -0.1037 -0.4016  0.2398
 3648TIP3    H132435   3.488   5.493  11.278 -1.4695 -1.9392  0.4183
 3648TIP3    H232436   3.584   5.446  11.171 -0.5454  0.2682  0.2204
 3649TIP3   OH232437   2.267   6.255  12.309  0.0636  0.1254 -0.8981
 3649TIP3    H132438   2.277   6.174  12.360 -1.0085  0.0731 -0.7404
 3649TIP3    H232439   2.267   6.325  12.375 -2.0345  0.0061 -0.7026
 3650TIP3   OH232440   4.392   0.508  15.726 -0.6504  0.0260 -0.0111
 3650TIP3    H132441   4.446   0.587  15.729  0.5912 -0.8260  1.2159
 3650TIP3    H232442   4.302   0.541  15.727 -0.1657  1.4292 -0.0553
 3651TIP3   OH232443   2.054   5.733  11.145 -0.2963  0.4792 -0.7190
 3651TIP3    H132444   2.084   5.655  11.099  2.2947  0.9027  0.1155
 3651TIP3    H232445   2.084   5.720  11.235 -1.1255  1.8022 -0.2257
 3652TIP3   OH232446   2.585   0.067  10.635 -0.1775  0.1800  0.1798
 3652TIP3    H132447   2.633   0.004  10.580 -2.0061 -1.6385  0.5321
 3652TIP3    H232448   2.612   0.153  10.603  1.8326 -0.7795 -0.8617
 3653TIP3   OH232449   4.231   3.252   6.216  0.3691 -0.4446  0.2646
 3653TIP3    H132450   4.213   3.332   6.265  0.0712 -0.0970 -0.4009
 3653TIP3    H232451   4.245   3.281   6.126 -1.7253 -1.3134 -0.4094
 3654TIP3   OH232452   1.057   6.509  14.788  0.2053 -0.5472 -0.8738
 3654TIP3    H132453   1.116   6.520  14.862 -1.3318 -0.1131  0.3323
 3654TIP3    H232454   1.020   6.421  14.798 -1.3296  0.1456 -0.0736
 3655TIP3   OH232455   2.654   4.565  13.267  0.0598 -0.1304 -0.0783
 3655TIP3    H132456   2.655   4.556  13.171 -2.5313 -2.1437 -0.0221
 3655TIP3    H232457   2.701   4.488  13.298  0.1873  0.0957  0.2914
 3656TIP3   OH232458   3.556   4.205  14.390 -0.0031  0.0281  0.0918
 3656TIP3    H132459   3.479   4.234  14.341 -1.6978 -2.3168  1.1317
 3656TIP3    H232460   3.582   4.123  14.348  0.2531 -0.5694  1.3633
 3657TIP3   OH232461   2.284   5.055  15.893  0.1766 -0.4358 -0.3267
 3657TIP3    H132462   2.299   5.063  15.987  0.8236 -0.5824 -0.4077
 3657TIP3    H232463   2.360   5.006  15.861  0.7943  0.9688 -1.1525
 3658TIP3   OH232464   4.768   5.777   2.862 -0.5395  0.2076  0.2610
 3658TIP3    H132465   4.856   5.746   2.842 -0.2971  0.9842  0.0797
 3658TIP3    H232466   4.725   5.784   2.776 -0.4935  0.6471  0.2710
 3659TIP3   OH232467   4.587   0.085   0.953 -0.3364 -0.0415 -0.4288
 3659TIP3    H132468   4.662   0.034   0.921 -0.2238 -0.4629  0.4807
 3659TIP3    H232469   4.621   0.136   1.025 -0.5807  0.9474 -0.9999
 3660TIP3   OH232470   0.986   0.381  15.299 -0.1135 -0.3391 -0.2423
 3660TIP3    H132471   1.044   0.308  15.321 -0.3338 -0.0742  1.3409
 3660TIP3    H232472   0.963   0.366  15.207  1.5916 -1.0322 -0.6066
 3661TIP3   OH232473   6.511   3.272  14.248 -0.0565  0.0718  0.2724
 3661TIP3    H132474   6.491   3.349  14.194 -1.2765 -0.3697  0.0654
 3661TIP3    H232475   6.510   3.304  14.338  1.6825  0.7518  0.0847
 3662TIP3   OH232476   6.391   2.368   0.303  0.5370  0.0579  0.5087
 3662TIP3    H132477   6.360   2.318   0.378 -1.0070  0.7895  0.3941
 3662TIP3    H232478   6.472   2.324   0.276 -0.6149 -2.2247  0.5554
 3663TIP3   OH232479   5.865   0.173  12.698 -0.5544  0.0591 -0.4629
 3663TIP3    H132480   5.846   0.081  12.716  1.3280 -0.3761 -0.4713
 3663TIP3    H232481   5.795   0.221  12.741 -0.9490 -1.3353  0.5091
 3664TIP3   OH232482   4.305   5.182   2.975 -0.0707 -0.1660 -0.0308
 3664TIP3    H132483   4.333   5.127   2.901 -0.0831 -0.5967  0.2812
 3664TIP3    H232484   4.274   5.263   2.934  0.9164  0.0255 -0.4339
 3665TIP3   OH232485   3.112   5.407   0.786 -0.0145 -0.4922  0.1709
 3665TIP3    H132486   3.025   5.370   0.803 -1.2093  1.7947 -0.5056
 3665TIP3    H232487   3.171   5.360   0.845 -1.7383 -1.9477  0.8123
 3666TIP3   OH232488   6.426   3.707  15.552 -0.0533  0.4665 -0.2621
 3666TIP3    H132489   6.414   3.669  15.639 -2.4787  0.3170 -0.5795
 3666TIP3    H232490   6.511   3.675  15.523  0.7588  0.4458  2.0014
 3667TIP3   OH232491   1.120   1.993  13.267  0.0483 -0.1031  0.0199
 3667TIP3    H132492   1.171   2.070  13.240 -0.2124  0.1116  0.1372
 3667TIP3    H232493   1.186   1.924  13.276  0.2445  0.0183 -0.4035
 3668TIP3   OH232494   0.835   4.119   0.265  0.0338  0.1342  1.1541
 3668TIP3    H132495   0.818   4.088   0.354 -1.6917  0.5867  1.0081
 3668TIP3    H232496   0.925   4.153   0.269  0.2521 -0.5425  2.5148
 3669TIP3   OH232497   2.168   0.584  17.194 -0.2143 -0.1960 -0.1663
 3669TIP3    H132498   2.157   0.499  17.236  2.8314  0.1555  1.7204
 3669TIP3    H232499   2.116   0.644  17.247 -0.6328 -0.5530 -0.1682
 3670TIP3   OH232500   5.847   2.204  12.785 -0.0293 -0.4096  0.1853
 3670TIP3    H132501   5.785   2.185  12.714  1.2415  1.0222 -1.3991
 3670TIP3    H232502   5.893   2.121  12.799 -0.1748 -0.6737 -0.8004
 3671TIP3   OH232503   4.608   5.344   5.660  0.3952  0.4916  0.1642
 3671TIP3    H132504   4.691   5.310   5.692 -0.8310 -2.1289  0.8654
 3671TIP3    H232505   4.593   5.299   5.577 -0.2974  0.9709  0.0124
 3672TIP3   OH232506   5.194   0.588   3.662  0.0488  0.4948 -0.1560
 3672TIP3    H132507   5.120   0.539   3.697  0.7301  0.9224  2.0709
 3672TIP3    H232508   5.155   0.667   3.625 -0.7521 -0.1393 -0.6839
 3673TIP3   OH232509   5.612   3.523   3.192  0.1730 -0.0028 -0.2014
 3673TIP3    H132510   5.594   3.461   3.121 -0.5946 -1.2773  1.0514
 3673TIP3    H232511   5.703   3.503   3.218  0.5040  0.5626 -0.8892
 3674TIP3   OH232512   0.174   2.435  12.088  0.0898  0.0255  0.2921
 3674TIP3    H132513   0.157   2.438  11.994 -0.3788 -0.3963  0.3624
 3674TIP3    H232514   0.157   2.524  12.119 -2.5672 -0.4706  0.4509
 3675TIP3   OH232515   5.506   1.815   4.975  0.3094  0.1315 -0.4059
 3675TIP3    H132516   5.456   1.837   4.897 -1.5218  0.2894  0.7602
 3675TIP3    H232517   5.490   1.887   5.035  2.2979  0.3934 -0.0998
 3676TIP3   OH232518   6.624   0.898  15.387  0.2931  0.0906  0.0194
 3676TIP3    H132519   6.560   0.835  15.355 -1.2570  1.1639  0.8692
 3676TIP3    H232520   6.579   0.982  15.384  1.5332  0.8310  0.9944
 3677TIP3   OH232521   5.114   2.745   2.022  0.1106 -0.0300  0.0994
 3677TIP3    H132522   5.076   2.711   2.102  0.2594 -0.6590 -0.0927
 3677TIP3    H232523   5.108   2.840   2.031 -0.4518 -0.1056  0.5726
 3678TIP3   OH232524   4.862   3.468   4.435  0.3903 -0.4540 -0.4101
 3678TIP3    H132525   4.887   3.407   4.504  1.0315  2.2807  1.9923
 3678TIP3    H232526   4.945   3.505   4.405 -0.0394 -0.0092 -1.0750
 3679TIP3   OH232527   5.860   1.411  11.036 -0.3403 -0.2858 -0.5903
 3679TIP3    H132528   5.801   1.351  10.991 -0.2941  0.0889 -1.1614
 3679TIP3    H232529   5.898   1.464  10.966  2.2451 -1.8408 -0.4906
 3680TIP3   OH232530   5.936   2.533   0.504  0.1810 -0.0627 -0.5805
 3680TIP3    H132531   5.939   2.503   0.595 -2.3325  2.4250  0.4621
 3680TIP3    H232532   5.962   2.625   0.508  1.7328 -0.3198 -2.7149
 3681TIP3   OH232533   0.550   4.876  15.715 -0.5034  0.4599  0.7642
 3681TIP3    H132534   0.458   4.881  15.691 -0.7281 -0.1518  1.4852
 3681TIP3    H232535   0.552   4.825  15.796  0.3994  1.1146  1.1745
 3682TIP3   OH232536   1.931   5.830   1.933  0.3163  0.2360  0.3309
 3682TIP3    H132537   1.902   5.920   1.943 -0.2258 -0.1477  2.6434
 3682TIP3    H232538   1.964   5.826   1.843  0.1704  2.6629  0.0979
 3683TIP3   OH232539   5.771   0.954  13.928 -0.1149 -0.5865 -0.0988
 3683TIP3    H132540   5.791   0.870  13.970  1.4321 -1.1123 -1.7548
 3683TIP3    H232541   5.712   0.932  13.856  1.4190 -0.5291 -1.4309
 3684TIP3   OH232542   2.400   4.068  15.225 -0.5591 -0.0172 -0.2348
 3684TIP3    H132543   2.491   4.042  15.238 -0.7895 -1.0656 -0.6316
 3684TIP3    H232544   2.350   4.005  15.277 -1.1282 -0.2394 -1.0464
 3685TIP3   OH232545   2.209   3.975   5.494 -0.1620  0.0193  0.0387
 3685TIP3    H132546   2.159   3.894   5.489 -0.4634  0.2454 -0.8242
 3685TIP3    H232547   2.243   3.987   5.405  4.7512 -2.2058  1.2638
 3686TIP3   OH232548   6.745   0.118   0.286 -0.0597  0.4218  0.1918
 3686TIP3    H132549   6.834   0.117   0.249 -0.0597  0.9246  0.1781
 3686TIP3    H232550   6.699   0.049   0.237 -0.0871  1.1341 -0.8208
 3687TIP3   OH232551   1.437   0.450  12.142 -0.6316  0.0446  0.1520
 3687TIP3    H132552   1.498   0.521  12.162  0.6983 -1.4717  1.8250
 3687TIP3    H232553   1.438   0.395  12.219  0.2923 -3.1325 -1.9363
 3688TIP3   OH232554   5.438   6.734  16.300 -0.2046  0.0950  0.1868
 3688TIP3    H132555   5.345   6.714  16.283 -0.4220 -0.5623  1.9151
 3688TIP3    H232556   5.468   6.661  16.354  0.7282  1.3702  1.4712
 3689TIP3   OH232557   2.661   6.463   6.288  0.1661 -0.0615  0.3910
 3689TIP3    H132558   2.567   6.476   6.300 -0.0426 -0.2315 -0.9645
 3689TIP3    H232559   2.699   6.548   6.309 -0.5972  0.9521 -1.9678
 3690TIP3   OH232560   6.099   1.700  16.221 -0.0466 -0.2770  0.0097
 3690TIP3    H132561   6.095   1.628  16.283  1.3175 -0.4617 -0.1022
 3690TIP3    H232562   6.046   1.671  16.147  0.8268 -1.3485 -0.2085
 3691TIP3   OH232563   3.003   3.070  17.232 -0.2959 -0.1973 -0.6644
 3691TIP3    H132564   2.993   3.016  17.310  1.0809  0.8720  0.2945
 3691TIP3    H232565   3.044   3.151  17.263  1.7605 -0.3491 -2.6979
 3692TIP3   OH232566   5.574   1.379   0.846 -0.1567  0.4161 -0.3954
 3692TIP3    H132567   5.530   1.417   0.922 -0.1564 -0.0318 -0.1717
 3692TIP3    H232568   5.564   1.285   0.856  1.8145  0.2280  0.2643
 3693TIP3   OH232569   5.314   4.045  12.295  0.6242  0.2895  0.0371
 3693TIP3    H132570   5.232   4.095  12.289  0.3954 -0.1360 -0.4208
 3693TIP3    H232571   5.369   4.079  12.225  0.2650 -0.4581 -0.6237
 3694TIP3   OH232572   4.749   1.638  14.685 -0.1448 -0.6892 -0.0161
 3694TIP3    H132573   4.666   1.593  14.671  1.3798 -2.9493 -2.7649
 3694TIP3    H232574   4.756   1.698  14.610  0.6713 -0.5226  0.1885
 3695TIP3   OH232575   4.345   1.275  12.505 -0.2485 -0.1343 -0.2389
 3695TIP3    H132576   4.252   1.287  12.524 -0.5733 -1.3807 -0.9165
 3695TIP3    H232577   4.351   1.185  12.472  1.1635  0.0082 -0.4287
 3696TIP3   OH232578   1.672   6.205   4.039  0.3862 -0.1584  0.7938
 3696TIP3    H132579   1.636   6.165   3.959 -0.0223  2.6917 -0.5981
 3696TIP3    H232580   1.765   6.184   4.036  0.5346  0.5636 -0.9284
 3697TIP3   OH232581   1.273   4.482   4.234  0.1853 -0.0847 -0.0992
 3697TIP3    H132582   1.306   4.433   4.309 -0.9382  1.8098  1.7545
 3697TIP3    H232583   1.180   4.494   4.253 -0.3870 -0.5029 -2.3938
 3698TIP3   OH232584   5.994   1.115   0.938 -0.0304  0.1206  0.4473
 3698TIP3    H132585   5.995   1.039   0.880  1.5281 -0.9457  1.7666
 3698TIP3    H232586   5.906   1.115   0.976  0.0346 -1.2518  0.6665
 3699TIP3   OH232587   5.266   5.333   3.632 -0.7960  0.0754 -0.2501
 3699TIP3    H132588   5.195   5.384   3.593 -1.0612  0.1604  0.3276
 3699TIP3    H232589   5.341   5.348   3.574 -0.9955  0.7551 -0.3469
 3700TIP3   OH232590   4.965   0.089   0.627  0.3725  1.0041 -0.4240
 3700TIP3    H132591   5.040   0.047   0.668  1.3039  1.2548 -1.8083
 3700TIP3    H232592   4.919   0.018   0.581  0.8193  1.1414 -1.1012
 3701TIP3   OH232593   2.187   6.024   1.705 -0.3009  0.1046  0.1040
 3701TIP3    H132594   2.121   5.982   1.650 -0.8188  1.3581 -0.2699
 3701TIP3    H232595   2.240   5.952   1.738 -2.1800 -1.0147  0.8480
 3702TIP3   OH232596   4.685   6.478  14.492 -0.1611  0.0993 -0.9927
 3702TIP3    H132597   4.744   6.486  14.418 -0.4117 -0.0735 -1.2145
 3702TIP3    H232598   4.640   6.562  14.497  0.1891  0.2754 -0.7457
 3703TIP3   OH232599   1.935   2.283   5.429  0.0779 -0.1196 -0.1265
 3703TIP3    H132600   1.962   2.204   5.477  0.3645  0.0255 -0.0477
 3703TIP3    H232601   1.932   2.352   5.495  1.4025  0.2994 -0.4672
 3704TIP3   OH232602   3.391   1.582   6.032  0.3107 -0.5559  0.1071
 3704TIP3    H132603   3.400   1.626   6.117 -0.4567 -1.4479  0.6654
 3704TIP3    H232604   3.364   1.651   5.972 -0.8557 -0.2373  0.9612
 3705TIP3   OH232605   2.830   0.206   2.188  0.1513 -0.0894 -0.4925
 3705TIP3    H132606   2.884   0.127   2.178 -0.8779 -1.0905  1.5007
 3705TIP3    H232607   2.768   0.201   2.116  0.0593 -1.1389 -0.3574
 3706TIP3   OH232608   3.473   2.406   3.510 -0.8062 -0.0169 -0.6333
 3706TIP3    H132609   3.553   2.376   3.467 -0.5824  1.0606 -0.9884
 3706TIP3    H232610   3.456   2.339   3.577 -1.0853 -1.6434 -2.2555
 3707TIP3   OH232611   3.321   4.803  15.903 -0.0937 -0.2359  0.0809
 3707TIP3    H132612   3.306   4.841  15.817 -1.2695  0.3125  0.5106
 3707TIP3    H232613   3.360   4.717  15.885  0.9596  0.4395 -0.9442
 3708TIP3   OH232614   0.032   4.906  12.491  0.2667  0.3079  0.2979
 3708TIP3    H132615   0.074   4.881  12.409  1.2032  1.4520  0.4035
 3708TIP3    H232616   0.096   4.883  12.559 -0.1897  0.0499  0.6450
 3709TIP3   OH232617   1.839   4.318  14.738 -0.0818 -0.0337  0.1164
 3709TIP3    H132618   1.881   4.382  14.795 -2.1901  0.3810  1.3082
 3709TIP3    H232619   1.905   4.249  14.727  0.1276 -0.6664  3.9748
 3710TIP3   OH232620   4.839   5.790   3.482  0.2525 -0.3495  0.0923
 3710TIP3    H132621   4.851   5.704   3.522 -2.2678 -1.2172 -0.7997
 3710TIP3    H232622   4.779   5.835   3.542 -1.7619 -0.8325 -1.4436
 3711TIP3   OH232623   0.475   4.535   4.380 -0.0273  0.3399  0.2384
 3711TIP3    H132624   0.436   4.605   4.431  0.1875  0.2415  0.5373
 3711TIP3    H232625   0.494   4.465   4.443  0.3002  0.2462  0.0435
 3712TIP3   OH232626   6.549   2.300   1.763 -0.3305  0.0086  0.3157
 3712TIP3    H132627   6.605   2.376   1.744 -0.1956 -0.2787 -0.4857
 3712TIP3    H232628   6.487   2.296   1.690  0.9357 -1.8147 -0.7556
 3713TIP3   OH232629   0.756   4.706  14.223  0.3639  0.0387  0.1754
 3713TIP3    H132630   0.737   4.670  14.137 -0.2989 -0.3513  0.4750
 3713TIP3    H232631   0.802   4.788  14.206  1.8540 -0.9037 -0.5264
 3714TIP3   OH232632   1.222   1.154   0.282 -0.0703  0.3198 -0.6190
 3714TIP3    H132633   1.156   1.111   0.336  0.4488 -0.1202 -0.3257
 3714TIP3    H232634   1.204   1.248   0.292 -1.5770  0.1846 -1.7325
 3715TIP3   OH232635   2.626   5.027  17.173 -0.1968 -0.3561 -0.4244
 3715TIP3    H132636   2.676   4.978  17.107 -1.7901 -1.3493 -0.9687
 3715TIP3    H232637   2.633   4.975  17.253  1.1604  0.4866  0.0277
 3716TIP3   OH232638   0.231   1.868  13.774 -0.8716  0.1872  0.1377
 3716TIP3    H132639   0.286   1.819  13.713 -1.1946  0.2207 -0.1827
 3716TIP3    H232640   0.156   1.810  13.791 -1.8320  0.9940 -1.1213
 3717TIP3   OH232641   2.991   6.508   6.452  0.2562 -0.0277 -0.2341
 3717TIP3    H132642   3.081   6.517   6.484  0.0413 -0.4767  0.5203
 3717TIP3    H232643   2.938   6.505   6.531 -0.4570  0.5498 -0.6887
 3718TIP3   OH232644   2.853   3.537  11.963 -0.2573 -0.0875 -0.3385
 3718TIP3    H132645   2.824   3.475  12.030  1.5461 -1.0396 -0.3862
 3718TIP3    H232646   2.901   3.484  11.900 -0.8168  1.0022 -1.7306
 3719TIP3   OH232647   1.466   4.343   4.863 -0.4691  0.1565  0.5254
 3719TIP3    H132648   1.502   4.271   4.915 -2.4374 -2.0408 -0.9444
 3719TIP3    H232649   1.542   4.390   4.831  0.9581 -1.8025  0.8672
 3720TIP3   OH232650   3.843   6.469  14.594  0.4712  0.2488 -0.2710
 3720TIP3    H132651   3.879   6.558  14.602  0.5266  0.1636  0.5036
 3720TIP3    H232652   3.860   6.445  14.502  0.2827  1.1048 -0.5392
 3721TIP3   OH232653   0.813   1.468   5.014  0.2264 -0.2702 -0.2594
 3721TIP3    H132654   0.817   1.398   4.950  0.2906 -0.2952 -0.2280
 3721TIP3    H232655   0.748   1.529   4.979  1.6628  0.6939 -1.3216
 3722TIP3   OH232656   4.812   4.904  14.449  0.0647  0.5286 -1.1286
 3722TIP3    H132657   4.768   4.967  14.392 -0.6976  1.0681  0.0313
 3722TIP3    H232658   4.896   4.946  14.469 -0.0109  0.7134 -1.1906
 3723TIP3   OH232659   5.825   4.420  16.941  0.4031  0.1868  0.1734
 3723TIP3    H132660   5.753   4.482  16.935  0.2900  0.3468  2.5212
 3723TIP3    H232661   5.783   4.336  16.957  0.6419 -0.2608 -1.3685
 3724TIP3   OH232662   5.951   1.157  17.196 -0.7053 -0.0494  0.2896
 3724TIP3    H132663   5.885   1.191  17.256 -0.5844 -0.2422  0.5354
 3724TIP3    H232664   5.942   1.210  17.117 -0.4193  0.6443  0.7140
 3725TIP3   OH232665   6.518   0.488   5.145  0.4681  0.2256 -0.3312
 3725TIP3    H132666   6.463   0.557   5.182 -0.2083 -0.7395  0.5059
 3725TIP3    H232667   6.458   0.416   5.127  1.3018 -0.4857 -0.3209
 3726TIP3   OH232668   0.183   4.211  16.360 -0.2162  0.2579  0.0009
 3726TIP3    H132669   0.170   4.238  16.269  0.4772  1.1650  0.1612
 3726TIP3    H232670   0.186   4.116  16.356 -0.8076  0.2593 -0.8406
 3727TIP3   OH232671   5.864   1.335  10.712 -0.1361  0.1135  0.0108
 3727TIP3    H132672   5.902   1.410  10.758 -1.1906  0.7045 -0.0397
 3727TIP3    H232673   5.939   1.285  10.681  0.5912  0.9952  0.3038
 3728TIP3   OH232674   6.205   5.869   1.397  0.0458  0.7860 -0.0690
 3728TIP3    H132675   6.136   5.920   1.355  0.6180  0.7976 -1.0206
 3728TIP3    H232676   6.258   5.836   1.325  0.0542 -0.6355  0.5679
 3729TIP3   OH232677   5.429   1.948  16.904 -0.2366 -0.1742 -0.0864
 3729TIP3    H132678   5.419   1.957  16.809  0.5291  0.8204 -0.0929
 3729TIP3    H232679   5.343   1.922  16.935 -1.0914  1.5805 -0.8309
 3730TIP3   OH232680   5.806   5.851  13.109 -0.0582 -0.4924 -0.0007
 3730TIP3    H132681   5.858   5.931  13.116  0.2654 -0.7218  0.3005
 3730TIP3    H232682   5.724   5.878  13.067 -0.3630  0.1880  0.9980
 3731TIP3   OH232683   6.684   4.822   2.885 -0.1634  0.0806 -0.5765
 3731TIP3    H132684   6.611   4.788   2.834  0.0962  0.0850 -0.9488
 3731TIP3    H232685   6.673   4.917   2.881 -1.2647  0.0614  1.0015
 3732TIP3   OH232686   3.366   1.159  16.512 -0.7481 -0.1153 -0.1535
 3732TIP3    H132687   3.427   1.191  16.445  0.0721 -0.0729  0.5957
 3732TIP3    H232688   3.331   1.078  16.475 -0.9177  0.3185 -0.9717
 3733TIP3   OH232689   3.299   5.446  13.547 -0.2227  0.2891 -0.3429
 3733TIP3    H132690   3.244   5.505  13.598 -0.0719  0.9529 -0.9286
 3733TIP3    H232691   3.292   5.361  13.591 -1.9652  0.2812 -0.5679
 3734TIP3   OH232692   5.969   4.632  14.889  0.1945 -0.3599 -0.2037
 3734TIP3    H132693   6.018   4.591  14.819 -1.6429  0.1647 -1.8927
 3734TIP3    H232694   5.997   4.724  14.887  0.6522 -0.4862  0.2339
 3735TIP3   OH232695   6.406   0.637  15.576 -0.3128 -0.3805 -0.6271
 3735TIP3    H132696   6.500   0.628  15.557 -0.5170 -0.6885 -1.5338
 3735TIP3    H232697   6.375   0.700  15.511 -0.4194  1.0314  0.7447
 3736TIP3   OH232698   2.702   2.266  15.448 -1.0133 -0.2119  0.3182
 3736TIP3    H132699   2.724   2.327  15.518  1.2043  0.2187 -0.6827
 3736TIP3    H232700   2.710   2.179  15.489 -0.3528  0.0450  0.7456
 3737TIP3   OH232701   4.773   3.753  13.053  0.2847  0.0321  0.2174
 3737TIP3    H132702   4.780   3.848  13.039 -1.1440  0.1391  0.0722
 3737TIP3    H232703   4.737   3.720  12.971  0.8148 -0.6602  0.2558
 3738TIP3   OH232704   6.127   3.423   6.056  0.9683  0.0964 -0.3049
 3738TIP3    H132705   6.092   3.420   6.145  1.0862 -0.4921 -0.2775
 3738TIP3    H232706   6.144   3.332   6.033  1.1528  0.2620 -0.8470
 3739TIP3   OH232707   1.764   4.300   0.144  0.2755 -0.2902  0.1069
 3739TIP3    H132708   1.728   4.381   0.180 -0.9903 -0.2636 -1.1694
 3739TIP3    H232709   1.857   4.302   0.168 -0.0910  0.7047  1.5537
 3740TIP3   OH232710   5.813   0.689   5.323 -0.0802 -0.2946  0.0334
 3740TIP3    H132711   5.874   0.762   5.312 -0.4628 -0.1798 -1.4577
 3740TIP3    H232712   5.754   0.694   5.248 -0.9262 -1.3723  0.5872
 3741TIP3   OH232713   0.295   4.655   5.361  0.0809 -0.0623 -0.1198
 3741TIP3    H132714   0.205   4.683   5.372  0.4141  1.1829 -0.4755
 3741TIP3    H232715   0.289   4.561   5.343 -1.3051  0.3767 -2.3055
 3742TIP3   OH232716   3.937   6.068   0.164 -1.0014  0.1643 -0.5835
 3742TIP3    H132717   3.950   5.995   0.224 -3.7761  1.2335  1.5162
 3742TIP3    H232718   3.857   6.047   0.117 -1.6164  1.6168 -0.2452
 3743TIP3   OH232719   2.930   3.323   2.891 -0.2889  0.0647  0.0667
 3743TIP3    H132720   2.838   3.341   2.910 -0.6705 -0.8315 -0.8362
 3743TIP3    H232721   2.936   3.228   2.889  0.3809  0.1158 -1.1617
 3744TIP3   OH232722   4.272   1.315   0.040 -0.0457  0.1185  0.5944
 3744TIP3    H132723   4.303   1.225   0.029 -1.5784 -0.5497  1.3769
 3744TIP3    H232724   4.324   1.349   0.112  0.1957 -0.3327  0.6413
 3745TIP3   OH232725   5.941   2.004  10.582  0.0454 -0.0347 -0.0319
 3745TIP3    H132726   6.021   1.973  10.539  1.2273  0.4382  1.6788
 3745TIP3    H232727   5.922   2.088  10.539 -0.7837 -1.1198 -1.8725
 3746TIP3   OH232728   5.881   4.511  13.234 -0.2874 -0.0184  0.0450
 3746TIP3    H132729   5.857   4.579  13.171  0.4210 -0.2371 -0.4693
 3746TIP3    H232730   5.947   4.458  13.189 -0.3178 -0.6308  0.6954
 3747TIP3   OH232731   5.764   4.717   2.149 -0.1202  0.0663  0.3448
 3747TIP3    H132732   5.706   4.735   2.223  0.2194  0.3028  0.5581
 3747TIP3    H232733   5.744   4.627   2.124 -0.2704 -0.0001  0.6961
 3748TIP3   OH232734   4.348   0.170   2.803 -0.6729 -0.1575 -0.6419
 3748TIP3    H132735   4.280   0.118   2.846 -1.5201  1.4181  0.0033
 3748TIP3    H232736   4.303   0.250   2.776  0.5355  0.1534 -1.8124
 3749TIP3   OH232737   1.723   3.796   3.353 -0.3112 -0.6126 -0.1360
 3749TIP3    H132738   1.734   3.884   3.316  0.7512 -0.2497  0.9828
 3749TIP3    H232739   1.795   3.787   3.416 -1.3425 -1.6762  0.9426
 3750TIP3   OH232740   5.084   6.720   6.764  0.0057  0.3478  0.2092
 3750TIP3    H132741   5.022   6.649   6.784  0.1677  0.0220 -0.4145
 3750TIP3    H232742   5.170   6.680   6.775  0.1075  0.1416 -1.1027
 3751TIP3   OH232743   0.750   2.912  13.675 -0.4157  0.5140 -0.3703
 3751TIP3    H132744   0.739   2.997  13.717 -0.3340 -0.0092  0.7483
 3751TIP3    H232745   0.770   2.933  13.584  1.5537  1.7652  0.2880
 3752TIP3   OH232746   1.513   5.438  12.977  0.3418 -0.4288 -0.8326
 3752TIP3    H132747   1.522   5.374  12.906  3.3025 -0.3459 -0.6461
 3752TIP3    H232748   1.553   5.395  13.053  0.6342  0.8964 -0.2029
 3753TIP3   OH232749   1.527   3.988   5.856 -0.2418  0.7483  0.4177
 3753TIP3    H132750   1.519   4.002   5.950  0.6795 -3.8289  1.4563
 3753TIP3    H232751   1.453   3.931   5.834  0.9454 -0.3167 -1.0326
 3754TIP3   OH232752   2.582   1.893   3.765  0.3678 -0.0343 -0.6674
 3754TIP3    H132753   2.529   1.970   3.746  0.7493  0.5806  0.6410
 3754TIP3    H232754   2.563   1.873   3.857  2.8991  0.6199  0.0675
 3755TIP3   OH232755   3.308   3.645  14.709 -0.9152 -0.2761  0.4197
 3755TIP3    H132756   3.394   3.646  14.668 -1.7443  0.3691 -1.3820
 3755TIP3    H232757   3.302   3.559  14.750  0.2450 -0.6464 -0.1555
 3756TIP3   OH232758   4.509   4.505   6.721  0.5309  0.1863 -0.3706
 3756TIP3    H132759   4.462   4.519   6.804  1.9418 -0.0238  0.4885
 3756TIP3    H232760   4.519   4.410   6.714  1.0504  0.2388 -0.4027
 3757TIP3   OH232761   5.512   4.540   1.451  0.4322 -0.0307 -0.6454
 3757TIP3    H132762   5.469   4.456   1.469 -0.5177 -0.2152 -3.3604
 3757TIP3    H232763   5.469   4.602   1.510  0.5948 -1.2666  0.8330
 3758TIP3   OH232764   2.419   4.177   1.331 -0.4702  0.4030 -0.7461
 3758TIP3    H132765   2.399   4.210   1.419 -0.9099 -1.4779 -0.1129
 3758TIP3    H232766   2.513   4.160   1.333  0.1999  3.2946 -1.7170
 3759TIP3   OH232767   0.856   4.800   0.010 -0.4712  0.3879 -0.0163
 3759TIP3    H132768   0.854   4.705   0.013 -1.4541  0.4315  1.6403
 3759TIP3    H232769   0.894   4.820  -0.076 -0.2092 -1.4733 -0.3800
 3760TIP3   OH232770   4.106   0.094  16.911 -0.1110  0.6129 -0.1014
 3760TIP3    H132771   4.129   0.050  16.993  0.3082  0.0125 -0.5336
 3760TIP3    H232772   4.171   0.064  16.849 -0.6952  0.7119 -0.7710
 3761TIP3   OH232773   1.231   0.185   3.444  0.8789 -0.1230  0.0350
 3761TIP3    H132774   1.213   0.092   3.456  1.4112 -0.1513  0.6286
 3761TIP3    H232775   1.210   0.225   3.529  0.5006  0.3245 -0.2616
 3762TIP3   OH232776   2.343   4.046  13.310 -0.1237 -0.5444 -0.9017
 3762TIP3    H132777   2.373   4.108  13.243  1.0927  1.2738  1.1807
 3762TIP3    H232778   2.412   3.979  13.314  0.4617  0.0649 -0.5985
 3763TIP3   OH232779   2.773   1.177   4.734 -0.0266 -0.3093 -0.5239
 3763TIP3    H132780   2.737   1.203   4.819 -0.6430 -1.2041 -0.5015
 3763TIP3    H232781   2.697   1.173   4.676  0.2545 -0.6708 -0.8733
 3764TIP3   OH232782   3.937   2.642   3.639 -0.1822 -0.0158 -0.8572
 3764TIP3    H132783   3.976   2.728   3.654 -0.9546  0.4028 -1.1752
 3764TIP3    H232784   3.847   2.661   3.612 -1.1336 -0.9998  1.3790
 3765TIP3   OH232785   3.135   3.844   0.117 -0.6369 -0.4159 -0.0059
 3765TIP3    H132786   3.059   3.790   0.094 -0.0133 -0.9835 -0.8208
 3765TIP3    H232787   3.134   3.848   0.212 -1.5458 -0.6154  0.0043
 3766TIP3   OH232788   4.144   6.488   3.898  0.1346  0.4502  0.0451
 3766TIP3    H132789   4.057   6.483   3.936  0.6178 -1.0911  1.0662
 3766TIP3    H232790   4.186   6.561   3.943  0.1260 -0.2786  1.2832
 3767TIP3   OH232791   3.888   4.376   6.616 -0.3611  0.3256 -0.8931
 3767TIP3    H132792   3.845   4.320   6.552 -0.0450  0.3474 -1.1313
 3767TIP3    H232793   3.824   4.444   6.635 -1.4004 -1.0292  0.6822
 3768TIP3   OH232794   5.682   1.018  15.162 -0.3216  1.1421 -0.2293
 3768TIP3    H132795   5.621   1.081  15.125  0.1985  2.8673  1.6367
 3768TIP3    H232796   5.634   0.976  15.233 -0.3515  0.0949 -0.8456
 3769TIP3   OH232797   1.675   5.660   2.834 -0.0272 -0.1027 -0.0920
 3769TIP3    H132798   1.709   5.575   2.862 -0.1594 -0.0338  0.2848
 3769TIP3    H232799   1.752   5.716   2.827 -0.0583  0.0644  0.7992
 3770TIP3   OH232800   0.140   0.033  17.042 -0.6272  0.0208  0.6234
 3770TIP3    H132801   0.061  -0.004  17.003 -0.1298 -2.1503  1.5490
 3770TIP3    H232802   0.141  -0.002  17.131  1.1054  0.4288  0.7900
 3771TIP3   OH232803   4.213   1.926   6.266 -0.1367 -0.2030  0.2468
 3771TIP3    H132804   4.270   1.959   6.196 -0.9238  2.7692  0.8657
 3771TIP3    H232805   4.229   1.832   6.267  2.5304  0.1020 -1.5706
 3772TIP3   OH232806   5.123   0.704   3.301  0.3816 -0.4489 -0.2959
 3772TIP3    H132807   5.067   0.731   3.229  0.8087  0.3806 -0.3234
 3772TIP3    H232808   5.123   0.608   3.296  0.2634 -0.4082 -1.2901
 3773TIP3   OH232809   5.273   0.534  16.952  0.5090 -0.4955  0.0270
 3773TIP3    H132810   5.367   0.521  16.942  0.4884  0.6718 -2.5810
 3773TIP3    H232811   5.264   0.595  17.024  1.8306  0.0944 -0.2757
 3774TIP3   OH232812   5.651   0.969   4.778  0.1631 -0.4630 -0.1729
 3774TIP3    H132813   5.557   0.971   4.794  0.2274 -0.3337  0.2126
 3774TIP3    H232814   5.660   0.937   4.688 -0.2821  0.4729 -0.5614
 3775TIP3   OH232815   3.872   4.468   5.893 -0.0534 -0.4681 -0.6880
 3775TIP3    H132816   3.881   4.459   5.988 -1.9006 -0.6105 -0.5015
 3775TIP3    H232817   3.953   4.512   5.866  1.4661 -2.2525  0.6370
 3776TIP3   OH232818   2.345   4.744  16.871  0.0981 -0.0130 -0.0722
 3776TIP3    H132819   2.347   4.679  16.801  0.3230  0.1896 -0.2523
 3776TIP3    H232820   2.433   4.741  16.909 -0.1021 -0.3229  0.3869
 3777TIP3   OH232821   0.394   0.068   4.305 -0.3156 -0.1044 -0.7338
 3777TIP3    H132822   0.472   0.045   4.255 -0.5043 -0.0820 -1.0437
 3777TIP3    H232823   0.355   0.140   4.256 -0.3107  0.1544 -0.3570
 3778TIP3   OH232824   1.224   4.916   2.289 -0.1386  0.3687  0.4195
 3778TIP3    H132825   1.133   4.893   2.309 -0.1318 -1.1538 -1.0783
 3778TIP3    H232826   1.231   4.903   2.194  1.1325  2.4061  0.1824
 3779TIP3   OH232827   2.238   1.610  11.891 -0.1044 -0.0928 -0.3466
 3779TIP3    H132828   2.206   1.697  11.916  2.4408  0.9654 -0.4424
 3779TIP3    H232829   2.227   1.557  11.970 -1.3894  0.3851 -0.1797
 3780TIP3   OH232830   5.953   4.765  14.460 -0.4492 -0.3838  0.5422
 3780TIP3    H132831   5.891   4.798  14.395 -1.2343 -1.4236  0.7336
 3780TIP3    H232832   5.904   4.698  14.508  1.4174 -2.8589 -0.7546
 3781TIP3   OH232833   2.428   4.342  17.262 -0.0910 -0.1522  0.2132
 3781TIP3    H132834   2.519   4.315  17.266  0.9971  3.0157 -0.1841
 3781TIP3    H232835   2.427   4.412  17.196 -2.1934  1.8384  2.1682
 3782TIP3   OH232836   0.889   2.522  15.331 -0.5624 -0.6646 -0.5191
 3782TIP3    H132837   0.895   2.588  15.400  1.7458 -1.3598  0.0222
 3782TIP3    H232838   0.840   2.450  15.371 -0.5387 -0.4614 -0.1144
 3783TIP3   OH232839   5.329   1.901  11.753  0.2134 -0.4668  0.0478
 3783TIP3    H132840   5.252   1.945  11.716  0.3507 -0.7530 -0.5947
 3783TIP3    H232841   5.399   1.967  11.747  0.1634 -0.4105  0.0780
 3784TIP3   OH232842   2.897   4.906   5.705 -0.4628  0.1783  0.0507
 3784TIP3    H132843   2.808   4.921   5.736  0.4080  1.2321  2.2256
 3784TIP3    H232844   2.917   4.816   5.733 -1.7722 -1.2215 -3.0561
 3785TIP3   OH232845   2.598   3.386   3.378  0.0503 -0.1025  0.0373
 3785TIP3    H132846   2.689   3.360   3.365  0.3228  0.3130  1.0231
 3785TIP3    H232847   2.588   3.466   3.327  0.0610 -0.4727 -0.5571
 3786TIP3   OH232848   3.552   5.319  12.186  0.3383  0.7111  0.3171
 3786TIP3    H132849   3.474   5.323  12.132  0.7721  1.6801 -0.2726
 3786TIP3    H232850   3.520   5.308  12.276 -0.4262  0.1658 -0.0216
 3787TIP3   OH232851   0.549   5.135  17.429 -0.3391 -0.0321  0.0072
 3787TIP3    H132852   0.558   5.042  17.451  0.1599 -0.6809 -2.6018
 3787TIP3    H232853   0.510   5.135  17.342  0.5087  2.1923 -0.4369
 3788TIP3   OH232854   0.090   3.451   4.710  0.3809 -0.1761 -0.0931
 3788TIP3    H132855   0.090   3.380   4.646 -2.6304 -1.2806  0.9628
 3788TIP3    H232856   0.053   3.526   4.663 -3.8136 -1.5283  0.6205
 3789TIP3   OH232857   0.761   3.572   1.256 -0.0248  0.1612  0.1983
 3789TIP3    H132858   0.690   3.606   1.310 -1.3769 -1.6659 -0.3217
 3789TIP3    H232859   0.801   3.503   1.309 -0.8163 -1.0677 -0.7587
 3790TIP3   OH232860   1.105   1.561   4.132 -0.2072 -0.1094  0.0822
 3790TIP3    H132861   1.147   1.576   4.047  0.4309  0.6332  0.5120
 3790TIP3    H232862   1.175   1.574   4.196 -1.3626  2.6937  0.9170
 3791TIP3   OH232863   4.303   4.661  13.565 -0.0348 -0.0635  0.0732
 3791TIP3    H132864   4.301   4.580  13.616  2.0630  0.0581  0.4331
 3791TIP3    H232865   4.277   4.634  13.477 -2.9070 -0.4126  0.9439
 3792TIP3   OH232866   2.123   2.391  11.728  0.2843  0.2525 -0.2555
 3792TIP3    H132867   2.165   2.467  11.767  0.1861 -0.5633  1.5386
 3792TIP3    H232868   2.195   2.339  11.692  0.4644  0.5851 -0.3799
 3793TIP3   OH232869   4.132   0.836  15.353  0.1812  0.2152 -0.3134
 3793TIP3    H132870   4.163   0.913  15.306 -0.6761 -0.3227 -1.8114
 3793TIP3    H232871   4.086   0.872  15.429  1.7365  1.0885  0.2829
 3794TIP3   OH232872   3.832   3.603   2.975 -0.1231 -0.4975  0.7574
 3794TIP3    H132873   3.856   3.633   2.887 -1.6620 -0.8426  0.1925
 3794TIP3    H232874   3.897   3.535   2.995 -0.1575 -0.8991 -0.4009
 3795TIP3   OH232875   0.069   0.034   4.349  0.2018 -0.9587  0.4225
 3795TIP3    H132876   0.146   0.076   4.387 -0.8675  0.7724  0.7935
 3795TIP3    H232877   0.096   0.012   4.260  0.9071  0.2856  0.3041
 3796TIP3   OH232878   1.947   1.659  10.734  0.2026  0.3267  0.3919
 3796TIP3    H132879   1.903   1.610  10.803  0.4566  0.5333  0.6996
 3796TIP3    H232880   1.912   1.748  10.742 -0.4451  0.1502 -0.3219
 3797TIP3   OH232881   2.383   2.241  14.379  1.2735 -0.3842  0.2033
 3797TIP3    H132882   2.446   2.282  14.319  1.7456 -0.3264  0.7321
 3797TIP3    H232883   2.344   2.314  14.427  0.6020 -0.3985 -0.3094
 3798TIP3   OH232884   1.792   6.565  12.207 -0.0160  0.1489 -0.1006
 3798TIP3    H132885   1.699   6.578  12.227 -0.7371  0.1320 -3.0390
 3798TIP3    H232886   1.832   6.650  12.224 -1.1739  1.0481 -1.6581
 3799TIP3   OH232887   0.760   4.654  13.906  0.0592 -0.7610  0.3770
 3799TIP3    H132888   0.828   4.588  13.889  0.6801 -0.0255 -0.0535
 3799TIP3    H232889   0.784   4.728  13.850 -1.6723 -0.8616 -0.5496
 3800TIP3   OH232890   3.199   6.385  16.435  0.1709  0.0192 -0.0970
 3800TIP3    H132891   3.208   6.430  16.351  0.5949  1.9995  0.9317
 3800TIP3    H232892   3.105   6.385  16.452 -0.3335 -3.3336 -1.9750
 3801TIP3   OH232893   4.294   3.105  16.584  0.2616 -0.5780 -0.0938
 3801TIP3    H132894   4.206   3.112  16.622 -0.3602 -2.0103 -1.1661
 3801TIP3    H232895   4.324   3.196  16.577 -0.5159 -0.1385  1.6235
 3802TIP3   OH232896   1.878   3.232   0.876 -0.2313  0.1739 -0.3362
 3802TIP3    H132897   1.845   3.196   0.958  2.9331  0.4821  1.2305
 3802TIP3    H232898   1.859   3.325   0.880 -0.1102  0.1831  0.0534
 3803TIP3   OH232899   3.493   6.651  12.576  0.3193  0.1692 -0.3640
 3803TIP3    H132900   3.529   6.739  12.563  0.5512  0.1225 -0.0566
 3803TIP3    H232901   3.566   6.601  12.612 -0.5382  0.5340  2.0293
 3804TIP3   OH232902   0.807   3.292  12.341 -0.4671 -0.6507 -0.3347
 3804TIP3    H132903   0.803   3.221  12.405  0.8154  0.0459  0.5617
 3804TIP3    H232904   0.780   3.370  12.390 -2.0726 -0.5241 -1.3643
 3805TIP3   OH232905   2.408   0.921  13.740 -0.5435  0.5895  0.1219
 3805TIP3    H132906   2.336   0.871  13.702 -0.2474  0.8025 -0.7590
 3805TIP3    H232907   2.430   0.985  13.672  0.9573  0.0495  0.0631
 3806TIP3   OH232908   5.154   6.383  15.414 -0.1425  0.3027  0.5066
 3806TIP3    H132909   5.140   6.319  15.484  0.7174 -0.6300 -0.1445
 3806TIP3    H232910   5.210   6.450  15.453  0.8528 -0.5348  0.5558
 3807TIP3   OH232911   0.485   4.834  12.496  0.2961 -0.8434  0.2252
 3807TIP3    H132912   0.478   4.916  12.448  2.4009 -0.9025 -0.2535
 3807TIP3    H232913   0.434   4.771  12.444 -0.6319 -0.0550  0.1576
 3808TIP3   OH232914   2.106   0.275   0.183 -0.1092 -0.9618  0.3905
 3808TIP3    H132915   2.163   0.340   0.223 -0.1612 -1.2239  0.9116
 3808TIP3    H232916   2.051   0.324   0.123  2.0725 -0.9537 -1.7865
 3809TIP3   OH232917   4.067   6.764  15.345 -0.4074  0.3184 -0.1830
 3809TIP3    H132918   3.979   6.798  15.328 -0.4979  0.6472  0.8755
 3809TIP3    H232919   4.066   6.741  15.438 -0.2756 -2.3923 -0.7569
 3810TIP3   OH232920   1.063   4.372   1.014 -0.4477  0.0461  0.3808
 3810TIP3    H132921   1.048   4.439   0.947 -1.3112 -0.5995 -0.0902
 3810TIP3    H232922   0.979   4.328   1.024  0.3715 -1.7663 -0.2234
 3811TIP3   OH232923   3.568   5.037   1.849 -0.4296 -0.5020  0.1196
 3811TIP3    H132924   3.576   5.129   1.821  0.0687 -1.0322 -1.5922
 3811TIP3    H232925   3.479   5.031   1.884 -0.7813  0.4369 -0.5713
 3812TIP3   OH232926   3.545   4.771   4.354  0.6461  0.1910  0.3550
 3812TIP3    H132927   3.500   4.747   4.435 -2.8149  1.4232 -1.0190
 3812TIP3    H232928   3.512   4.709   4.289 -1.8786  3.0546 -1.3868
 3813TIP3   OH232929   3.575   5.066  17.138  0.1355 -0.2019  0.5796
 3813TIP3    H132930   3.649   5.050  17.081  0.5323 -0.1064  1.0618
 3813TIP3    H232931   3.509   5.107  17.081  0.4523 -0.2790  0.1551
 3814TIP3   OH232932   1.643   3.210  15.126 -0.0379 -0.4707  0.0350
 3814TIP3    H132933   1.601   3.124  15.132  0.5200 -0.8671 -1.2949
 3814TIP3    H232934   1.609   3.247  15.045  0.1398  0.3399  0.3290
 3815TIP3   OH232935   5.820   1.503  13.764 -0.3083 -0.5692 -0.0921
 3815TIP3    H132936   5.768   1.461  13.695 -1.7315  0.2306  0.4256
 3815TIP3    H232937   5.765   1.495  13.843  0.4120  0.2098  0.5050
 3816TIP3   OH232938   2.490   3.460   2.605 -0.2216  0.0251 -0.2120
 3816TIP3    H132939   2.576   3.422   2.589 -1.0145 -2.0435  0.1380
 3816TIP3    H232940   2.429   3.404   2.556 -1.4021  1.2438 -0.1952
 3817TIP3   OH232941   0.689   3.208   3.685  0.3594 -0.3117  0.0320
 3817TIP3    H132942   0.720   3.146   3.751 -0.6146 -0.1233  0.6760
 3817TIP3    H232943   0.736   3.183   3.605  1.4788 -0.5954  0.7640
 3818TIP3   OH232944   3.546   2.235   1.783 -0.1849  0.0361  0.1769
 3818TIP3    H132945   3.477   2.301   1.789  1.1144  1.4187  0.3924
 3818TIP3    H232946   3.582   2.230   1.871  0.3656 -0.2645 -0.0612
 3819TIP3   OH232947   2.552   1.063  11.233  0.3649 -0.1302  0.4580
 3819TIP3    H132948   2.457   1.056  11.222 -0.3358 -1.5833  5.2684
 3819TIP3    H232949   2.566   1.156  11.252  0.0724  0.1775 -0.6927
 3820TIP3   OH232950   4.221   3.715  17.089  0.0032  0.2910  0.1394
 3820TIP3    H132951   4.252   3.803  17.111 -0.7007  0.7612 -0.7099
 3820TIP3    H232952   4.235   3.664  17.169  0.0398  1.2800  0.7768
 3821TIP3   OH232953   3.492   4.976  13.276  0.4171 -0.4842 -0.5960
 3821TIP3    H132954   3.450   4.894  13.252 -1.1044  0.0233  0.1642
 3821TIP3    H232955   3.465   4.991  13.367  0.0341  1.1946 -0.9504
 3822TIP3   OH232956   6.597   4.791  10.421  0.0728 -0.4590  0.5805
 3822TIP3    H132957   6.553   4.826  10.343 -1.7268  0.0410  1.7623
 3822TIP3    H232958   6.690   4.788  10.397 -0.2617  1.0277 -1.0886
 3823TIP3   OH232959   2.221   4.432   0.890 -0.3242  0.0900  0.1712
 3823TIP3    H132960   2.290   4.471   0.835 -1.6465  1.2489 -0.7200
 3823TIP3    H232961   2.267   4.402   0.968  1.4156 -0.4213 -0.9830
 3824TIP3   OH232962   1.897   1.012   1.069 -0.4049 -0.2384  0.1476
 3824TIP3    H132963   1.856   1.018   1.155 -1.7040 -3.0482 -0.1507
 3824TIP3    H232964   1.849   1.074   1.015  0.3788  1.5146  1.3551
 3825TIP3   OH232965   4.032   5.622  16.036  0.4931 -0.2583  0.3615
 3825TIP3    H132966   4.111   5.587  15.994  0.5909 -1.0406  1.1640
 3825TIP3    H232967   4.026   5.574  16.119 -1.1864 -0.6729  0.0324
 3826TIP3   OH232968   1.495   3.835  12.175  0.4938 -0.2044 -0.2906
 3826TIP3    H132969   1.517   3.857  12.084  0.9925 -0.6076 -0.2724
 3826TIP3    H232970   1.417   3.780  12.169  1.0302 -0.9448 -0.5332
 3827TIP3   OH232971   4.952   0.665  12.758  0.3250  0.1892  0.2111
 3827TIP3    H132972   4.888   0.619  12.704  1.5958 -1.5274  0.0761
 3827TIP3    H232973   5.015   0.701  12.696 -1.6772  4.0240  0.1439
 3828TIP3   OH232974   3.478   0.565  11.653 -0.1364  0.3935 -0.8569
 3828TIP3    H132975   3.554   0.609  11.614 -0.3776  2.2226  0.5976
 3828TIP3    H232976   3.405   0.624  11.635 -0.5697  0.3610  0.6835
 3829TIP3   OH232977   2.884   6.640  16.200  0.3362 -0.0842 -0.4876
 3829TIP3    H132978   2.792   6.650  16.222  0.1909  0.3753 -1.2508
 3829TIP3    H232979   2.910   6.727  16.169  1.1792 -0.0542  0.2693
 3830TIP3   OH232980   2.248   4.929   5.502  0.5542 -0.3985 -0.5057
 3830TIP3    H132981   2.298   5.003   5.535  1.4499 -0.3900 -1.8390
 3830TIP3    H232982   2.189   4.906   5.574  1.6797  0.3051  0.6713
 3831TIP3   OH232983   2.583   4.814  15.209  0.1223 -0.2430 -0.3779
 3831TIP3    H132984   2.520   4.747  15.233 -1.1912  1.6918  1.9451
 3831TIP3    H232985   2.597   4.801  15.115 -1.5678 -2.4715 -0.3983
 3832TIP3   OH232986   2.846   5.315   1.472 -0.4087  0.0201 -0.0873
 3832TIP3    H132987   2.929   5.362   1.471  0.6637 -1.7362 -1.7090
 3832TIP3    H232988   2.794   5.355   1.402  0.2200 -0.6537 -0.9739
 3833TIP3   OH232989   1.237   6.349   6.691  0.1546  0.3351 -0.0701
 3833TIP3    H132990   1.157   6.296   6.690  0.8027 -0.6600 -0.0134
 3833TIP3    H232991   1.246   6.381   6.602  0.2199 -0.3581 -0.3152
 3834TIP3   OH232992   2.089   4.128   1.569 -0.3387 -0.2565 -1.3502
 3834TIP3    H132993   2.060   4.214   1.540 -0.7076 -0.8460 -2.8097
 3834TIP3    H232994   2.153   4.101   1.503 -0.8256 -1.4379 -1.3576
 3835TIP3   OH232995   3.852   3.575  15.543 -0.2743  0.1916  0.3336
 3835TIP3    H132996   3.821   3.656  15.502 -0.3654 -0.0124 -0.0070
 3835TIP3    H232997   3.928   3.550  15.491 -0.9782 -0.6060 -0.3547
 3836TIP3   OH232998   4.677   3.872   0.869 -0.3714  0.0629  0.6990
 3836TIP3    H132999   4.711   3.955   0.835 -0.1325 -0.3448 -0.0724
 3836TIP3    H233000   4.583   3.875   0.851 -0.8896  1.3181  3.0934
 3837TIP3   OH233001   4.089   6.070   4.484 -0.4169  0.3471 -0.1812
 3837TIP3    H133002   4.105   6.010   4.412 -0.8425  0.0277 -0.0126
 3837TIP3    H233003   4.147   6.144   4.467  1.2848 -0.7876  0.4541
 3838TIP3   OH233004   4.469   5.068   0.609 -0.1502  0.4396 -0.6283
 3838TIP3    H133005   4.461   4.996   0.548  0.3356 -1.4371  1.3899
 3838TIP3    H233006   4.562   5.090   0.609 -0.1059  0.2580 -0.3870
 3839TIP3   OH233007   1.973   1.327   2.829  0.2183  0.1876  0.4997
 3839TIP3    H133008   2.045   1.377   2.790  0.5904 -1.3392 -0.8855
 3839TIP3    H233009   2.014   1.245   2.858 -0.7788 -0.2677  0.6604
 3840TIP3   OH233010   4.136   1.615  12.607  0.4213 -0.3374 -0.3343
 3840TIP3    H133011   4.206   1.623  12.542  0.8475 -3.8594 -0.5556
 3840TIP3    H233012   4.170   1.657  12.685  1.4211  0.7878 -1.3321
 3841TIP3   OH233013   4.828   5.206  12.920  0.2946 -0.0386 -0.4123
 3841TIP3    H133014   4.780   5.128  12.891  1.3489 -0.5490 -0.8565
 3841TIP3    H233015   4.913   5.172  12.950  0.6065  0.8934 -0.1991
 3842TIP3   OH233016   3.920   1.884  15.590 -0.3956 -0.0670 -0.5205
 3842TIP3    H133017   3.949   1.840  15.670 -0.6636 -2.0279 -1.4518
 3842TIP3    H233018   3.831   1.852  15.575  0.3652 -1.3371 -2.6698
 3843TIP3   OH233019   3.836   6.272  16.342 -0.3185 -0.2249 -0.0288
 3843TIP3    H133020   3.857   6.228  16.424 -1.6876  0.1066  0.5321
 3843TIP3    H233021   3.759   6.325  16.362 -1.1876 -0.7628 -1.7157
 3844TIP3   OH233022   2.864   4.361  12.312  0.1734 -0.8571  0.2663
 3844TIP3    H133023   2.832   4.440  12.356 -1.0684 -1.2279  0.0560
 3844TIP3    H233024   2.889   4.302  12.383 -1.7297 -1.4155  0.5156
 3845TIP3   OH233025   2.563   1.465   2.367 -0.1912  0.5839  0.1439
 3845TIP3    H133026   2.477   1.509   2.362 -0.6167 -0.3680 -2.3247
 3845TIP3    H233027   2.572   1.420   2.283  1.8745 -1.0096  1.1260
 3846TIP3   OH233028   5.589   0.912   4.112 -0.3069 -0.7043 -0.1312
 3846TIP3    H133029   5.648   0.895   4.185  1.5617  2.7656 -0.6204
 3846TIP3    H233030   5.640   0.892   4.034 -0.1610  1.0123 -0.5277
 3847TIP3   OH233031   5.849   0.229  11.471  0.1885 -0.4671  0.0974
 3847TIP3    H133032   5.887   0.294  11.412  0.3196 -0.1613  0.5160
 3847TIP3    H233033   5.771   0.198  11.426 -0.4665  0.7530  0.3672
 3848TIP3   OH233034   0.378   6.441   2.489 -0.6415  0.3231 -0.1943
 3848TIP3    H133035   0.467   6.474   2.490 -0.9644  1.2690 -0.9305
 3848TIP3    H233036   0.383   6.355   2.531  0.8319 -0.2186 -1.4160
 3849TIP3   OH233037   5.735   2.768  16.311  0.5491 -0.3786 -0.1436
 3849TIP3    H133038   5.738   2.706  16.237  0.6954 -1.1307  0.4823
 3849TIP3    H233039   5.779   2.846  16.278  0.9975 -0.8625 -0.7200
 3850TIP3   OH233040   2.087   6.511   2.633 -0.5660 -0.0560 -0.3136
 3850TIP3    H133041   2.047   6.480   2.552 -0.5982 -0.3770 -0.1765
 3850TIP3    H233042   2.014   6.514   2.696 -0.5883  0.4173 -0.3573
 3851TIP3   OH233043   3.832   5.415  12.867  0.2075  0.6840 -0.2383
 3851TIP3    H133044   3.840   5.327  12.831 -1.9565 -0.2701  1.3470
 3851TIP3    H233045   3.739   5.436  12.858  0.5318  2.4727  0.1811
 3852TIP3   OH233046   2.814   1.710  16.904  0.4600 -0.5527 -0.9398
 3852TIP3    H133047   2.782   1.795  16.874  0.7251 -0.1398 -0.0753
 3852TIP3    H233048   2.768   1.694  16.986  2.0543 -0.1679  0.0868
 3853TIP3   OH233049   3.865   1.325   2.965  0.6638 -0.2792 -0.4287
 3853TIP3    H133050   3.826   1.412   2.963  1.2178  0.0067  0.5831
 3853TIP3    H233051   3.813   1.274   2.902 -0.4490  0.4436 -0.1312
 3854TIP3   OH233052   6.488   0.576   0.593  0.0593 -0.2365 -0.1935
 3854TIP3    H133053   6.461   0.664   0.566  1.6282 -0.0010 -1.1104
 3854TIP3    H233054   6.428   0.517   0.547  1.0149  0.2662 -2.1993
 3855TIP3   OH233055   0.302   2.958   5.752  0.3314 -0.4230  0.5774
 3855TIP3    H133056   0.299   2.935   5.845 -1.3216 -0.2734  0.5977
 3855TIP3    H233057   0.357   3.037   5.748 -0.4714  0.2169  1.5996
 3856TIP3   OH233058   5.991   6.016   3.848  0.4369  0.1776 -0.0452
 3856TIP3    H133059   6.004   6.110   3.835 -3.4511  0.8797 -0.0015
 3856TIP3    H233060   5.916   5.994   3.792 -0.5624 -2.2550  2.0465
 3857TIP3   OH233061   2.038   0.799   5.167 -0.2818 -0.3540  0.3645
 3857TIP3    H133062   1.975   0.765   5.232  0.6943 -0.1725  1.4422
 3857TIP3    H233063   2.106   0.840   5.220  0.1098  0.5733 -0.8303
 3858TIP3   OH233064   0.954   5.783   1.419 -0.2374  0.0657 -0.1067
 3858TIP3    H133065   0.990   5.733   1.491 -0.4156 -0.9808 -0.7278
 3858TIP3    H233066   0.882   5.833   1.458  2.0923  2.6007  1.2612
 3859TIP3   OH233067   3.924   3.468  16.685  0.0331  0.3857  0.0933
 3859TIP3    H133068   3.920   3.534  16.616 -0.3029 -0.8210 -1.0827
 3859TIP3    H233069   3.983   3.504  16.751 -0.3896  1.9782 -0.3699
 3860TIP3   OH233070   5.520   3.252  14.115 -1.3924  0.5995 -0.1201
 3860TIP3    H133071   5.469   3.204  14.181 -0.8482 -0.6573 -0.5817
 3860TIP3    H233072   5.567   3.319  14.165 -1.4437  0.0444  0.6949
 3861TIP3   OH233073   2.457   0.625  11.085 -0.4029 -0.1611  0.3704
 3861TIP3    H133074   2.455   0.712  11.046  0.2195  1.5472  3.7930
 3861TIP3    H233075   2.370   0.589  11.067 -0.4947  0.8751 -1.5657
 3862TIP3   OH233076   5.489   3.948   0.758 -0.0107 -0.2462  0.2948
 3862TIP3    H133077   5.528   3.977   0.675  1.6122 -0.9637  0.7599
 3862TIP3    H233078   5.503   4.022   0.818 -0.1615 -0.1595  0.2218
 3863TIP3   OH233079   4.654   4.345  14.054  0.2723 -0.0872  0.6664
 3863TIP3    H133080   4.638   4.430  14.013 -4.5817 -1.0798 -0.1042
 3863TIP3    H233081   4.713   4.300  13.995 -0.7635  1.1532 -1.4215
 3864TIP3   OH233082   1.432   3.817   2.783  0.2238 -0.1471 -0.2407
 3864TIP3    H133083   1.476   3.835   2.700 -0.0841 -0.5268 -0.4888
 3864TIP3    H233084   1.398   3.728   2.773  1.3356 -0.7142  0.7799
 3865TIP3   OH233085   4.163   3.979   3.625  0.0796 -1.3407 -0.3231
 3865TIP3    H133086   4.086   3.928   3.603 -1.6162 -0.1325  2.3078
 3865TIP3    H233087   4.221   3.918   3.671  0.1468 -1.9454 -1.1983
 3866TIP3   OH233088   6.501   0.751   2.053  0.5964  0.0395 -0.9883
 3866TIP3    H133089   6.449   0.830   2.067  0.4989 -0.2604  0.5034
 3866TIP3    H233090   6.553   0.743   2.132  1.9214 -0.4381 -1.8694
 3867TIP3   OH233091   4.506   2.310   5.383 -0.0842 -0.3727  0.1875
 3867TIP3    H133092   4.457   2.388   5.409 -1.4082 -1.3884  0.8381
 3867TIP3    H233093   4.484   2.244   5.449  0.3100 -1.5623 -0.8257
 3868TIP3   OH233094   0.894   3.612   2.493  0.4461  0.5436 -1.4471
 3868TIP3    H133095   0.823   3.612   2.428  0.3438 -1.0360 -1.3784
 3868TIP3    H233096   0.865   3.549   2.559 -0.0906  3.0519  0.8914
 3869TIP3   OH233097   2.539   1.880  14.039 -0.0991 -0.3922  0.1432
 3869TIP3    H133098   2.635   1.869  14.035  0.0820  1.1846 -0.3758
 3869TIP3    H233099   2.505   1.792  14.025  1.2686 -0.8549 -0.4604
 3870TIP3   OH233100   3.308   0.086   0.987  0.0287 -0.2954  0.2226
 3870TIP3    H133101   3.302   0.030   0.910  0.6302  0.4971 -0.4119
 3870TIP3    H233102   3.399   0.076   1.017  0.6127  1.4929 -0.8099
 3871TIP3   OH233103   3.561   6.192   5.280  0.8318  0.1163 -0.2190
 3871TIP3    H133104   3.567   6.218   5.372 -0.6246 -0.9704  0.2255
 3871TIP3    H233105   3.633   6.238   5.237  1.8567  0.2588  1.5503
 3872TIP3   OH233106   5.171   4.927  16.237  0.4722 -0.2820 -0.1774
 3872TIP3    H133107   5.204   4.953  16.323  0.0354 -0.7644  0.1494
 3872TIP3    H233108   5.191   4.833  16.232 -0.7276 -0.5697 -0.0042
 3873TIP3   OH233109   5.007   0.279   5.238 -0.3961 -0.2846  0.1645
 3873TIP3    H133110   5.009   0.192   5.277 -0.8685 -0.1618  0.4672
 3873TIP3    H233111   4.969   0.266   5.151 -0.2426 -0.4120  0.1153
 3874TIP3   OH233112   1.314   0.807   3.363  0.1724 -0.6977 -0.4951
 3874TIP3    H133113   1.260   0.742   3.410  0.7971  0.3594  1.8455
 3874TIP3    H233114   1.404   0.782   3.384  0.4730 -0.1886 -1.1733
 3875TIP3   OH233115   6.591   4.553  17.470  0.5815 -0.7296  0.0841
 3875TIP3    H133116   6.591   4.550  17.565  0.3181  0.4417  0.1354
 3875TIP3    H233117   6.511   4.507  17.444  0.2257 -0.3252  0.4591
 3876TIP3   OH233118   0.118   5.567   4.994 -0.0593  0.4699 -0.4050
 3876TIP3    H133119   0.053   5.634   4.970  0.8115  0.4126 -3.1929
 3876TIP3    H233120   0.165   5.548   4.913  0.7434 -2.4761  0.6301
 3877TIP3   OH233121   6.085   5.098   0.423  0.5794 -0.7305 -0.1403
 3877TIP3    H133122   6.096   5.042   0.500  2.5536  0.0629  0.2202
 3877TIP3    H233123   6.107   5.042   0.349 -0.6136 -1.2978 -0.0807
 3878TIP3   OH233124   6.241   1.858   3.783  0.3127 -0.1352 -0.0437
 3878TIP3    H133125   6.294   1.789   3.743  1.0115  1.4484 -1.9500
 3878TIP3    H233126   6.300   1.900   3.845  1.0270  0.9795 -1.4390
 3879TIP3   OH233127   5.661   1.526   3.114  0.1017 -0.2043 -0.2397
 3879TIP3    H133128   5.747   1.552   3.081 -0.6842 -0.0313 -2.3040
 3879TIP3    H233129   5.601   1.550   3.044 -1.9752  1.8009  2.0472
 3880TIP3   OH233130   6.408   5.806  12.621  0.2984  0.0076 -0.2946
 3880TIP3    H133131   6.439   5.757  12.545 -2.4852 -1.9466 -0.3473
 3880TIP3    H233132   6.321   5.769  12.639  1.2700 -0.5598  4.6395
 3881TIP3   OH233133   1.715   6.430  17.406 -0.0299  0.4371 -0.2392
 3881TIP3    H133134   1.693   6.414  17.497 -1.6029  1.0623 -0.4834
 3881TIP3    H233135   1.633   6.421  17.359  1.0447 -1.6125 -1.8927
 3882TIP3   OH233136   6.036   2.715  12.751 -0.1242 -0.0062  0.1783
 3882TIP3    H133137   6.025   2.800  12.792 -0.2560  0.0167  0.0950
 3882TIP3    H233138   5.983   2.719  12.672 -1.3334 -0.6758  0.9153
 3883TIP3   OH233139   0.098   6.478  13.688  0.3869 -0.2316  0.5474
 3883TIP3    H133140   0.179   6.519  13.716  1.2528 -1.0376 -0.7115
 3883TIP3    H233141   0.094   6.396  13.738  0.2967 -0.1486  0.6773
 3884TIP3   OH233142   2.120   2.790   1.192  0.3210  0.2929 -0.4697
 3884TIP3    H133143   2.160   2.727   1.133 -0.0671 -0.6971  0.2873
 3884TIP3    H233144   2.194   2.824   1.244  0.4615  0.0320 -0.4950
 3885TIP3   OH233145   4.981   6.217  11.990 -0.2812 -0.0351 -0.6022
 3885TIP3    H133146   4.921   6.242  11.919 -0.8829 -0.3821 -0.2300
 3885TIP3    H233147   4.947   6.133  12.020 -1.4938  1.1689  1.6604
 3886TIP3   OH233148   5.745   2.381  11.431  0.0725  0.3655  0.5560
 3886TIP3    H133149   5.759   2.434  11.509  1.6498  0.9113 -0.0387
 3886TIP3    H233150   5.763   2.441  11.358  1.2361 -0.7853 -0.1508
 3887TIP3   OH233151   1.076   0.087  14.670 -0.1836 -0.1135 -0.2173
 3887TIP3    H133152   1.150   0.027  14.663 -0.1270 -0.0840  0.1119
 3887TIP3    H233153   1.032   0.062  14.751 -0.3844  0.0376 -0.2789
 3888TIP3   OH233154   4.723   0.116   4.901  0.1518  0.7648  0.0381
 3888TIP3    H133155   4.660   0.133   4.831 -1.8902 -1.1690  1.2957
 3888TIP3    H233156   4.803   0.090   4.854 -1.0861 -0.2812 -1.5915
 3889TIP3   OH233157   1.213   5.168   4.623  0.0783  0.5196  0.0704
 3889TIP3    H133158   1.267   5.201   4.694  0.8490 -0.3843 -0.0749
 3889TIP3    H233159   1.130   5.145   4.665  0.4390  0.2283  0.6333
 3890TIP3   OH233160   3.599   2.467   4.604  0.0283  0.0429  0.5414
 3890TIP3    H133161   3.603   2.502   4.693 -0.2506 -1.4659  1.1850
 3890TIP3    H233162   3.676   2.410   4.598  0.0404  0.1352 -0.1922
 3891TIP3   OH233163   1.163   0.599   3.458  0.3646  0.0014  0.0005
 3891TIP3    H133164   1.073   0.617   3.484  1.0042  1.5691  1.3013
 3891TIP3    H233165   1.156   0.569   3.367 -1.5285 -0.9182  0.3987
 3892TIP3   OH233166   0.691   3.643   6.296  0.2377 -0.2509 -1.1262
 3892TIP3    H133167   0.688   3.568   6.236  0.6136 -1.4192  0.2768
 3892TIP3    H233168   0.779   3.640   6.333  0.0012  0.4375 -0.4987
 3893TIP3   OH233169   0.428   4.038  12.022  0.1202  0.2536 -0.2424
 3893TIP3    H133170   0.385   4.099  11.962 -0.6639 -0.0245  0.0224
 3893TIP3    H233171   0.356   3.998  12.071  0.7569  1.9715  2.3411
 3894TIP3   OH233172   0.267   5.595   4.763  0.2671 -0.1680  0.2769
 3894TIP3    H133173   0.306   5.515   4.728  0.9086 -0.9392  2.5497
 3894TIP3    H233174   0.339   5.639   4.808 -0.2811  1.2510 -0.1867
 3895TIP3   OH233175   1.907   2.126  11.751  1.0347 -1.3201 -0.0122
 3895TIP3    H133176   1.930   2.108  11.660 -0.3544 -0.6586 -0.5203
 3895TIP3    H233177   1.825   2.079  11.764  1.0054 -1.0566  0.7709
 3896TIP3   OH233178   1.894   2.424   4.043 -0.3281 -0.0470 -0.2650
 3896TIP3    H133179   1.968   2.369   4.069  0.5629  1.4838  0.5306
 3896TIP3    H233180   1.852   2.375   3.972  0.9725 -1.3142 -0.2033
 3897TIP3   OH233181   5.160   0.148   4.538 -0.3376 -0.2409 -0.1775
 3897TIP3    H133182   5.238   0.141   4.483 -0.2451 -0.7705  0.0208
 3897TIP3    H233183   5.136   0.241   4.533  1.5017  0.4041  1.3867
 3898TIP3   OH233184   1.889   2.370  17.436  0.2227 -0.4227 -0.2266
 3898TIP3    H133185   1.926   2.456  17.453  1.5626 -0.7253 -1.4488
 3898TIP3    H233186   1.901   2.322  17.519  0.5727  0.1701  0.0708
 3899TIP3   OH233187   3.893   2.787  17.366 -0.0672 -0.3852 -0.1422
 3899TIP3    H133188   3.802   2.815  17.375 -0.2392 -0.9714  0.0162
 3899TIP3    H233189   3.943   2.868  17.360 -0.7156 -0.0623 -1.4341
 3900TIP3   OH233190   2.382   2.293   4.878  0.2833  0.0488 -0.4067
 3900TIP3    H133191   2.340   2.282   4.963 -1.5277  0.3764 -1.2130
 3900TIP3    H233192   2.332   2.235   4.820  1.0886  0.3090 -1.3806
 3901TIP3   OH233193   1.112   3.868  15.144  0.8656 -0.2832  0.0995
 3901TIP3    H133194   1.018   3.855  15.155  0.4915  2.3447  0.7298
 3901TIP3    H233195   1.135   3.816  15.067 -0.4729 -3.2539  1.5375
 3902TIP3   OH233196   2.932   6.425   3.011 -0.2794  0.4126 -0.2130
 3902TIP3    H133197   2.915   6.499   2.953 -1.1200  0.7731  0.4591
 3902TIP3    H233198   2.886   6.447   3.092  0.5212 -0.2644  0.4487
 3903TIP3   OH233199   5.548   0.012   4.962  0.2341  0.4562  0.1674
 3903TIP3    H133200   5.578   0.008   4.872 -1.7852 -0.0937 -0.5374
 3903TIP3    H233201   5.525  -0.078   4.984 -0.0153  0.7018  0.9703
 3904TIP3   OH233202   2.372   5.341   3.612 -0.1368  0.1071 -0.6735
 3904TIP3    H133203   2.350   5.369   3.701  1.7083  2.7069 -0.9187
 3904TIP3    H233204   2.465   5.318   3.617  0.0824  0.6225 -1.9702
 3905TIP3   OH233205   6.318   4.831  15.141 -0.4959 -0.0672  0.4059
 3905TIP3    H133206   6.240   4.878  15.111  1.6142  1.9099 -2.6702
 3905TIP3    H233207   6.314   4.746  15.096 -0.1504  0.7048 -1.1849
 3906TIP3   OH233208   6.217   6.225  15.384  0.0002  0.3846 -0.0414
 3906TIP3    H133209   6.297   6.174  15.368 -0.0985 -0.1475  1.0625
 3906TIP3    H233210   6.176   6.233  15.298  0.3092 -0.9240 -0.3274
 3907TIP3   OH233211   0.744   0.055   3.867  0.4158 -0.0597  0.4980
 3907TIP3    H133212   0.755   0.142   3.828  0.1257 -0.2346  0.0237
 3907TIP3    H233213   0.758  -0.006   3.794  0.8151 -0.4214  0.8676
 3908TIP3   OH233214   4.442   5.889   4.294 -1.1847 -0.7137  0.6563
 3908TIP3    H133215   4.475   5.965   4.342 -0.8329  0.0784 -0.7847
 3908TIP3    H233216   4.458   5.815   4.353  2.1757 -0.2615  0.5091
 3909TIP3   OH233217   4.367   6.634  12.968  0.0509 -0.4214 -0.0180
 3909TIP3    H133218   4.314   6.711  12.948  0.3129 -0.0798  0.5667
 3909TIP3    H233219   4.319   6.590  13.038 -0.1296 -0.8271 -0.3947
 3910TIP3   OH233220   0.138   1.776   4.482 -0.0179 -0.2149  0.0649
 3910TIP3    H133221   0.098   1.829   4.552  0.0283 -0.2169  0.0932
 3910TIP3    H233222   0.182   1.840   4.426  0.2401 -0.2434  0.2323
 3911TIP3   OH233223   0.584   6.056   3.058  0.1030  0.0723 -0.4642
 3911TIP3    H133224   0.570   6.062   2.963  1.4180  1.6837 -0.5885
 3911TIP3    H233225   0.582   6.146   3.088  1.4882 -0.2881  0.7791
 3912TIP3   OH233226   5.782   4.736  15.453  0.8403 -0.4803  0.2120
 3912TIP3    H133227   5.755   4.825  15.476 -1.2052 -0.5635 -1.5548
 3912TIP3    H233228   5.854   4.717  15.512  0.7994  2.0436  1.1950
 3913TIP3   OH233229   0.261   6.745  13.057 -0.8830 -0.6086 -0.6030
 3913TIP3    H133230   0.295   6.710  12.975  0.0023  1.0340 -0.9935
 3913TIP3    H233231   0.188   6.801  13.032 -0.8691 -0.4194 -0.2335
 3914TIP3   OH233232   2.674   3.939   4.204 -0.0651 -0.1736 -0.3073
 3914TIP3    H133233   2.644   3.904   4.120 -0.8765  1.7967 -0.8813
 3914TIP3    H233234   2.739   3.875   4.234 -0.0552 -1.1419 -2.2124
 3915TIP3   OH233235   5.169   2.253  15.125  0.8126  0.4249 -0.7007
 3915TIP3    H133236   5.080   2.234  15.095 -0.0852  1.1992  1.2873
 3915TIP3    H233237   5.219   2.267  15.044 -0.8490 -0.0761 -1.8699
 3916TIP3   OH233238   0.216   1.380  17.004 -0.1494  0.6712  0.4693
 3916TIP3    H133239   0.202   1.458  16.951 -1.7412  1.1424  1.5145
 3916TIP3    H233240   0.128   1.348  17.024  0.4497 -1.4408  0.0424
 3917TIP3   OH233241   0.432   4.688  13.215 -0.1873 -0.9345 -0.2807
 3917TIP3    H133242   0.516   4.728  13.193 -0.2782 -0.4303  0.2901
 3917TIP3    H233243   0.437   4.671  13.309 -1.2149  0.2955  0.0200
 3918TIP3   OH233244   5.772   1.180  16.420  0.1658 -0.1855 -1.0658
 3918TIP3    H133245   5.851   1.141  16.383  0.5926 -0.9608  0.5835
 3918TIP3    H233246   5.728   1.108  16.464 -1.1569  0.3739 -1.4414
 3919TIP3   OH233247   4.680   0.882  13.541  0.8183 -0.4709 -0.1442
 3919TIP3    H133248   4.631   0.903  13.462  0.9510 -1.2138 -0.4280
 3919TIP3    H233249   4.692   0.787  13.538  1.0930 -0.4685  0.6095
 3920TIP3   OH233250   4.055   1.366  14.351  0.1628  0.3361  0.0734
 3920TIP3    H133251   3.996   1.291  14.361 -0.0295  0.0830 -2.4133
 3920TIP3    H233252   4.133   1.329  14.310  1.2840  1.0459  1.4577
 3921TIP3   OH233253   2.447   1.559  12.455  0.2021 -0.0909 -0.0316
 3921TIP3    H133254   2.484   1.477  12.424 -1.0976 -0.5121 -0.5126
 3921TIP3    H233255   2.442   1.614  12.377  0.2732  0.1355  0.1227
 3922TIP3   OH233256   3.601   4.414  13.013  0.2909 -0.3394 -0.0455
 3922TIP3    H133257   3.654   4.341  12.981  1.4551  0.6923 -0.5706
 3922TIP3    H233258   3.628   4.427  13.103 -0.0874 -0.6948  0.1224
 3923TIP3   OH233259   6.556   1.644  13.647 -0.5895 -0.0341 -0.1062
 3923TIP3    H133260   6.497   1.658  13.573 -1.2261 -1.6242  0.0506
 3923TIP3    H233261   6.518   1.569  13.694  0.1962  0.4794  1.4243
 3924TIP3   OH233262   1.856   1.821  11.681 -0.4742 -0.1323 -0.1704
 3924TIP3    H133263   1.945   1.853  11.696 -0.7987  0.5125  0.4327
 3924TIP3    H233264   1.860   1.777  11.596  0.0802  1.2243 -0.8858
 3925TIP3   OH233265   2.282   3.531   0.112 -0.2513 -0.4298  0.3285
 3925TIP3    H133266   2.286   3.604   0.051 -2.0080 -1.0534 -0.6371
 3925TIP3    H233267   2.373   3.511   0.132  0.4070 -0.0351 -1.9149
 3926TIP3   OH233268   2.213   0.944  14.841 -0.6691 -0.2379  0.3757
 3926TIP3    H133269   2.145   1.012  14.844 -1.6372 -1.1355 -0.7412
 3926TIP3    H233270   2.267   0.968  14.766 -1.0091 -0.6819 -0.0166
 3927TIP3   OH233271   4.494   1.161  16.050 -0.0465 -0.0473 -0.3119
 3927TIP3    H133272   4.504   1.228  16.118  0.1989  0.0488 -0.4396
 3927TIP3    H233273   4.577   1.114  16.050 -0.8613 -1.5973  1.0760
 3928TIP3   OH233274   5.818   3.309  11.395 -0.2440 -0.0974  0.1436
 3928TIP3    H133275   5.802   3.285  11.304 -0.1683 -1.4495  0.4604
 3928TIP3    H233276   5.730   3.313  11.434 -0.4312  2.4338 -0.4106
 3929TIP3   OH233277   1.798   4.053   6.356  0.0488  0.0055 -0.3667
 3929TIP3    H133278   1.874   3.995   6.360  1.3094  1.3215 -2.7058
 3929TIP3    H233279   1.827   4.133   6.399 -0.7851 -0.1976  0.5978
 3930TIP3   OH233280   5.145   5.735   4.644  0.0438 -0.0941 -0.0820
 3930TIP3    H133281   5.092   5.666   4.682  0.0188  0.3939  0.7916
 3930TIP3    H233282   5.137   5.722   4.549 -1.4559 -0.1520  0.0300
 3931TIP3   OH233283   1.515   3.292   3.927 -0.2560 -0.0525  0.2811
 3931TIP3    H133284   1.478   3.375   3.894 -0.1497 -0.1246 -0.0212
 3931TIP3    H233285   1.545   3.313   4.015 -4.6166 -0.9270  2.2367
 3932TIP3   OH233286   6.256   2.689   0.208 -0.3689  0.1792 -0.3415
 3932TIP3    H133287   6.342   2.724   0.230  0.9043 -2.2100 -1.2055
 3932TIP3    H233288   6.273   2.622   0.142 -2.9451 -0.0864 -0.8349
 3933TIP3   OH233289   2.129   2.639  15.447  0.4078  0.0614 -0.1383
 3933TIP3    H133290   2.209   2.691  15.435  0.8344 -0.0752  1.8545
 3933TIP3    H233291   2.072   2.693  15.501  0.1368 -0.8225  0.4761
 3934TIP3   OH233292   2.581   0.167  13.543  0.2838 -0.0119  0.4912
 3934TIP3    H133293   2.625   0.087  13.513  0.2751 -0.1064  0.7337
 3934TIP3    H233294   2.516   0.185  13.475  0.7910  0.2083  0.0571
 3935TIP3   OH233295   6.045   4.495   2.668 -0.0772 -0.7607  0.7103
 3935TIP3    H133296   6.033   4.401   2.678 -3.4557 -0.4418  0.6318
 3935TIP3    H233297   6.006   4.516   2.583  1.4289  0.6238  0.3087
 3936TIP3   OH233298   0.606   0.074  15.469 -0.4293  0.6586 -0.2581
 3936TIP3    H133299   0.587   0.162  15.438 -1.7980  0.9666  1.2927
 3936TIP3    H233300   0.690   0.082  15.513 -0.2661  1.0513 -0.6369
 3937TIP3   OH233301   4.743   6.031  16.676  0.2336 -0.1272  0.0362
 3937TIP3    H133302   4.719   6.123  16.688 -0.8307 -0.2030 -1.2529
 3937TIP3    H233303   4.830   6.034  16.636  0.7201  0.2730  1.0953
 3938TIP3   OH233304   1.919   0.763   1.159  0.3059 -0.7678 -0.5074
 3938TIP3    H133305   1.925   0.830   1.091 -0.7201 -0.4779 -0.3347
 3938TIP3    H233306   1.879   0.688   1.115 -1.7330 -0.0928  0.0622
 3939TIP3   OH233307   1.246   5.126   0.390 -0.4066 -0.3983 -0.0796
 3939TIP3    H133308   1.295   5.095   0.313  3.1346 -0.2796  1.8856
 3939TIP3    H233309   1.193   5.199   0.357  3.1190  1.5504 -2.0707
 3940TIP3   OH233310   0.827   6.191   3.209  0.0255 -0.0102  0.0455
 3940TIP3    H133311   0.817   6.126   3.278 -2.7465 -0.2045 -0.4164
 3940TIP3    H233312   0.872   6.144   3.138  0.2321 -0.6700  0.5999
 3941TIP3   OH233313   2.920   1.042   4.308 -0.3335 -0.0945 -0.4024
 3941TIP3    H133314   3.010   1.010   4.317 -0.7269 -0.9152  0.8272
 3941TIP3    H233315   2.913   1.068   4.216  0.3708 -2.5131 -1.2181
 3942TIP3   OH233316   3.387   1.360  16.929 -0.0223  0.1604 -0.5046
 3942TIP3    H133317   3.477   1.328  16.939 -0.8350 -2.1197  0.1090
 3942TIP3    H233318   3.346   1.342  17.013 -1.7759 -1.4278 -1.6114
 3943TIP3   OH233319   4.811   3.179   3.539 -0.0369  0.2188  0.0665
 3943TIP3    H133320   4.734   3.140   3.581 -0.6375  1.5824  0.2908
 3943TIP3    H233321   4.777   3.218   3.458  0.4989  0.4115 -0.0691
 3944TIP3   OH233322   1.293   2.936  12.882  0.2390 -0.1684  0.1300
 3944TIP3    H133323   1.268   2.849  12.850  2.0867 -0.1832 -1.4373
 3944TIP3    H233324   1.347   2.918  12.959 -1.5096 -0.2454  1.4168
 3945TIP3   OH233325   3.474   4.931   3.183  0.2812  0.4100  0.2478
 3945TIP3    H133326   3.395   4.883   3.204 -0.2090  0.9959 -0.2345
 3945TIP3    H233327   3.450   4.988   3.110  0.9907  0.9940  0.4490
 3946TIP3   OH233328   1.342   6.319   2.824 -0.1293 -0.3636 -0.5262
 3946TIP3    H133329   1.384   6.242   2.862  0.7276  0.0868 -0.5404
 3946TIP3    H233330   1.411   6.386   2.823 -1.0441  0.6096  0.0858
 3947TIP3   OH233331   0.141   2.010  12.847 -0.2413  0.4376 -0.9189
 3947TIP3    H133332   0.083   2.082  12.821  0.8397  1.9071  0.5685
 3947TIP3    H233333   0.083   1.935  12.858 -1.5870  1.3961 -1.2781
 3948TIP3   OH233334   6.108   2.046  16.696 -0.2971 -0.2538 -0.1517
 3948TIP3    H133335   6.197   2.011  16.706  0.6659  1.5567 -1.8235
 3948TIP3    H233336   6.092   2.095  16.776  1.2122  1.3889 -0.7917
 3949TIP3   OH233337   4.491   0.917   4.390  0.6878 -0.0896 -0.2915
 3949TIP3    H133338   4.482   1.008   4.419  0.2945  0.1599 -1.1542
 3949TIP3    H233339   4.401   0.888   4.376  0.6943 -1.1909  1.6391
 3950TIP3   OH233340   2.882   6.128   5.834 -0.1873 -0.5575  0.0453
 3950TIP3    H133341   2.849   6.139   5.745 -0.6083 -1.1597  0.1265
 3950TIP3    H233342   2.882   6.034   5.849 -2.8827 -0.3830  1.7155
 3951TIP3   OH233343   5.074   4.191  15.607 -0.2077 -0.4060 -0.4191
 3951TIP3    H133344   5.104   4.273  15.568  0.0416 -0.5139 -0.4531
 3951TIP3    H233345   4.980   4.205  15.621 -0.3975 -0.5377 -1.4954
 3952TIP3   OH233346   4.025   4.903   4.435 -0.4760  0.2759 -0.1073
 3952TIP3    H133347   3.976   4.826   4.464 -3.1560  1.7454 -0.4495
 3952TIP3    H233348   3.998   4.917   4.345 -0.8839  2.1765  0.2488
 3953TIP3   OH233349   0.848   3.308  13.283 -0.1695 -0.1138  0.5146
 3953TIP3    H133350   0.876   3.344  13.199 -1.5016  1.7628  0.8319
 3953TIP3    H233351   0.920   3.249  13.309  1.1810  0.8116 -0.9666
 3954TIP3   OH233352   4.019   1.529   2.331  0.3838  0.2776  0.0555
 3954TIP3    H133353   3.925   1.522   2.312  0.3712 -0.1960  0.2793
 3954TIP3    H233354   4.042   1.444   2.368  0.7165  0.6975  0.8200
 3955TIP3   OH233355   6.699   4.498  12.670 -0.2439  0.3874 -0.0088
 3955TIP3    H133356   6.640   4.513  12.743  0.3836  0.6799  0.4483
 3955TIP3    H233357   6.754   4.425  12.698  0.8396  1.3187  0.3437
 3956TIP3   OH233358   0.711   0.325   1.185 -0.2403  0.6245  0.1119
 3956TIP3    H133359   0.783   0.266   1.211 -1.3487 -0.0561  1.7823
 3956TIP3    H233360   0.682   0.290   1.101 -0.3855 -0.7960  0.7154
 3957TIP3   OH233361   1.680   5.230  11.559  0.0232  0.2667  0.2476
 3957TIP3    H133362   1.754   5.219  11.620  0.1515 -1.5485 -0.1596
 3957TIP3    H233363   1.718   5.275  11.484  0.3483  0.7237  0.6784
 3958TIP3   OH233364   4.330   0.364   1.064  0.0043  0.3087 -1.2556
 3958TIP3    H133365   4.271   0.347   0.990 -1.1605 -0.0123 -0.2753
 3958TIP3    H233366   4.303   0.301   1.131  1.7454 -0.1257 -0.9304
 3959TIP3   OH233367   6.695   5.297   5.353 -0.4590 -0.4602 -0.2871
 3959TIP3    H133368   6.633   5.287   5.425 -1.8386  0.1234 -1.3498
 3959TIP3    H233369   6.648   5.350   5.288  1.8717  1.7682 -0.3011
 3960TIP3   OH233370   2.708   5.417   1.260  0.1951  0.1894 -0.4396
 3960TIP3    H133371   2.625   5.463   1.276  0.2916  0.8814 -1.8242
 3960TIP3    H233372   2.767   5.484   1.226  1.5028 -0.1888  0.9241
 3961TIP3   OH233373   3.550   0.061  13.262 -0.0750 -0.2993 -0.6063
 3961TIP3    H133374   3.523   0.153  13.272  0.4492 -0.0531 -1.3809
 3961TIP3    H233375   3.498   0.014  13.326  1.6640  0.9166  1.8889
 3962TIP3   OH233376   0.285   5.678  15.076 -0.3923 -0.1449  0.3642
 3962TIP3    H133377   0.317   5.722  15.155  3.1875  1.1697 -1.6051
 3962TIP3    H233378   0.310   5.586  15.088  0.5372  0.1324  0.5935
 3963TIP3   OH233379   1.759   3.679  15.859 -0.1110  0.0062 -0.4882
 3963TIP3    H133380   1.841   3.630  15.863 -0.1962 -0.0465  0.7338
 3963TIP3    H233381   1.718   3.649  15.777  0.8995 -0.2505 -0.9145
 3964TIP3   OH233382   0.677   5.244   6.000 -0.4258 -0.2666 -0.4722
 3964TIP3    H133383   0.742   5.220   6.067 -0.3398  0.1434 -0.4035
 3964TIP3    H233384   0.613   5.296   6.048  1.2035  2.6896 -1.2338
 3965TIP3   OH233385   6.631   1.808   1.498  0.2399  0.1716 -0.4106
 3965TIP3    H133386   6.671   1.753   1.431  2.6350 -2.4833  2.8704
 3965TIP3    H233387   6.704   1.852   1.540 -0.2663 -2.5027  3.8469
 3966TIP3   OH233388   3.115   3.190   4.748 -0.3473 -0.5441  0.4619
 3966TIP3    H133389   3.182   3.256   4.767 -1.5358  0.6526  0.6487
 3966TIP3    H233390   3.114   3.184   4.653 -1.9582  1.6290  0.2782
 3967TIP3   OH233391   3.653   2.564   4.871 -0.5229  0.5415 -0.1888
 3967TIP3    H133392   3.618   2.640   4.825 -0.6531  1.4665  1.3483
 3967TIP3    H233393   3.724   2.599   4.925 -0.4087 -0.4701  0.3447
 3968TIP3   OH233394   0.432   3.133   0.959 -0.0961  0.2262  0.0669
 3968TIP3    H133395   0.523   3.118   0.932  0.2739  0.7656  0.9892
 3968TIP3    H233396   0.411   3.057   1.014  0.3212  0.8563  1.1224
 3969TIP3   OH233397   3.023   4.267  15.104  0.3016 -0.0609  0.4219
 3969TIP3    H133398   3.051   4.334  15.167  0.1211 -0.6690  1.1702
 3969TIP3    H233399   3.093   4.264  15.039  0.0218  1.2764  0.0304
 3970TIP3   OH233400   1.940   4.112  11.693  0.4218  0.9424 -0.2070
 3970TIP3    H133401   1.928   4.124  11.788  0.1141 -1.9183  0.2003
 3970TIP3    H233402   1.974   4.023  11.685  1.3350  1.4578 -2.7699
 3971TIP3   OH233403   3.257   1.883   6.573  0.0750 -0.4004 -0.0571
 3971TIP3    H133404   3.240   1.793   6.544 -0.9666 -0.1536 -0.2591
 3971TIP3    H233405   3.346   1.880   6.609 -0.3712 -1.7792  1.0239
 3972TIP3   OH233406   6.377   2.122  15.044  0.0112 -0.7239  0.1517
 3972TIP3    H133407   6.294   2.085  15.073  0.4647 -2.5925 -0.7844
 3972TIP3    H233408   6.399   2.074  14.964  0.5731  1.7411 -1.3095
 3973TIP3   OH233409   6.716   3.406   0.017 -0.9651 -0.0454  0.0776
 3973TIP3    H133410   6.634   3.410  -0.032 -0.6234  2.4029 -0.4025
 3973TIP3    H233411   6.716   3.485   0.071  0.6813 -0.4555  0.7288
 3974TIP3   OH233412   6.325   2.243  16.933 -0.3532 -0.1331  0.4277
 3974TIP3    H133413   6.304   2.224  17.025  1.2829 -0.1002  0.8406
 3974TIP3    H233414   6.328   2.339  16.930  0.5291 -0.1496  0.5815
 3975TIP3   OH233415   6.376   6.198   3.339  0.2562  0.5421 -0.4477
 3975TIP3    H133416   6.304   6.241   3.294 -0.2316 -0.8334 -1.0309
 3975TIP3    H233417   6.349   6.194   3.430 -1.4789 -1.9194 -0.9706
 3976TIP3   OH233418   5.555   2.211  13.817 -0.4578 -0.2577 -1.0677
 3976TIP3    H133419   5.486   2.268  13.785 -1.3035 -1.0411 -0.6783
 3976TIP3    H233420   5.512   2.127  13.832  0.1693 -0.2764  0.8734
 3977TIP3   OH233421   5.938   4.677  15.976 -0.5376 -0.1483 -0.3101
 3977TIP3    H133422   5.843   4.677  15.986 -0.4807  0.2016  0.2994
 3977TIP3    H233423   5.965   4.589  16.003 -0.4801  0.4845  1.9537
 3978TIP3   OH233424   6.023   0.709   2.586 -0.5880  0.2376  0.7234
 3978TIP3    H133425   5.966   0.635   2.609 -0.4760  0.1309  0.6604
 3978TIP3    H233426   6.078   0.675   2.516 -0.7471  0.4825  0.4828
 3979TIP3   OH233427   5.368   1.918  16.622 -0.4539 -0.5666 -0.1045
 3979TIP3    H133428   5.294   1.896  16.566 -1.5039 -0.9097  1.3705
 3979TIP3    H233429   5.418   1.982  16.571 -0.7265 -1.7163 -1.8948
 3980TIP3   OH233430   1.218   2.539  16.669  0.0360 -0.1386 -0.2292
 3980TIP3    H133431   1.309   2.528  16.698  0.4138 -1.2445 -1.6992
 3980TIP3    H233432   1.205   2.634  16.664  1.4460  0.0439 -0.9322
 3981TIP3   OH233433   6.248   2.787   1.274 -0.2343  0.3662  0.2018
 3981TIP3    H133434   6.158   2.756   1.284  0.3628 -1.5593  0.0464
 3981TIP3    H233435   6.242   2.881   1.288 -2.0247  0.0824  1.8769
 3982TIP3   OH233436   1.075   1.958  15.749  0.9461  0.5232 -0.0617
 3982TIP3    H133437   1.110   2.047  15.742  1.2174  0.3660 -0.8854
 3982TIP3    H233438   1.134   1.914  15.810 -1.2127  1.8324  3.2091
 3983TIP3   OH233439   4.573   3.389  17.432  0.3908  0.0505  0.0559
 3983TIP3    H133440   4.663   3.361  17.445  0.3640  0.1757  0.5107
 3983TIP3    H233441   4.581   3.479  17.399  0.4519 -0.2277 -0.7263
 3984TIP3   OH233442   3.380   2.968  16.690 -0.0238 -0.5911 -0.0274
 3984TIP3    H133443   3.453   2.908  16.677 -1.0789 -1.7215 -1.0234
 3984TIP3    H233444   3.321   2.922  16.750  0.0546  0.2976  0.7540
 3985TIP3   OH233445   1.683   0.602  17.251 -0.0361 -0.1458  0.5817
 3985TIP3    H133446   1.604   0.653  17.270  0.6927  1.5697 -0.7248
 3985TIP3    H233447   1.693   0.543  17.326 -1.1666  1.3268  1.9389
 3986TIP3   OH233448   0.030   6.161  15.180 -0.5185 -0.0496  0.4558
 3986TIP3    H133449   0.120   6.135  15.196 -0.8317 -0.0012  2.5979
 3986TIP3    H233450  -0.003   6.096  15.117  0.8065 -0.4327  0.1293
 3987TIP3   OH233451   2.799   0.370   0.395 -0.2137 -0.0004 -0.2133
 3987TIP3    H133452   2.757   0.295   0.438  1.4841 -0.3163  1.0321
 3987TIP3    H233453   2.818   0.430   0.467  1.5247  0.0692 -0.6886
 3988TIP3   OH233454   0.091   3.308  11.718 -0.6837  0.3164 -0.0570
 3988TIP3    H133455   0.146   3.238  11.683  0.1798  0.7414  0.4146
 3988TIP3    H233456   0.081   3.286  11.810 -0.3663  0.8258  0.1049
 3989TIP3   OH233457   2.690   3.544   0.009 -0.3846  0.5855  0.1086
 3989TIP3    H133458   2.728   3.473  -0.043 -2.8179 -1.2415  0.6598
 3989TIP3    H233459   2.617   3.576  -0.043 -0.7711  1.0400  0.9130
 3990TIP3   OH233460   3.259   6.059   1.397  0.0779 -0.1413  0.1728
 3990TIP3    H133461   3.225   6.079   1.310 -0.2395 -2.3989 -0.2694
 3990TIP3    H233462   3.181   6.039   1.449  0.4381 -1.4290  0.2395
 3991TIP3   OH233463   1.294   0.524   5.401  0.5160  0.2628  0.1110
 3991TIP3    H133464   1.236   0.504   5.328  0.2141 -0.9385  0.6443
 3991TIP3    H233465   1.247   0.492   5.478  0.8966  1.3589  0.8146
 3992TIP3   OH233466   5.299   3.582  16.287 -0.0530  0.5844  0.5385
 3992TIP3    H133467   5.374   3.565  16.344 -1.6703 -1.1506  2.3212
 3992TIP3    H233468   5.290   3.501  16.236  0.4223  1.5277 -1.0893
 3993TIP3   OH233469   3.809   4.540   2.631  0.0214  0.0539  0.0060
 3993TIP3    H133470   3.753   4.574   2.700  0.0846 -3.5414  2.0309
 3993TIP3    H233471   3.886   4.505   2.676  1.3082 -0.1558 -2.1677
 3994TIP3   OH233472   6.081   0.751  12.388 -0.5991  0.0444  0.3166
 3994TIP3    H133473   6.037   0.804  12.454  0.4883 -0.6301  1.6437
 3994TIP3    H233474   6.081   0.805  12.309 -2.1081  0.7977  0.7895
 3995TIP3   OH233475   1.345   4.647   4.555 -0.1567  0.4574 -0.4504
 3995TIP3    H133476   1.282   4.575   4.561 -1.0174  1.1734 -0.5708
 3995TIP3    H233477   1.412   4.627   4.620  0.3616 -1.1449 -1.4194
 3996TIP3   OH233478   3.090   1.635  17.298  0.0312 -0.1322 -0.0726
 3996TIP3    H133479   3.141   1.559  17.273  1.1009  0.1346  1.1601
 3996TIP3    H233480   2.999   1.604  17.302  0.3496 -1.1239 -0.3785
 3997TIP3   OH233481   0.308   0.897  15.001  0.6433  0.0507  0.3222
 3997TIP3    H133482   0.260   0.911  14.919  0.0086 -2.3975  0.1928
 3997TIP3    H233483   0.386   0.952  14.993  0.5578 -0.0697 -1.9048
 3998TIP3   OH233484   0.191   3.679  17.005 -0.1596  0.0922 -0.1121
 3998TIP3    H133485   0.124   3.614  17.026 -0.3793  0.5573  0.6713
 3998TIP3    H233486   0.274   3.637  17.027 -0.2540 -0.1403 -0.1942
 3999TIP3   OH233487   1.753   3.552   3.810 -0.2174 -0.2795 -0.3559
 3999TIP3    H133488   1.829   3.567   3.754  1.6523  0.3773  2.1906
 3999TIP3    H233489   1.788   3.513   3.889 -1.5092  4.7571  3.1804
 4000TIP3   OH233490   3.699   1.194  17.477 -0.1291  0.5853 -0.2694
 4000TIP3    H133491   3.775   1.188  17.535  0.8277  2.0531 -1.3259
 4000TIP3    H233492   3.736   1.191  17.389 -1.4008  0.2968 -0.8138
 4001TIP3   OH233493   0.167   3.263   4.512  0.4955  0.0440 -0.0788
 4001TIP3    H133494   0.223   3.199   4.557  0.3705 -0.5007 -0.6727
 4001TIP3    H233495   0.129   3.213   4.440  2.4422  1.4204 -2.2096
 4002TIP3   OH233496   5.717   6.066  15.636 -0.3803 -0.7455 -0.0842
 4002TIP3    H133497   5.752   5.983  15.604  0.9503 -0.7131  1.1864
 4002TIP3    H233498   5.778   6.132  15.604 -0.2395 -0.4924  0.6923
 4003TIP3   OH233499   2.654   4.710   4.808 -0.2212 -0.5486  0.3241
 4003TIP3    H133500   2.628   4.667   4.726 -0.8682  0.6987 -0.1529
 4003TIP3    H233501   2.714   4.779   4.781 -0.2089 -0.3128  0.9413
 4004TIP3   OH233502   4.741   5.401  11.358 -0.2230 -0.6116 -0.0357
 4004TIP3    H133503   4.778   5.320  11.392  0.7787  0.3558  1.3387
 4004TIP3    H233504   4.796   5.423  11.283  0.5482 -0.3931  0.5761
 4005TIP3   OH233505   6.666   2.155  12.841  0.4156  0.0840  0.7539
 4005TIP3    H133506   6.594   2.092  12.838  0.0392  0.5519 -0.7067
 4005TIP3    H233507   6.674   2.177  12.934  0.7004 -2.2424  1.3546
 4006TIP3   OH233508   2.846   3.852  11.705  0.1357  0.7715 -0.7456
 4006TIP3    H133509   2.859   3.891  11.618 -2.3026  4.3205  0.2627
 4006TIP3    H233510   2.930   3.864  11.750  0.7433  0.8979 -1.8788
 4007TIP3   OH233511   6.052   0.158   4.850  0.4934 -0.1124  0.3755
 4007TIP3    H133512   6.017   0.126   4.933 -1.8408 -4.0068 -1.7784
 4007TIP3    H233513   5.983   0.216   4.816  0.6929  0.1468  0.4090
 4008TIP3   OH233514   0.658   2.949   2.634 -0.6401 -0.4302  0.7959
 4008TIP3    H133515   0.593   2.879   2.626 -0.0103 -0.7955 -2.1090
 4008TIP3    H233516   0.742   2.905   2.625 -0.1080  0.4276  1.3850
 4009TIP3   OH233517   1.830   3.782  14.816 -0.6733  0.0334 -0.0184
 4009TIP3    H133518   1.752   3.805  14.765 -1.2360 -1.8294 -0.0774
 4009TIP3    H233519   1.900   3.834  14.777 -1.4868  0.1895 -1.3399
 4010TIP3   OH233520   5.649   4.593  11.781 -0.2055  0.5737 -0.3559
 4010TIP3    H133521   5.734   4.590  11.825 -0.7884  1.7753  0.9422
 4010TIP3    H233522   5.665   4.556  11.695  1.3038 -0.5838  0.3702
 4011TIP3   OH233523   5.437   0.034   1.103  0.4731 -0.0764  0.7371
 4011TIP3    H133524   5.477  -0.052   1.093  0.2302 -0.3355  1.8290
 4011TIP3    H233525   5.502   0.096   1.069 -0.1736 -0.7928 -2.0281
 4012TIP3   OH233526   2.935   4.060  14.178  0.8103  0.1326  0.0242
 4012TIP3    H133527   2.890   4.008  14.246  0.1305  3.3337  2.2509
 4012TIP3    H233528   2.869   4.071  14.109  0.5866 -0.9206  0.0462
 4013TIP3   OH233529   1.861   1.731   2.693 -0.0917 -0.1411 -0.4586
 4013TIP3    H133530   1.948   1.705   2.723  0.9346  2.2651 -1.1355
 4013TIP3    H233531   1.817   1.765   2.771  0.0600 -0.1419 -0.3740
 4014TIP3   OH233532   5.558   3.354   4.810  0.0525  0.9988  0.3849
 4014TIP3    H133533   5.535   3.263   4.794  1.4962  0.4061  1.4913
 4014TIP3    H233534   5.479   3.403   4.787 -0.6855 -0.4921 -0.4080
 4015TIP3   OH233535   2.749   6.610   2.174  0.0707  0.5033 -0.3512
 4015TIP3    H133536   2.834   6.655   2.176 -0.2303  1.1681 -1.5170
 4015TIP3    H233537   2.770   6.518   2.192  1.1937  0.4672 -1.7032
 4016TIP3   OH233538   1.173   4.717   0.998 -0.0211  0.2664 -0.0251
 4016TIP3    H133539   1.096   4.676   1.039  0.3303  0.5656  0.9628
 4016TIP3    H233540   1.168   4.808   1.026  2.0459 -0.2126  2.1738
 4017TIP3   OH233541   5.730   3.920   2.114 -0.4942  0.3213 -0.6589
 4017TIP3    H133542   5.728   3.860   2.189 -0.5816 -1.0486 -1.7262
 4017TIP3    H233543   5.816   3.906   2.074 -0.2409  1.4176 -0.5533
 4018TIP3   OH233544   5.309   0.164  16.671 -0.1677 -0.2030  0.1939
 4018TIP3    H133545   5.395   0.201  16.693 -0.5328  1.2619 -0.7246
 4018TIP3    H233546   5.255   0.240  16.652 -1.4767 -1.1500  0.0381
 4019TIP3   OH233547   1.854   5.540  16.690  0.0234 -0.8515  0.1045
 4019TIP3    H133548   1.830   5.595  16.764 -2.0380 -0.0283 -1.0860
 4019TIP3    H233549   1.924   5.587  16.645  0.2744 -0.6497  0.7079
 4020TIP3   OH233550   2.076   3.759  15.585  0.7000 -0.1341  0.6226
 4020TIP3    H133551   2.077   3.850  15.613 -1.4039 -0.2027  1.1165
 4020TIP3    H233552   2.164   3.743  15.550  0.3909  2.8049 -1.8345
 4021TIP3   OH233553   4.575   5.476   1.041  0.6729  0.1057  0.4236
 4021TIP3    H133554   4.668   5.477   1.019  0.7710 -0.5851  0.7577
 4021TIP3    H233555   4.530   5.482   0.957  1.0271 -0.2091  0.2057
 4022TIP3   OH233556   6.392   5.216   1.073  0.0610  0.4168 -0.1697
 4022TIP3    H133557   6.449   5.269   1.130  0.2967 -0.7227  0.6977
 4022TIP3    H233558   6.396   5.128   1.111 -1.1695  0.0082 -0.9444
 4023TIP3   OH233559   1.718   2.057   4.703  0.4520  0.4700 -0.0445
 4023TIP3    H133560   1.676   2.119   4.762 -0.6822  0.8898 -1.2392
 4023TIP3    H233561   1.734   2.107   4.623 -0.0621 -0.6158 -0.8637
 4024TIP3   OH233562   3.778   2.955  12.619 -0.9777 -0.0039  0.4193
 4024TIP3    H133563   3.702   2.930  12.672  0.0436 -1.4639  1.2723
 4024TIP3    H233564   3.756   3.041  12.584 -2.0245  0.6789  2.6099
 4025TIP3   OH233565   3.659   3.916   0.615  0.2407  0.3070 -0.3463
 4025TIP3    H133566   3.667   3.994   0.560 -2.5011  0.0628 -1.2389
 4025TIP3    H233567   3.571   3.922   0.652  0.5866 -1.5488  0.9233
 4026TIP3   OH233568   0.071   4.605  12.382  0.2228  0.2215  0.0230
 4026TIP3    H133569   0.043   4.533  12.325 -0.1318  1.4230 -1.4061
 4026TIP3    H233570  -0.003   4.619  12.440 -0.8211  1.0974 -1.4379
 4027TIP3   OH233571   4.759   2.366   4.206  0.2372 -0.0565 -0.2200
 4027TIP3    H133572   4.799   2.389   4.122  1.1777 -0.6348  0.0533
 4027TIP3    H233573   4.691   2.433   4.219  0.6325  0.5297 -1.0445
 4028TIP3   OH233574   0.715   4.829   3.749  0.0821  0.5833  0.3997
 4028TIP3    H133575   0.737   4.768   3.819  0.6282  0.6112  0.2546
 4028TIP3    H233576   0.713   4.776   3.670  1.5046  0.9075  0.1233
 4029TIP3   OH233577   2.874   0.962  10.982  0.7568 -0.2080  0.4336
 4029TIP3    H133578   2.850   0.893  10.921  0.9811  1.8427 -2.1070
 4029TIP3    H233579   2.968   0.950  10.997  0.6265 -0.9370  0.6763
 4030TIP3   OH233580   5.725   0.787   2.518  0.5373  0.1891 -0.0149
 4030TIP3    H133581   5.810   0.778   2.475  0.3321 -0.9658 -0.1993
 4030TIP3    H233582   5.694   0.873   2.491 -0.0367 -0.8530 -3.0325
 4031TIP3   OH233583   4.093   3.586  11.262 -0.1233 -0.5053 -0.1123
 4031TIP3    H133584   4.164   3.555  11.319  0.8450  1.2442 -0.2900
 4031TIP3    H233585   4.138   3.623  11.186 -1.2959 -0.5289 -0.8446
 4032TIP3   OH233586   3.833   5.732  15.709  0.4027  0.1934  0.3305
 4032TIP3    H133587   3.891   5.766  15.777 -0.1643  1.0401  0.4055
 4032TIP3    H233588   3.752   5.781  15.720  0.7485  1.3762 -1.8436
 4033TIP3   OH233589   0.580   2.631   2.927  0.3019 -0.1518 -0.6575
 4033TIP3    H133590   0.562   2.693   2.856  0.4346 -0.3620 -0.8733
 4033TIP3    H233591   0.675   2.630   2.934  0.2547  1.3795  0.8551
 4034TIP3   OH233592   0.103   5.846   5.518  0.1964 -0.0638  0.2847
 4034TIP3    H133593   0.162   5.898   5.464 -1.9149  0.7937 -1.3260
 4034TIP3    H233594   0.035   5.908   5.546  0.7402 -0.6620  3.3176
 4035TIP3   OH233595   0.844   6.228   4.458  0.5414  0.2679 -0.5283
 4035TIP3    H133596   0.844   6.188   4.545  1.0553  0.9175 -0.2174
 4035TIP3    H233597   0.762   6.278   4.454 -0.6371 -1.6062 -1.3239
 4036TIP3   OH233598   6.318   6.657  13.518 -0.3110  0.0690  0.2106
 4036TIP3    H133599   6.392   6.599  13.535  0.4491 -0.0207 -2.7878
 4036TIP3    H233600   6.355   6.727  13.464 -2.1349  0.7925 -0.1746
 4037TIP3   OH233601   0.192   4.929  14.971 -0.3465  0.1872  0.0709
 4037TIP3    H133602   0.172   4.931  15.064 -1.5212 -1.8644 -0.0745
 4037TIP3    H233603   0.242   4.848  14.958 -1.3939 -0.2923 -1.2582
 4038TIP3   OH233604   1.116   4.062  12.470  0.1343  0.5039 -0.1909
 4038TIP3    H133605   1.176   4.064  12.395 -1.2287  1.2566 -1.3179
 4038TIP3    H233606   1.173   4.056  12.546  1.7421  2.7321 -1.1047
 4039TIP3   OH233607   0.444   4.175   3.908  0.1305 -0.3228 -0.4404
 4039TIP3    H133608   0.489   4.133   3.835 -0.0131 -1.5706  0.1504
 4039TIP3    H233609   0.351   4.171   3.885  0.1297 -0.1691 -0.4637
 4040TIP3   OH233610   2.898   0.738  15.251  0.0306  0.7248 -0.5299
 4040TIP3    H133611   2.942   0.683  15.316 -1.3814  0.9916  0.6844
 4040TIP3    H233612   2.907   0.689  15.169 -1.5234 -1.5938  0.5589
 4041TIP3   OH233613   6.439   6.571  14.417 -0.0547 -0.3885  0.0255
 4041TIP3    H133614   6.392   6.487  14.418 -1.1788  0.2114 -0.1288
 4041TIP3    H233615   6.458   6.586  14.324  1.1590 -0.9993  0.1612
 4042TIP3   OH233616   0.661   2.430  13.778 -0.1999  0.2494  0.7245
 4042TIP3    H133617   0.693   2.512  13.816  0.7987  0.8027 -1.1542
 4042TIP3    H233618   0.622   2.457  13.695 -1.4976 -0.9983  0.8939
 4043TIP3   OH233619   4.107   2.183   6.364 -0.0084 -0.1890  0.6058
 4043TIP3    H133620   4.185   2.231   6.391  0.4863 -1.4152  1.4378
 4043TIP3    H233621   4.119   2.168   6.270  0.0482  0.8622  0.4264
 4044TIP3   OH233622   6.255   2.991  17.266  0.2486 -0.7528 -0.2550
 4044TIP3    H133623   6.208   2.908  17.258 -1.2458 -0.2037  2.0344
 4044TIP3    H233624   6.221   3.045  17.195 -0.6513 -1.2520 -0.2146
 4045TIP3   OH233625   3.312   2.332   3.266 -0.3042 -0.4076 -0.4360
 4045TIP3    H133626   3.217   2.337   3.277 -0.3451 -0.1278 -0.8861
 4045TIP3    H233627   3.346   2.352   3.353 -0.6461  0.4346 -0.4781
 4046TIP3   OH233628   2.708   3.727  15.071  0.0813  0.0051 -0.2574
 4046TIP3    H133629   2.657   3.738  15.151 -2.1410  1.2427 -1.7539
 4046TIP3    H233630   2.729   3.816  15.043  0.9197 -0.4123 -1.0129
 4047TIP3   OH233631   4.110   6.473  17.501  0.5488  0.2338  0.6068
 4047TIP3    H133632   4.021   6.499  17.479 -0.0104 -1.3819  0.8407
 4047TIP3    H233633   4.130   6.522  17.581 -0.4987 -0.1015  1.0925
 4048TIP3   OH233634   2.675   5.331  15.794  0.2472 -0.2711 -0.7752
 4048TIP3    H133635   2.658   5.319  15.888  0.8044 -0.8494 -0.7383
 4048TIP3    H233636   2.659   5.424  15.778  0.8810 -0.0032  0.0530
 4049TIP3   OH233637   6.275   3.561  10.998 -0.3169  0.3482  0.1477
 4049TIP3    H133638   6.362   3.600  11.005 -0.6868  1.0542  1.1316
 4049TIP3    H233639   6.291   3.469  10.980  0.5978  0.7743 -1.3956
 4050TIP3   OH233640   4.290   6.750   1.779  0.4392 -0.3258 -0.1032
 4050TIP3    H133641   4.318   6.683   1.716 -3.0130 -1.8385 -0.2260
 4050TIP3    H233642   4.195   6.742   1.782 -0.1921  4.4346  0.1275
 4051TIP3   OH233643   0.612   4.519  12.167  0.1943 -0.2347 -0.0316
 4051TIP3    H133644   0.545   4.451  12.167  0.9642 -1.0009 -0.2748
 4051TIP3    H233645   0.627   4.538  12.259  2.2994 -2.7591  0.2658
 4052TIP3   OH233646   1.095   0.798   6.245  0.1591  0.2675  0.2065
 4052TIP3    H133647   1.160   0.837   6.303  1.1745 -0.2387 -0.5617
 4052TIP3    H233648   1.025   0.863   6.241  1.4505  1.6904 -0.4155
 4053TIP3   OH233649   4.051   2.487   2.933 -0.8770 -0.7582  0.1711
 4053TIP3    H133650   4.085   2.463   3.019 -2.4035  0.2709  1.1002
 4053TIP3    H233651   4.072   2.580   2.924  0.8779 -1.2379 -1.3983
 4054TIP3   OH233652   2.452   2.093   2.522  0.0353 -0.4356 -0.0634
 4054TIP3    H133653   2.518   2.148   2.565  2.2253 -2.1793 -0.9633
 4054TIP3    H233654   2.435   2.137   2.439 -0.3226  0.2898  0.3870
 4055TIP3   OH233655   1.743   5.529   4.431 -0.0656  0.2400 -0.3901
 4055TIP3    H133656   1.725   5.438   4.410 -1.3300  0.1845  0.7985
 4055TIP3    H233657   1.765   5.569   4.346 -1.2164 -0.7791 -1.2059
 4056TIP3   OH233658   1.718   5.897  14.901 -0.3042 -0.7584  0.2618
 4056TIP3    H133659   1.685   5.986  14.892  1.9768  0.2685  1.3505
 4056TIP3    H233660   1.677   5.849  14.828  0.3185  1.7342 -1.8803
 4057TIP3   OH233661   6.144   5.135  13.425 -0.0094  0.3351 -0.3736
 4057TIP3    H133662   6.154   5.128  13.520  1.7101  1.0451 -0.4568
 4057TIP3    H233663   6.215   5.193  13.398  2.4173 -3.3000 -2.6257
 4058TIP3   OH233664   6.473   0.449  16.627 -0.4614 -0.4502  0.3369
 4058TIP3    H133665   6.421   0.397  16.567 -0.6356 -0.1016  0.1791
 4058TIP3    H233666   6.548   0.394  16.649 -0.0654 -0.3455 -0.6999
 4059TIP3   OH233667   4.642   2.970  15.099 -0.4737  0.4016 -0.0947
 4059TIP3    H133668   4.734   2.983  15.074 -0.4480  2.3720  0.8946
 4059TIP3    H233669   4.592   3.009  15.027 -0.4414  2.5055  0.9462
 4060TIP3   OH233670   6.072   2.877   2.315 -0.2555 -0.2149  0.7482
 4060TIP3    H133671   6.112   2.790   2.318 -1.1573 -0.7328 -0.8422
 4060TIP3    H233672   6.145   2.937   2.326  0.7349 -1.1624 -0.3671
 4061TIP3   OH233673   0.788   4.404  16.550 -0.1764  0.0613  0.1516
 4061TIP3    H133674   0.832   4.484  16.524 -1.5396  1.1800  1.1251
 4061TIP3    H233675   0.858   4.345  16.576  0.7973  1.3865  0.6385
 4062TIP3   OH233676   3.850   1.034  15.005  0.5971 -0.2880 -0.1871
 4062TIP3    H133677   3.893   1.119  15.013 -0.4866  0.2523  0.0953
 4062TIP3    H233678   3.850   1.015  14.911 -0.1949  0.5990 -0.3834
 4063TIP3   OH233679   0.266   0.112  13.811 -0.5483  0.2396  0.9652
 4063TIP3    H133680   0.332   0.069  13.866 -0.2310  1.5356  1.6522
 4063TIP3    H233681   0.314   0.179  13.763 -0.9112 -0.5772 -0.5826
 4064TIP3   OH233682   6.133   6.102  14.525 -0.1678 -0.2094 -0.4388
 4064TIP3    H133683   6.056   6.048  14.542 -0.3626 -0.0835 -0.9172
 4064TIP3    H233684   6.206   6.053  14.565 -0.7521  0.6200  1.8392
 4065TIP3   OH233685   0.446   4.021   5.737 -0.6811 -0.7447 -0.8815
 4065TIP3    H133686   0.456   4.114   5.718  1.0810 -0.7516 -0.2202
 4065TIP3    H233687   0.456   4.015   5.832 -0.6048 -1.6317 -0.9360
 4066TIP3   OH233688   4.469   3.199   3.113 -0.0235  0.2736 -0.4412
 4066TIP3    H133689   4.473   3.294   3.112 -0.8110  0.3255  0.0127
 4066TIP3    H233690   4.481   3.173   3.022  2.5626  0.6656 -0.2798
 4067TIP3   OH233691   6.486   3.611  15.165  0.1545 -0.3990 -0.8416
 4067TIP3    H133692   6.448   3.633  15.080  0.5745  2.0274 -0.4739
 4067TIP3    H233693   6.547   3.682  15.183 -2.0066  0.8195  2.7991
 4068TIP3   OH233694   0.906   4.787   5.064 -0.1638  0.6813 -0.2740
 4068TIP3    H133695   0.885   4.738   4.985 -0.0082 -0.1061  0.1584
 4068TIP3    H233696   0.974   4.734   5.107  0.3493  1.5174 -0.0287
 4069TIP3   OH233697   3.987   0.546   0.008 -0.1014 -0.6445 -0.1323
 4069TIP3    H133698   4.038   0.614  -0.035  0.2931  0.0015  1.3057
 4069TIP3    H233699   3.987   0.571   0.100 -0.0593 -2.5275  0.4112
 4070TIP3   OH233700   3.523   2.481   1.417  0.2199 -0.9977  0.0332
 4070TIP3    H133701   3.460   2.427   1.463 -4.8009  2.4980 -1.8713
 4070TIP3    H233702   3.502   2.468   1.324  1.0732  1.5998 -0.5982
 4071TIP3   OH233703   6.174   1.920  15.159  0.2792 -0.3020 -0.8116
 4071TIP3    H133704   6.158   1.826  15.152  2.7520 -0.7618 -1.3039
 4071TIP3    H233705   6.199   1.933  15.251 -0.4052 -0.0514 -0.6567
 4072TIP3   OH233706   4.005   2.217   3.816  0.3783 -0.3187  0.7672
 4072TIP3    H133707   4.043   2.131   3.799 -1.3208 -1.0766  0.5230
 4072TIP3    H233708   3.953   2.235   3.738 -0.4030  0.2818  1.4124
 4073TIP3   OH233709   2.233   6.480  12.485 -0.1645 -0.0841  0.5192
 4073TIP3    H133710   2.162   6.541  12.501 -0.4085 -0.8267  2.5187
 4073TIP3    H233711   2.278   6.471  12.569  1.0581 -1.1745 -0.1963
 4074TIP3   OH233712   6.307   6.311  13.649 -0.0054  0.1608  0.3290
 4074TIP3    H133713   6.274   6.370  13.718  0.7284  0.6285  0.2900
 4074TIP3    H233714   6.250   6.329  13.574 -0.4911  0.0108  0.6501
 4075TIP3   OH233715   6.167   5.749   2.372  0.0785  0.0628 -0.4381
 4075TIP3    H133716   6.249   5.797   2.384  1.5798 -1.8207 -2.3656
 4075TIP3    H233717   6.142   5.767   2.281 -0.6417 -0.8562 -0.4353
 4076TIP3   OH233718   3.311   3.742   3.437 -0.0241 -0.0628 -0.0907
 4076TIP3    H133719   3.342   3.807   3.374 -1.7516 -0.7490 -1.7629
 4076TIP3    H233720   3.226   3.714   3.402  1.1155 -4.1126 -0.1751
 4077TIP3   OH233721   4.723   3.896   4.847  0.2433 -0.0238  0.2631
 4077TIP3    H133722   4.694   3.904   4.938  2.8376  5.1083  0.9705
 4077TIP3    H233723   4.802   3.842   4.852  0.1156 -0.1625  0.9352
 4078TIP3   OH233724   1.087   3.873   5.638  0.3797  0.3044 -0.1547
 4078TIP3    H133725   1.041   3.791   5.653  1.8248 -0.2002  1.9180
 4078TIP3    H233726   1.038   3.938   5.689  0.5269  0.2644  0.0396
 4079TIP3   OH233727   4.578   6.486   2.471  0.6011  1.1382  0.0398
 4079TIP3    H133728   4.511   6.452   2.412  0.4211  2.6059 -0.6409
 4079TIP3    H233729   4.533   6.496   2.555  0.9144 -1.1632  0.5612
 4080TIP3   OH233730   1.689   2.577  13.992 -0.0034  0.1820 -0.3170
 4080TIP3    H133731   1.610   2.567  14.045  0.4049  1.1339  0.5111
 4080TIP3    H233732   1.758   2.539  14.045  0.0103 -1.3195 -1.3544
 4081TIP3   OH233733   4.754   5.552  16.493  0.1078  0.0531  0.0574
 4081TIP3    H133734   4.733   5.467  16.454 -2.3616  1.1946 -1.3732
 4081TIP3    H233735   4.825   5.586  16.439 -0.5755 -0.0998 -0.9797
 4082TIP3   OH233736   0.154   1.322   4.924 -0.5021 -0.4192  0.3143
 4082TIP3    H133737   0.193   1.254   4.979 -0.0538  0.1668  0.7287
 4082TIP3    H233738   0.133   1.277   4.842  1.1070 -0.7434  0.0532
 4083TIP3   OH233739   2.282   4.198   0.340  0.5107 -0.4124 -0.2670
 4083TIP3    H133740   2.294   4.228   0.430  0.4994 -1.2521  0.0200
 4083TIP3    H233741   2.369   4.210   0.300  0.7290 -0.7942  0.0854
 4084TIP3   OH233742   0.077   0.352   2.219 -0.2641  0.0154  0.5369
 4084TIP3    H133743   0.066   0.441   2.252  1.2089  0.6526 -0.5983
 4084TIP3    H233744   0.013   0.344   2.149  0.3271  0.5816 -0.0834
 4085TIP3   OH233745   1.690   3.860  16.432 -0.2304  0.4387 -0.3005
 4085TIP3    H133746   1.778   3.866  16.393 -0.7269 -0.5393 -1.6244
 4085TIP3    H233747   1.700   3.795  16.502 -0.3467 -1.3530 -1.8756
 4086TIP3   OH233748   0.442   4.673  14.744  0.6385 -0.3453  0.0896
 4086TIP3    H133749   0.440   4.639  14.655  0.2034  0.8822 -0.3900
 4086TIP3    H233750   0.509   4.622  14.788 -0.5704 -2.4132 -0.3350
 4087TIP3   OH233751   3.018   2.814   3.733 -0.2916 -0.3924 -0.2586
 4087TIP3    H133752   2.934   2.859   3.740  0.2998  0.8412 -0.7882
 4087TIP3    H233753   3.012   2.742   3.796 -1.1370  0.6498  0.9049
 4088TIP3   OH233754   3.834   2.668   2.681  0.6841 -0.2955 -0.9951
 4088TIP3    H133755   3.754   2.617   2.690 -0.0119  0.6558 -1.6322
 4088TIP3    H233756   3.806   2.750   2.639  1.6673  0.8746  0.5213
 4089TIP3   OH233757   0.102   4.173  13.218 -0.2608  0.0378  0.3146
 4089TIP3    H133758   0.126   4.166  13.125  2.9964 -2.0863  1.1580
 4089TIP3    H233759   0.102   4.083  13.250  1.6984  0.8367  2.9559
 4090TIP3   OH233760   3.829   1.775  11.468 -0.3469 -0.3902  0.3752
 4090TIP3    H133761   3.781   1.698  11.437 -0.7476 -0.6325  1.5338
 4090TIP3    H233762   3.873   1.809  11.390 -0.7704 -1.3521 -0.3063
 4091TIP3   OH233763   0.326   3.137   3.216  0.6859  0.2041 -1.0781
 4091TIP3    H133764   0.279   3.186   3.148  1.2442 -0.0603 -1.6633
 4091TIP3    H233765   0.344   3.052   3.176  0.7447 -0.0655 -0.4834
 4092TIP3   OH233766   1.866   5.658   2.244 -0.3668 -0.1351  0.3839
 4092TIP3    H133767   1.918   5.738   2.243 -2.1738  1.1279  1.1870
 4092TIP3    H233768   1.914   5.599   2.302  1.8124 -0.2994 -1.4292
 4093TIP3   OH233769   4.823   0.658  16.224 -0.0182  0.0636 -0.3069
 4093TIP3    H133770   4.850   0.678  16.314 -0.0981 -0.0586 -0.2551
 4093TIP3    H233771   4.732   0.628  16.233 -0.3182  0.8895 -0.5308
 4094TIP3   OH233772   5.629   6.183   3.342 -0.0549 -0.1591 -0.4801
 4094TIP3    H133773   5.576   6.105   3.353  2.9709 -2.2549  0.3556
 4094TIP3    H233774   5.655   6.207   3.431  1.2967  0.0990 -0.9228
 4095TIP3   OH233775   3.501   6.281  11.495 -0.0981  0.1829  0.7042
 4095TIP3    H133776   3.529   6.191  11.516 -0.3120 -0.2897 -0.9072
 4095TIP3    H233777   3.582   6.324  11.467 -0.0381  0.4369  1.2569
 4096TIP3   OH233778   2.842   6.688   5.573  0.0273  0.2234 -0.2817
 4096TIP3    H133779   2.805   6.621   5.630  2.4717 -0.1657  0.9590
 4096TIP3    H233780   2.930   6.703   5.606  0.0107  3.2444 -1.2176
 4097TIP3   OH233781   1.443   1.237  15.053  0.2388  0.3801  0.4087
 4097TIP3    H133782   1.510   1.174  15.026 -0.1930 -0.0972  0.4370
 4097TIP3    H233783   1.387   1.188  15.113 -0.6506  0.5204 -0.2936
 4098TIP3   OH233784   4.884   0.147   3.052 -0.1650 -0.0242  0.3036
 4098TIP3    H133785   4.855   0.070   3.101 -2.0256  0.4099 -0.0325
 4098TIP3    H233786   4.836   0.220   3.091  0.4761  0.7623 -0.3251
 4099TIP3   OH233787   1.058   0.090  17.392  0.1886 -0.1929  0.1344
 4099TIP3    H133788   1.072   0.183  17.370  0.9259  0.1420  1.8661
 4099TIP3    H233789   0.968   0.072  17.363 -0.0271  1.1065 -0.0854
 4100TIP3   OH233790   0.010   4.747  10.684  0.0687  0.5857  0.1613
 4100TIP3    H133791  -0.070   4.720  10.638  0.1270  0.2371  0.2626
 4100TIP3    H233792  -0.021   4.783  10.767  0.0098  0.5841  0.1400
 4101TIP3   OH233793   4.994   0.513   2.944 -0.1674 -0.0854  0.0877
 4101TIP3    H133794   4.961   0.541   2.859 -1.8873 -2.8537 -0.2877
 4101TIP3    H233795   4.917   0.484   2.992  0.8857  0.4613  2.2414
 4102TIP3   OH233796   3.704   5.284   0.115  0.6221 -0.1920 -0.0181
 4102TIP3    H133797   3.718   5.266   0.208  2.9682  1.6989  0.0721
 4102TIP3    H233798   3.789   5.271   0.074  1.0283  4.0325 -0.9399
 4103TIP3   OH233799   2.767   3.281  15.734  0.4019 -0.2432  0.5975
 4103TIP3    H133800   2.687   3.232  15.757 -0.8123  1.5580  0.4261
 4103TIP3    H233801   2.833   3.213  15.720 -1.4430 -1.9230 -0.6564
 4104TIP3   OH233802   0.994   3.063  13.370 -0.0709 -0.1531  0.2752
 4104TIP3    H133803   1.043   3.038  13.292 -0.9154  0.4831 -0.4839
 4104TIP3    H233804   0.923   2.998  13.375 -1.3607  1.0941 -0.8235
 4105TIP3   OH233805   6.703   1.148   3.204  0.4390  0.6230 -0.1299
 4105TIP3    H133806   6.662   1.072   3.245 -0.0372  1.8346  1.7501
 4105TIP3    H233807   6.647   1.222   3.229  1.7128  1.8107 -0.6619
 4106TIP3   OH233808   6.071   2.818   2.954  0.1088  0.3049  0.0519
 4106TIP3    H133809   6.057   2.883   3.022 -0.7928  0.0255  0.1551
 4106TIP3    H233810   6.115   2.745   2.999 -0.6332  0.0517  0.3927
 4107TIP3   OH233811   1.153   3.579   5.890 -0.1671  0.5869  0.0266
 4107TIP3    H133812   1.150   3.579   5.794  0.1842  0.0984  0.0153
 4107TIP3    H233813   1.061   3.583   5.916 -0.2454  1.1804 -0.3280
 4108TIP3   OH233814   4.561   0.166   0.256 -0.0688 -0.3092 -0.3516
 4108TIP3    H133815   4.473   0.205   0.258 -0.1824 -0.5866  0.4604
 4108TIP3    H233816   4.571   0.125   0.342  1.8829  2.0124  0.6646
 4109TIP3   OH233817   0.002   1.337  12.855  0.2949 -0.0562  0.0458
 4109TIP3    H133818   0.023   1.255  12.810  1.0440  0.7729 -1.1608
 4109TIP3    H233819  -0.062   1.380  12.798 -1.2123 -0.4248  1.3892
 4110TIP3   OH233820   0.231   5.061   2.184 -0.3026  0.1849  0.5523
 4110TIP3    H133821   0.288   5.000   2.136  0.4109 -0.5262  2.2263
 4110TIP3    H233822   0.244   5.145   2.141  1.1593 -0.2024  0.1821
 4111TIP3   OH233823   0.055   6.384   6.091  0.1126 -0.3074  0.2730
 4111TIP3    H133824   0.020   6.458   6.043  0.5728  0.3376  0.9073
 4111TIP3    H233825   0.140   6.366   6.050  0.1191 -0.3187  0.2912
 4112TIP3   OH233826   0.475   5.411  17.260 -0.0514 -0.2008 -0.2246
 4112TIP3    H133827   0.567   5.432  17.246 -0.0406 -0.2665 -0.2522
 4112TIP3    H233828   0.459   5.334  17.205  0.3789 -1.3810  1.2563
 4113TIP3   OH233829   6.251   6.172   3.570  0.0878  0.5749 -0.4873
 4113TIP3    H133830   6.244   6.162   3.665 -0.7663  0.8060 -0.5214
 4113TIP3    H233831   6.181   6.234   3.547 -0.0069  0.1652 -1.3294
 4114TIP3   OH233832   0.070   6.393   0.631  0.2494 -0.2635  0.1629
 4114TIP3    H133833   0.044   6.430   0.715  1.6186 -0.3705  0.6566
 4114TIP3    H233834   0.003   6.328   0.611  0.0969 -0.4803  1.3455
 4115TIP3   OH233835   3.715   1.173  14.756 -0.0999 -0.3519 -0.2831
 4115TIP3    H133836   3.683   1.125  14.679  0.3070  1.3660 -1.5820
 4115TIP3    H233837   3.807   1.190  14.737  0.3317 -0.9446  1.1697
 4116TIP3   OH233838   3.351   5.998  14.525  0.6460  0.0878  0.1196
 4116TIP3    H133839   3.340   5.999  14.430 -1.1020  3.2127  0.2303
 4116TIP3    H233840   3.439   6.033  14.539  0.6208  0.3408 -0.3365
 4117TIP3   OH233841   6.291   5.579  13.175  0.4549  0.0765 -0.1760
 4117TIP3    H133842   6.217   5.631  13.207 -0.4005 -0.5471 -1.0697
 4117TIP3    H233843   6.318   5.623  13.094  0.7412  0.0311 -0.1037
 4118TIP3   OH233844   0.701   2.835  11.794  0.0870  0.3763 -0.2723
 4118TIP3    H133845   0.608   2.856  11.802  0.2905  0.8033  1.1209
 4118TIP3    H233846   0.744   2.890  11.859  1.3795  0.5165 -1.1923
 4119TIP3   OH233847   2.545   5.459   2.923  0.1257 -0.4018  0.3382
 4119TIP3    H133848   2.501   5.381   2.890  1.0514 -1.5581  1.7372
 4119TIP3    H233849   2.629   5.461   2.876  0.4630 -0.7478  0.9141
 4120TIP3   OH233850   0.082   4.954  13.593 -0.4935  0.2073 -0.2844
 4120TIP3    H133851   0.174   4.965  13.569  0.0641  0.4058  1.7714
 4120TIP3    H233852   0.054   4.875  13.546  0.8083 -0.0284 -0.6929
 4121TIP3   OH233853   6.177   0.312  17.523 -0.7318 -0.5646 -0.4232
 4121TIP3    H133854   6.203   0.269  17.605  0.6485  0.5720 -0.2320
 4121TIP3    H233855   6.122   0.385  17.552 -1.1359 -0.7962 -0.5965
 4122TIP3   OH233856   0.250   2.656  17.334  0.2793 -0.1669  0.4375
 4122TIP3    H133857   0.250   2.732  17.275  1.9066 -0.2021  0.3257
 4122TIP3    H233858   0.259   2.693  17.421 -2.2728 -0.1078  0.7533
 4123TIP3   OH233859   1.199   0.266   3.693  0.5834 -0.4652  0.4676
 4123TIP3    H133860   1.106   0.249   3.679  0.3482  1.0335  0.0789
 4123TIP3    H233861   1.201   0.335   3.760  1.2575  1.7252 -1.6516
 4124TIP3   OH233862   6.213   6.029   5.822  0.5341  0.2842 -0.3669
 4124TIP3    H133863   6.139   6.037   5.762  1.0454 -1.4912 -1.3022
 4124TIP3    H233864   6.196   5.947   5.869  2.6775 -1.0791 -1.8026
 4125TIP3   OH233865   1.988   1.142   3.307 -0.5254  0.3241 -0.0458
 4125TIP3    H133866   1.905   1.162   3.264 -0.6062 -0.0300 -0.0613
 4125TIP3    H233867   2.053   1.195   3.262 -0.5655 -0.2333 -0.7783
 4126TIP3   OH233868   0.967   6.562   0.514 -0.1828 -0.4843 -0.6110
 4126TIP3    H133869   1.048   6.593   0.555 -0.0478 -1.7879  0.1583
 4126TIP3    H233870   0.897   6.607   0.561 -0.0463 -2.1607  1.3308
 4127TIP3   OH233871   0.364   4.323  12.161 -0.4491 -0.0969  0.4887
 4127TIP3    H133872   0.339   4.304  12.251 -0.4446 -1.2005  0.2641
 4127TIP3    H233873   0.391   4.239  12.125 -0.3003  0.3617 -0.5020
 4128TIP3   OH233874   5.681   4.428   4.440 -0.1982 -0.0177  0.0510
 4128TIP3    H133875   5.719   4.471   4.364 -0.5622  1.0678  0.4606
 4128TIP3    H233876   5.690   4.335   4.422  2.6549  0.1641  0.1216
 4129TIP3   OH233877   0.305   4.447  13.276 -0.1378 -1.0346 -0.6817
 4129TIP3    H133878   0.258   4.410  13.201 -2.7182 -0.2550  0.4435
 4129TIP3    H233879   0.335   4.532  13.246 -0.1714 -1.1950 -1.1731
 4130TIP3   OH233880   5.820   5.970  13.649 -0.3044  0.1646  0.5061
 4130TIP3    H133881   5.868   5.905  13.701  1.2867 -0.7939 -1.9271
 4130TIP3    H233882   5.741   5.924  13.620  0.9525 -0.9352 -1.4425
 4131TIP3   OH233883   3.495   4.321   4.487 -0.0173 -0.1313  0.5388
 4131TIP3    H133884   3.430   4.356   4.549 -0.9273  0.0149 -0.4592
 4131TIP3    H233885   3.443   4.271   4.424  0.8383  0.0530 -0.3383
 4132TIP3   OH233886   4.101   2.383  15.759  0.4435 -0.1233 -0.6386
 4132TIP3    H133887   4.122   2.465  15.803  0.0796  0.0059 -0.7060
 4132TIP3    H233888   4.006   2.381  15.754  0.4888  0.2771 -2.1844
 4133TIP3   OH233889   5.113   4.162  16.438 -0.3283  0.1765  0.8386
 4133TIP3    H133890   5.198   4.121  16.456 -0.6873  0.1777  2.7600
 4133TIP3    H233891   5.072   4.170  16.524 -2.0390  0.7255  0.0110
 4134TIP3   OH233892   3.637   3.588   1.424  0.7367 -0.5901 -0.0081
 4134TIP3    H133893   3.585   3.641   1.484 -3.2916 -0.7031 -2.9410
 4134TIP3    H233894   3.679   3.651   1.366  2.1214 -0.5472  1.0089
 4135TIP3   OH233895   6.185   6.261  17.090 -0.1095  0.0237 -0.6265
 4135TIP3    H133896   6.193   6.337  17.147 -1.0307 -0.0836 -0.3424
 4135TIP3    H233897   6.274   6.245  17.058  0.8034 -0.9769  2.1286
 4136TIP3   OH233898   2.919   0.532   1.224  0.1990 -0.0063 -0.2097
 4136TIP3    H133899   2.911   0.444   1.261 -0.0681 -0.7029 -1.8149
 4136TIP3    H233900   3.014   0.545   1.217  0.2778  0.4758  1.4069
 4137TIP3   OH233901   4.851   0.351   1.897  0.0699  0.4136  0.2222
 4137TIP3    H133902   4.901   0.429   1.923  1.8184 -0.3039 -0.7903
 4137TIP3    H233903   4.867   0.288   1.967 -1.5101  0.9726  1.1436
 4138TIP3   OH233904   6.637   2.861   3.143 -0.3337  0.2507  0.4203
 4138TIP3    H133905   6.719   2.887   3.101 -1.5047  0.0038 -2.1764
 4138TIP3    H233906   6.589   2.942   3.157 -0.5825  0.2006 -0.1396
 4139TIP3   OH233907   6.380   4.897  16.812 -0.7741  0.6312 -0.6782
 4139TIP3    H133908   6.355   4.986  16.838  0.2010  0.8883 -0.5567
 4139TIP3    H233909   6.350   4.888  16.722 -1.1614  0.9736 -0.5836
 4140TIP3   OH233910   0.276   0.205  16.697  0.4479  0.6984 -0.0150
 4140TIP3    H133911   0.214   0.264  16.739  0.4239  1.8731 -1.6199
 4140TIP3    H233912   0.221   0.140  16.653  0.4700 -0.4123  1.5183
 4141TIP3   OH233913   5.766   4.770  13.827 -0.7141 -0.2335  0.2951
 4141TIP3    H133914   5.786   4.723  13.908 -1.6766 -0.8799  0.1710
 4141TIP3    H233915   5.845   4.761  13.774  0.4598  1.3105  1.6365
 4142TIP3   OH233916   3.697   4.577  17.028  0.3978 -0.2514  0.0280
 4142TIP3    H133917   3.660   4.637  17.093  1.9348 -1.3044  2.0133
 4142TIP3    H233918   3.661   4.606  16.945 -1.3738  1.4286  1.2905
 4143TIP3   OH233919   6.143   5.837   6.035  0.0611  0.3965  0.0548
 4143TIP3    H133920   6.072   5.835   5.970  0.3030 -1.5910 -0.2170
 4143TIP3    H233921   6.101   5.809   6.117  0.4955 -0.8622 -0.1243
 4144TIP3   OH233922   4.773   5.015  14.732 -0.1844  0.0180 -0.1192
 4144TIP3    H133923   4.858   5.057  14.715  0.9583 -2.0415  0.2048
 4144TIP3    H233924   4.741   5.057  14.812  0.0962  1.4008 -0.6969
 4145TIP3   OH233925   2.864   3.655  15.305 -0.0483 -0.5414 -0.4247
 4145TIP3    H133926   2.935   3.601  15.338 -0.1674 -0.2736  0.2992
 4145TIP3    H233927   2.902   3.743  15.298  0.2630 -0.7691 -1.9818
 4146TIP3   OH233928   6.554   5.925  11.806 -0.2217 -0.0822  0.3093
 4146TIP3    H133929   6.479   5.973  11.770 -0.5822 -0.8238  0.0608
 4146TIP3    H233930   6.532   5.833  11.793  0.9246 -0.2984 -0.1442
 4147TIP3   OH233931   3.565   6.502   0.175  0.2936  0.0722 -0.2138
 4147TIP3    H133932   3.645   6.539   0.212  0.2732 -0.5979  0.5185
 4147TIP3    H233933   3.505   6.496   0.249 -0.3646  0.3612 -0.7152
 4148TIP3   OH233934   1.913   0.494  14.451 -0.6294  0.1607 -0.6460
 4148TIP3    H133935   2.001   0.459  14.466 -0.0558  1.5081 -0.6661
 4148TIP3    H233936   1.921   0.543  14.369 -1.7594 -0.7959 -1.3501
 4149TIP3   OH233937   1.429   1.704  15.011  0.0588 -0.2852 -0.6114
 4149TIP3    H133938   1.345   1.749  15.003  1.0893  2.1335  1.0125
 4149TIP3    H233939   1.405   1.613  15.030 -2.3833  0.9081  3.3084
 4150TIP3   OH233940   1.952   3.177   4.721 -0.0487  0.1986 -0.1409
 4150TIP3    H133941   1.971   3.163   4.628  0.8343  1.1083 -0.1112
 4150TIP3    H233942   1.907   3.097   4.748  0.0449 -0.2541 -1.2511
 4151TIP3   OH233943   4.734   5.444   2.832  0.5006  0.0790  0.0295
 4151TIP3    H133944   4.644   5.423   2.808 -0.7327  2.3142  2.1699
 4151TIP3    H233945   4.772   5.360   2.859 -1.5111 -0.6914  0.6666
 4152TIP3   OH233946   0.336   2.201  12.790  0.0767  0.1428 -0.2176
 4152TIP3    H133947   0.364   2.207  12.698 -1.2180 -0.1148 -0.6581
 4152TIP3    H233948   0.271   2.131  12.790 -0.0614  0.2569  0.8751
 4153TIP3   OH233949   4.174   4.545   3.095 -0.2219  0.3430 -0.4801
 4153TIP3    H133950   4.214   4.632   3.101  1.6548 -0.5287  0.5433
 4153TIP3    H233951   4.216   4.505   3.018 -1.7466  0.6266 -1.4949
 4154TIP3   OH233952   5.004   3.557   3.832  0.1654  0.1109 -0.0710
 4154TIP3    H133953   5.091   3.566   3.795  0.5329 -0.2300  0.6814
 4154TIP3    H233954   4.957   3.635   3.803  1.5020  1.6490  1.5934
 4155TIP3   OH233955   0.995   4.135  14.496  0.1468  0.4929  0.3481
 4155TIP3    H133956   0.904   4.157  14.514  0.2394  1.3461 -0.1593
 4155TIP3    H233957   1.045   4.208  14.533  0.5713  0.3912 -0.0189
 4156TIP3   OH233958   2.875   0.926   5.417  0.3247  0.5806  0.4997
 4156TIP3    H133959   2.850   1.000   5.472 -0.9817  0.3326  0.2776
 4156TIP3    H233960   2.851   0.848   5.467 -0.8230  0.3503 -0.3544
 4157TIP3   OH233961   0.871   4.862  13.752  0.3771  0.5430 -0.0945
 4157TIP3    H133962   0.852   4.922  13.680  1.1862  0.0049 -0.7740
 4157TIP3    H233963   0.957   4.889  13.784  1.9156 -1.6734 -1.9844
 4158TIP3   OH233964   4.207   0.027  13.908 -0.2451 -0.5451 -0.6757
 4158TIP3    H133965   4.235   0.113  13.939 -1.5052 -0.3541 -0.0118
 4158TIP3    H233966   4.211  -0.029  13.985  2.0249 -1.5221 -1.4004
 4159TIP3   OH233967   2.867   2.092  16.172 -0.5191  0.0639  0.1326
 4159TIP3    H133968   2.841   2.183  16.186  1.0179  1.1272 -3.0339
 4159TIP3    H233969   2.808   2.060  16.103  1.6376  0.1422 -1.8603
 4160TIP3   OH233970   0.975   6.522  17.387  0.5318 -0.6883  0.1681
 4160TIP3    H133971   0.890   6.496  17.422  0.8344  1.1891  2.5765
 4160TIP3    H233972   0.956   6.589  17.321  0.1075 -1.3625 -0.4022
 4161TIP3   OH233973   0.742   4.669  16.066 -0.6832 -0.2932 -0.5059
 4161TIP3    H133974   0.794   4.613  16.123 -0.8818  0.7473  0.7495
 4161TIP3    H233975   0.760   4.758  16.097 -3.0959  0.1120 -0.0901
 4162TIP3   OH233976   1.736   3.384   4.785  0.4740 -0.2508  0.2503
 4162TIP3    H133977   1.790   3.376   4.864 -0.0298 -1.5544  0.4866
 4162TIP3    H233978   1.798   3.403   4.715  0.9605  0.6404  0.9075
 4163TIP3   OH233979   6.191   0.530  16.957  0.2211 -0.5482  0.0564
 4163TIP3    H133980   6.139   0.563  17.030 -0.1007  1.0665 -0.8567
 4163TIP3    H233981   6.274   0.504  16.997  0.5716  1.5948  0.8441
 4164TIP3   OH233982   1.573   2.976   5.091 -0.0346 -0.7321 -0.0332
 4164TIP3    H133983   1.535   2.935   5.013 -0.1997  0.7652 -0.7857
 4164TIP3    H233984   1.520   3.054   5.105 -0.0741 -1.0406  1.6811
 4165TIP3   OH233985   3.459   6.640   2.338  0.0221 -0.3683 -0.0012
 4165TIP3    H133986   3.428   6.556   2.303 -0.6127 -0.6267  1.1151
 4165TIP3    H233987   3.471   6.624   2.432 -1.5260  1.1525  0.5131
 4166TIP3   OH233988   5.528   5.431  13.941 -0.3389 -0.0207 -0.1632
 4166TIP3    H133989   5.541   5.342  13.972  0.4454  0.1433  0.0129
 4166TIP3    H233990   5.452   5.463  13.989 -0.1517 -0.3341  0.3499
 4167TIP3   OH233991   3.203   1.036  12.969 -0.6504  0.2206  0.2081
 4167TIP3    H133992   3.257   1.081  13.034  1.9118  1.5568 -2.6172
 4167TIP3    H233993   3.172   1.106  12.911 -1.5824 -1.0673 -0.9221
 4168TIP3   OH233994   3.060   0.176  13.897 -0.1980  0.5129 -0.5047
 4168TIP3    H133995   3.060   0.082  13.916 -0.8518  0.6056  0.0034
 4168TIP3    H233996   2.984   0.189  13.840  0.8270  0.4914 -1.9088
 4169TIP3   OH233997   2.048   5.588  12.553  0.3894  0.4900 -0.5053
 4169TIP3    H133998   1.954   5.579  12.568 -0.0319  1.8108 -2.0386
 4169TIP3    H233999   2.060   5.561  12.462  1.2552  1.6114 -0.7418
 4170TIP3   OH234000   2.068   1.177  15.646  0.4657 -0.1874  0.1956
 4170TIP3    H134001   2.140   1.124  15.680  0.2332 -0.7785 -0.2155
 4170TIP3    H234002   2.107   1.231  15.578  0.3954 -1.0200 -0.5238
 4171TIP3   OH234003   1.612   0.174  12.390  0.5461 -0.1875  0.1010
 4171TIP3    H134004   1.582   0.087  12.416 -0.0822  0.0568  0.2025
 4171TIP3    H234005   1.533   0.229  12.393  1.0336  0.5022  0.5442
 4172TIP3   OH234006   2.156   3.661  11.481  0.0005 -0.4186 -0.1994
 4172TIP3    H134007   2.152   3.710  11.564  0.0911 -0.7168 -0.0161
 4172TIP3    H234008   2.100   3.711  11.421 -0.9526 -0.7928  0.3554
 4173TIP3   OH234009   2.311   5.707  12.503 -0.5958  0.2337  0.0477
 4173TIP3    H134010   2.294   5.716  12.597  0.6026  0.6898  0.2363
 4173TIP3    H234011   2.245   5.645  12.473  0.4973 -1.8400  1.6655
 4174TIP3   OH234012   6.587   4.224   3.839  1.0264  0.3211 -0.1058
 4174TIP3    H134013   6.518   4.281   3.873  1.0183  0.2003  0.0838
 4174TIP3    H234014   6.619   4.268   3.760  0.4445  0.1715 -0.4316
 4175TIP3   OH234015   1.555   1.736  14.545 -0.0674 -0.2396  0.3152
 4175TIP3    H134016   1.601   1.670  14.495 -0.8637 -0.7308  0.2097
 4175TIP3    H234017   1.537   1.806  14.482  1.4284  0.4345  0.6005
 4176TIP3   OH234018   3.090   3.384  12.761 -0.1011 -0.2831 -0.2625
 4176TIP3    H134019   3.015   3.396  12.703 -0.4609 -0.8559  0.0726
 4176TIP3    H234020   3.146   3.322  12.715 -0.0072 -0.1345 -0.3491
 4177TIP3   OH234021   1.571   2.611   1.282 -0.0007  0.4026 -0.3143
 4177TIP3    H134022   1.606   2.629   1.369  2.0172 -1.8029 -0.5612
 4177TIP3    H234023   1.477   2.627   1.290  0.0110 -0.4195  2.4869
 4178TIP3   OH234024   0.729   6.193  11.561  0.3090 -0.4435  0.5264
 4178TIP3    H134025   0.747   6.100  11.549  1.0624 -0.2356 -0.0194
 4178TIP3    H234026   0.812   6.236  11.542 -0.5406  0.4936 -1.4351
 4179TIP3   OH234027   1.638   1.860  16.035  0.2997  0.2184 -0.3421
 4179TIP3    H134028   1.718   1.854  16.086 -0.1804 -1.2220  0.3202
 4179TIP3    H234029   1.605   1.770  16.033 -3.1718  1.2263  2.4630
 4180TIP3   OH234030   3.410   3.248  12.381 -0.5863 -0.2825 -0.3450
 4180TIP3    H134031   3.432   3.336  12.412  0.2335 -0.9127  0.9529
 4180TIP3    H234032   3.451   3.242  12.295  1.1623 -0.0965  0.4287
 4181TIP3   OH234033   0.354   4.468  16.784 -0.2263 -0.1883  0.4764
 4181TIP3    H134034   0.360   4.553  16.829  0.4393  0.5731 -1.0045
 4181TIP3    H234035   0.266   4.468  16.746  0.0631  0.2184 -0.2168
 4182TIP3   OH234036   5.833   0.654   3.690  0.3416  0.0566  0.4346
 4182TIP3    H134037   5.842   0.741   3.728  1.5384  0.9037 -1.5915
 4182TIP3    H234038   5.755   0.660   3.635  0.6108 -0.0364  0.0381
 4183TIP3   OH234039   6.762   2.627   4.477  0.0529 -0.3681 -0.3057
 4183TIP3    H134040   6.855   2.604   4.467 -0.2376 -2.2194  0.7677
 4183TIP3    H234041   6.757   2.673   4.560  0.3638  2.2270 -1.6377
 4184TIP3   OH234042   6.522   0.290   6.043  0.5227 -0.2557  0.3868
 4184TIP3    H134043   6.442   0.305   6.094 -0.3748 -1.9372 -0.4279
 4184TIP3    H234044   6.536   0.373   5.996 -0.6281  0.1512  0.7234
 4185TIP3   OH234045   6.732   5.761   0.225  0.1987  0.0564 -0.4163
 4185TIP3    H134046   6.668   5.829   0.247 -0.5591  0.0764 -2.4519
 4185TIP3    H234047   6.713   5.690   0.286 -1.2831  0.3578 -0.4780
 4186TIP3   OH234048   0.704   4.003  13.421  0.4658  0.7482 -0.4051
 4186TIP3    H134049   0.647   4.016  13.496  0.7082  0.8368 -0.2364
 4186TIP3    H234050   0.771   4.070  13.430  2.0558 -0.9066  0.7706
 4187TIP3   OH234051   6.669   1.708   0.803 -0.0461  0.4720 -1.2869
 4187TIP3    H134052   6.626   1.737   0.884  1.2485  0.4647 -0.5692
 4187TIP3    H234053   6.602   1.658   0.757  0.1044 -2.4272  1.3617
 4188TIP3   OH234054   3.603   1.762  17.439 -0.2205  0.1766 -0.0897
 4188TIP3    H134055   3.587   1.751  17.345  0.6853 -0.0730 -0.2262
 4188TIP3    H234056   3.520   1.739  17.481 -0.8359  0.9161 -0.8640
 4189TIP3   OH234057   4.021   1.715   4.881 -0.0446  0.1366  0.1459
 4189TIP3    H134058   3.935   1.726   4.922 -0.2123 -0.6597  0.0316
 4189TIP3    H234059   4.001   1.693   4.790  0.1883 -2.1303  0.5802
 4190TIP3   OH234060   3.112   4.131  15.410 -0.3995  0.4886 -0.3579
 4190TIP3    H134061   3.038   4.190  15.394 -0.3001  0.2788 -1.7962
 4190TIP3    H234062   3.171   4.148  15.336  0.8458  0.4162  0.5798
 4191TIP3   OH234063   2.026   1.179  16.157  0.1680  0.3524 -0.1453
 4191TIP3    H134064   1.993   1.089  16.155  0.1057  0.3802 -0.3585
 4191TIP3    H234065   2.120   1.170  16.140  0.2827  0.2711  0.4950
 4192TIP3   OH234066   6.057   4.874  14.823 -0.7729  0.2510 -0.4717
 4192TIP3    H134067   6.083   4.862  14.732 -0.5396 -0.8018 -0.2828
 4192TIP3    H234068   6.000   4.951  14.822 -1.0286  0.0652 -1.5476
 4193TIP3   OH234069   5.004   4.712   5.771  0.3350  0.3594 -0.1929
 4193TIP3    H134070   4.993   4.731   5.864  2.6950  0.7812  0.0386
 4193TIP3    H234071   4.968   4.789   5.727  0.5819  0.8323  0.4235
 4194TIP3   OH234072   0.938   4.233  12.352  0.1779 -0.0210 -0.0191
 4194TIP3    H134073   0.992   4.223  12.431  1.0630  0.3873 -0.5546
 4194TIP3    H234074   0.912   4.325  12.352 -3.0941 -0.7905  1.8209
 4195TIP3   OH234075   1.402   1.283  17.448  0.5975  0.3622 -0.4805
 4195TIP3    H134076   1.323   1.229  17.443  1.3110 -0.6203 -1.5561
 4195TIP3    H234077   1.385   1.342  17.522 -0.7148 -0.5028 -0.0420
 4196TIP3   OH234078   6.204   2.107  12.298 -0.6487  0.0018 -0.4822
 4196TIP3    H134079   6.139   2.067  12.356 -1.7332  1.5119 -0.5841
 4196TIP3    H234080   6.169   2.093  12.210 -0.4357  0.1426 -0.5902
 4197TIP3   OH234081   3.441   1.588   4.355  0.2889 -0.0042 -0.1923
 4197TIP3    H134082   3.530   1.622   4.368  0.6531 -0.9009 -0.2918
 4197TIP3    H234083   3.384   1.654   4.396  1.0941 -0.2006  1.2789
 4198TIP3   OH234084   4.970   6.201  14.727  0.0308 -0.1064  0.0744
 4198TIP3    H134085   5.026   6.248  14.665 -0.5943 -1.6000 -1.6800
 4198TIP3    H234086   4.883   6.240  14.715 -0.0556 -0.2780  0.1465
 4199TIP3   OH234087   0.042   1.069  12.755  0.3099  0.3701  0.4371
 4199TIP3    H134088  -0.005   1.000  12.708 -1.1154  1.4540  0.2077
 4199TIP3    H234089   0.001   1.071  12.842  0.6230  0.6623  0.5799
 4200TIP3   OH234090   1.879   4.477  12.478  0.1755 -0.0283 -0.5469
 4200TIP3    H134091   1.959   4.452  12.525  1.3861 -1.2997 -3.0552
 4200TIP3    H234092   1.832   4.395  12.467  0.0221  0.2039 -1.6699
 4201TIP3   OH234093   2.350   6.533  12.248 -0.2066  0.0850  0.3485
 4201TIP3    H134094   2.319   6.537  12.339 -0.0945 -0.6919  0.4282
 4201TIP3    H234095   2.422   6.596  12.245 -1.4277  1.5428  0.2944
 4202TIP3   OH234096   5.622   5.901   2.295 -0.0302 -0.2028 -0.0320
 4202TIP3    H134097   5.591   5.949   2.372 -0.1530  2.6433 -1.6933
 4202TIP3    H234098   5.712   5.877   2.316  0.8640  2.8566  0.1477
 4203TIP3   OH234099   5.590   5.624   5.239  0.2078 -0.5564  0.4506
 4203TIP3    H134100   5.681   5.612   5.266  0.4123 -0.5192 -0.2113
 4203TIP3    H234101   5.596   5.661   5.151 -0.3625  2.8542  1.6583
 4204TIP3   OH234102   0.295   5.051  14.301  0.5940  0.0329 -0.0762
 4204TIP3    H134103   0.353   4.975  14.306 -1.8627 -1.8953  4.0819
 4204TIP3    H234104   0.354   5.126  14.315  2.5922 -1.4067 -0.2711
 4205TIP3   OH234105   6.665   1.046  16.944  0.4014 -0.3213  0.2462
 4205TIP3    H134106   6.628   0.958  16.952 -2.6881  0.9595  1.5106
 4205TIP3    H234107   6.664   1.081  17.033  0.5410  1.3729 -0.3813
 4206TIP3   OH234108   2.689   0.156   5.445 -0.0286  0.2922  0.2868
 4206TIP3    H134109   2.738   0.077   5.471  1.0656  0.9499  0.2958
 4206TIP3    H234110   2.660   0.137   5.355  0.9761  0.2029 -0.0372
 4207TIP3   OH234111   3.743   0.445   3.862 -0.3417  0.0765  0.1086
 4207TIP3    H134112   3.655   0.407   3.869 -0.1227 -0.4841 -0.0704
 4207TIP3    H234113   3.742   0.493   3.780 -1.1514  1.9143  1.1454
 4208TIP3   OH234114   3.708   1.439  15.189  0.2107  0.0762  0.1070
 4208TIP3    H134115   3.634   1.455  15.248  0.4131 -1.1290  0.7197
 4208TIP3    H234116   3.747   1.526  15.176 -0.3479  0.4935  1.0698
 4209TIP3   OH234117   5.434   6.355  14.793 -0.4558 -0.0636 -0.2631
 4209TIP3    H134118   5.440   6.367  14.888 -0.5041  2.2263 -0.4960
 4209TIP3    H234119   5.468   6.436  14.756  0.0390 -1.1042 -2.2440
 4210TIP3   OH234120   5.605   0.472  17.229  0.3687  0.2004  0.3536
 4210TIP3    H134121   5.527   0.491  17.282  0.2892 -1.0690  0.7330
 4210TIP3    H234122   5.672   0.449  17.293  0.4257 -0.8263 -0.0517
 4211TIP3   OH234123   5.304   5.353   3.151 -0.0137 -0.3101  0.7223
 4211TIP3    H134124   5.214   5.363   3.180 -0.0937  2.1758 -0.1335
 4211TIP3    H234125   5.357   5.376   3.228 -0.0923 -0.9270  0.9701
 4212TIP3   OH234126   1.359   5.847  15.597 -0.4694 -0.0386 -0.1397
 4212TIP3    H134127   1.318   5.761  15.590 -2.5891  1.0354 -2.1669
 4212TIP3    H234128   1.384   5.870  15.507 -0.6674  1.7799  0.2285
 4213TIP3   OH234129   5.470   3.565   4.510 -0.3123 -0.8436  0.0247
 4213TIP3    H134130   5.463   3.521   4.426  0.2614 -0.3807 -0.2688
 4213TIP3    H234131   5.562   3.556   4.534  0.1812  1.5397 -0.7852
 4214TIP3   OH234132   5.240   1.199   5.098 -0.5765 -0.2691  0.5871
 4214TIP3    H134133   5.296   1.275   5.085  0.8456 -1.4681 -0.6589
 4214TIP3    H234134   5.152   1.232   5.079 -0.0261  1.1010  0.2259
 4215TIP3   OH234135   4.262   0.478  11.329  0.5127 -0.2980  0.0086
 4215TIP3    H134136   4.338   0.515  11.374 -0.3423  1.1728  0.3207
 4215TIP3    H234137   4.260   0.524  11.245  0.9633 -1.6085 -0.7342
 4216TIP3   OH234138   6.019   0.063   3.980  0.2974  0.3813  0.2497
 4216TIP3    H134139   5.952  -0.005   3.973 -1.3338  1.8750  0.7752
 4216TIP3    H234140   6.053   0.054   4.069  0.4810 -0.0812  0.1374
 4217TIP3   OH234141   2.098   0.237  12.961  0.3593 -0.0661 -0.1628
 4217TIP3    H134142   2.145   0.267  12.883 -0.6998  1.0383 -0.4114
 4217TIP3    H234143   2.137   0.152  12.981  1.9815  0.5017 -0.7444
 4218TIP3   OH234144   2.032   2.828  17.426 -0.8267 -0.3798  0.0575
 4218TIP3    H134145   2.120   2.849  17.397 -0.3993 -1.3608  0.5810
 4218TIP3    H234146   1.975   2.855  17.354  0.1942 -2.9689 -1.8932
 4219TIP3   OH234147   4.477   0.581   2.174  0.4857 -0.3870 -0.0374
 4219TIP3    H134148   4.436   0.610   2.256  0.8073  0.8749 -0.3008
 4219TIP3    H234149   4.543   0.518   2.202  0.3495 -0.2307  0.6575
 4220TIP3   OH234150   5.635   3.271  12.028 -0.3117  0.5256 -0.1637
 4220TIP3    H134151   5.585   3.353  12.023 -0.8468  0.1930 -0.3955
 4220TIP3    H234152   5.569   3.204  12.048  0.1322  0.1609  0.1065
 4221TIP3   OH234153   0.188   1.870  17.380  0.4669  0.3335  0.0021
 4221TIP3    H134154   0.116   1.814  17.350 -0.1360  1.4002 -0.5900
 4221TIP3    H234155   0.225   1.907  17.300  2.0608 -0.6221  0.2488
 4222TIP3   OH234156   1.619   3.307   1.316 -0.3524 -0.5163  0.2103
 4222TIP3    H134157   1.593   3.399   1.323 -0.6058  0.0266 -4.3535
 4222TIP3    H234158   1.713   3.310   1.302 -0.2157 -1.0456  1.0273
 4223TIP3   OH234159   0.655   2.325  15.277  0.1854 -0.4113  0.8596
 4223TIP3    H134160   0.600   2.395  15.242 -0.8274 -1.1305  0.9685
 4223TIP3    H234161   0.712   2.300  15.205 -1.4234 -1.4265 -0.1162
 4224TIP3   OH234162   2.132   6.161   2.632  0.2173  0.1249  0.3855
 4224TIP3    H134163   2.052   6.128   2.675 -0.5838  0.2911 -0.9048
 4224TIP3    H234164   2.114   6.150   2.539  1.6625  0.3237  0.0674
 4225TIP3   OH234165   4.278   0.972   3.995 -0.2237  0.5216 -0.1511
 4225TIP3    H134166   4.269   1.020   3.913  1.4284 -1.4957 -1.6296
 4225TIP3    H234167   4.362   1.001   4.031 -0.7846  1.1475  0.6867
 4226TIP3   OH234168   6.362   4.432  16.239 -0.1781  0.0408  0.3617
 4226TIP3    H134169   6.330   4.344  16.259  1.3132 -0.4309  0.8070
 4226TIP3    H234170   6.447   4.437  16.283  0.0481  1.4793 -0.1925
 4227TIP3   OH234171   0.680   3.135  14.971 -0.9011 -0.2755  0.0002
 4227TIP3    H134172   0.633   3.188  14.907  0.1888  0.5721 -0.1235
 4227TIP3    H234173   0.618   3.125  15.043 -0.7780  2.1224  0.5094
 4228TIP3   OH234174   6.753   0.879   1.242 -0.2586 -0.4489  0.0449
 4228TIP3    H134175   6.827   0.895   1.184 -1.1148 -0.8290 -1.2128
 4228TIP3    H234176   6.744   0.784   1.243 -1.6876 -0.3592 -1.1264
 4229TIP3   OH234177   4.791   3.777  15.519 -0.2303  0.3109 -0.3172
 4229TIP3    H134178   4.815   3.687  15.543 -1.6665 -0.0538 -0.1810
 4229TIP3    H234179   4.875   3.819  15.498  0.6080 -0.6449  0.9672
 4230TIP3   OH234180   1.667   4.832   0.199 -0.0272  0.1218 -0.0525
 4230TIP3    H134181   1.743   4.850   0.143 -0.3712  3.0669  0.2715
 4230TIP3    H234182   1.695   4.858   0.286 -0.4045 -1.7989  0.6695
 4231TIP3   OH234183   4.286   3.507  12.525 -0.1304 -0.4697 -0.3646
 4231TIP3    H134184   4.369   3.519  12.571 -0.5471  0.9057  0.0856
 4231TIP3    H234185   4.275   3.412  12.520 -0.2043 -0.7484  2.6861
 4232TIP3   OH234186   4.971   4.986  13.788  0.1375  0.4552  0.0278
 4232TIP3    H134187   4.918   5.053  13.831  0.2793  0.1518  0.6890
 4232TIP3    H234188   4.950   4.905  13.835 -1.2148 -0.2895 -1.7671
 4233TIP3   OH234189   1.693   1.625  13.357 -0.2114  0.1666 -0.0117
 4233TIP3    H134190   1.658   1.618  13.268  1.9544  1.5331 -1.0388
 4233TIP3    H234191   1.692   1.719  13.376  0.6725  0.0207  0.8404
 4234TIP3   OH234192   4.961   5.848   2.614  0.4549 -0.0521  0.6019
 4234TIP3    H134193   4.919   5.764   2.597 -0.4521  0.0512  2.1429
 4234TIP3    H234194   4.903   5.912   2.572  0.5680 -0.1171  0.3461
 4235TIP3   OH234195   5.582   4.303   0.222 -0.6521  0.4823  0.2410
 4235TIP3    H134196   5.518   4.239   0.190  0.4620 -0.4013 -0.2803
 4235TIP3    H234197   5.565   4.381   0.170 -1.8721  0.5583  0.7211
 4236TIP3   OH234198   4.825   6.338   6.133  0.3665  0.3950  0.1130
 4236TIP3    H134199   4.805   6.417   6.184  0.3370  0.6015 -0.2155
 4236TIP3    H234200   4.756   6.276   6.156 -0.6794  1.0907 -1.0027
 4237TIP3   OH234201   1.982   2.375  10.729 -0.5387  0.2694  0.3125
 4237TIP3    H134202   1.931   2.416  10.799  0.0867 -0.8209  1.4433
 4237TIP3    H234203   2.066   2.355  10.769 -0.0738 -0.1409 -0.8357
 4238TIP3   OH234204   5.543   5.971  15.085 -0.3363  0.2577 -0.1607
 4238TIP3    H134205   5.616   5.965  15.147 -1.0234 -2.6198  0.5472
 4238TIP3    H234206   5.475   6.017  15.133 -0.5980 -1.2759  1.0167
 4239TIP3   OH234207   1.695   1.945   1.005 -0.1756  0.7650 -0.2597
 4239TIP3    H134208   1.629   1.887   1.042  0.4625  0.6908  0.8295
 4239TIP3    H234209   1.653   1.986   0.930 -0.2449 -1.9832 -1.8128
 4240TIP3   OH234210   6.350   1.107  11.864 -0.2950 -0.5470 -0.9072
 4240TIP3    H134211   6.258   1.134  11.858 -0.3535 -0.2777  0.8679
 4240TIP3    H234212   6.347   1.024  11.911  0.4169 -0.2658 -0.3643
 4241TIP3   OH234213   6.080   6.439  11.564  0.1775  0.1867 -0.6420
 4241TIP3    H134214   6.120   6.428  11.651  2.1695 -0.9292 -1.6102
 4241TIP3    H234215   6.082   6.533  11.548 -0.1536  0.3979  0.4935
 4242TIP3   OH234216   1.489   3.810   5.348  0.3769 -0.1161  0.1016
 4242TIP3    H134217   1.531   3.890   5.381  0.6755  0.2352 -1.0672
 4242TIP3    H234218   1.541   3.739   5.384  1.3184  0.2873 -0.4215
 4243TIP3   OH234219   6.501   4.538   0.828  0.2993  0.4454 -0.2767
 4243TIP3    H134220   6.481   4.445   0.823  0.8320  0.3573 -1.2454
 4243TIP3    H234221   6.519   4.555   0.920  0.6692 -0.5231 -0.1606
 4244TIP3   OH234222   2.483   3.839  14.779 -0.2020 -0.3643 -0.2002
 4244TIP3    H134223   2.483   3.756  14.826 -1.5100  0.8244  2.0690
 4244TIP3    H234224   2.542   3.896  14.829  0.9560  0.0272 -1.9179
 4245TIP3   OH234225   5.815   6.193   4.012 -0.0610 -0.0762  0.2704
 4245TIP3    H134226   5.902   6.215   3.979 -0.5399 -0.0188 -1.0049
 4245TIP3    H234227   5.782   6.275   4.050  0.6995 -0.2767  1.4309
 4246TIP3   OH234228   2.120   4.933   0.767  0.4760 -0.5213  0.0937
 4246TIP3    H134229   2.045   4.874   0.760  1.1078 -1.3249 -0.0425
 4246TIP3    H234230   2.173   4.896   0.838 -0.3271  1.2712  1.7282
 4247TIP3   OH234231   5.614   0.180   0.976 -0.3292 -0.2002  0.2058
 4247TIP3    H134232   5.597   0.155   0.885  0.5784 -1.0615  0.2537
 4247TIP3    H234233   5.690   0.237   0.972 -0.6778  0.2852  0.3743
 4248TIP3   OH234234   3.462   5.092   2.958  0.4087 -0.2989  0.0158
 4248TIP3    H134235   3.413   5.174   2.953 -0.1961 -0.5584  1.4055
 4248TIP3    H234236   3.547   5.117   2.996  1.8164  0.3016 -3.1933
 4249TIP3   OH234237   2.984   2.875  15.366 -0.2485 -0.2256  0.4241
 4249TIP3    H134238   2.961   2.793  15.323  1.2084 -0.4436  0.0162
 4249TIP3    H234239   2.942   2.943  15.314 -2.7832 -0.7291  1.6423
 4250TIP3   OH234240   1.734   5.562   5.884 -0.0628  0.1873  0.7780
 4250TIP3    H134241   1.639   5.568   5.894 -0.5232 -0.1292 -2.4380
 4250TIP3    H234242   1.769   5.621   5.951 -2.4348 -0.3363  2.6200
 4251TIP3   OH234243   1.066   2.703  14.617 -0.1683  0.7698 -0.0244
 4251TIP3    H134244   1.052   2.611  14.594  1.3618  0.7325 -0.9296
 4251TIP3    H234245   0.988   2.748  14.587 -0.8437 -0.1937  0.2421
 4252TIP3   OH234246   5.168   4.680  14.482  0.3797 -0.5776  0.2521
 4252TIP3    H134247   5.201   4.746  14.544  0.7617 -0.9334  0.4376
 4252TIP3    H234248   5.247   4.639  14.446  0.1550 -1.6622  0.9321
 4253TIP3   OH234249   2.237   0.985   5.371 -0.0230 -0.5890  0.5348
 4253TIP3    H134250   2.332   0.974   5.367 -0.2194 -2.4791  0.0049
 4253TIP3    H234251   2.213   0.948   5.456 -0.4058 -1.3647  0.0966
 4254TIP3   OH234252   1.868   4.707  14.650  0.6547 -0.3518  0.2828
 4254TIP3    H134253   1.833   4.795  14.667  1.9762  0.1912  0.3207
 4254TIP3    H234254   1.923   4.689  14.726 -1.0546 -2.0233  1.2014
 4255TIP3   OH234255   2.075   3.859  11.742  0.2312  0.0409 -0.0974
 4255TIP3    H134256   2.165   3.885  11.763  0.0667  1.2728 -0.8225
 4255TIP3    H234257   2.075   3.764  11.754  1.6051  0.0251  0.0081
 4256TIP3   OH234258   5.874   6.092   3.273 -0.2660  0.0318 -0.1468
 4256TIP3    H134259   5.817   6.156   3.317 -0.0793 -0.3307  0.6381
 4256TIP3    H234260   5.852   6.101   3.180  0.0352  1.5103 -0.1099
 4257TIP3   OH234261   5.700   3.604  14.651 -0.1282 -0.5389  0.1261
 4257TIP3    H134262   5.634   3.674  14.653  0.3211 -0.0441 -1.2609
 4257TIP3    H234263   5.649   3.523  14.664 -1.1046 -0.2042 -1.3515
 4258TIP3   OH234264   3.395   0.734   4.983  0.6034  0.1047  0.1498
 4258TIP3    H134265   3.433   0.751   4.897  0.4540  0.9432  0.2422
 4258TIP3    H234266   3.326   0.670   4.966  2.4131 -1.9172  0.0673
 4259TIP3   OH234267   1.668   0.163   6.134  0.0249 -0.0876 -0.5290
 4259TIP3    H134268   1.723   0.193   6.062 -0.3600  1.3907 -0.2398
 4259TIP3    H234269   1.692   0.219   6.208 -1.5200  0.2892 -0.2797
 4260TIP3   OH234270   3.767   4.671  16.385 -0.3390  0.3091  0.3517
 4260TIP3    H134271   3.750   4.763  16.362  0.1567  0.4605  0.5747
 4260TIP3    H234272   3.839   4.645  16.328 -0.9053 -0.1518 -0.1775
 4261TIP3   OH234273   0.573   3.651  15.598 -0.2916 -0.0484 -0.3234
 4261TIP3    H134274   0.521   3.571  15.599 -1.5904  0.7548 -0.9629
 4261TIP3    H234275   0.594   3.666  15.505 -0.1966  0.4236 -0.2321
 4262TIP3   OH234276   5.631   4.429  16.558 -0.4461  0.2223 -0.1930
 4262TIP3    H134277   5.553   4.397  16.514 -1.1998  0.8822  0.6025
 4262TIP3    H234278   5.704   4.404  16.502 -1.1579 -1.1311 -0.5402
 4263TIP3   OH234279   3.384   5.638  11.176 -0.0829 -0.4755  0.0338
 4263TIP3    H134280   3.393   5.597  11.089  0.5076  0.0783 -0.1757
 4263TIP3    H234281   3.427   5.723  11.167 -0.2765 -0.2903  0.7917
 4264TIP3   OH234282   0.174   3.693   0.295  0.2306  0.6742 -0.4970
 4264TIP3    H134283   0.099   3.668   0.240  0.3507 -0.6635 -0.0750
 4264TIP3    H234284   0.136   3.750   0.362 -0.0613  1.6332 -1.4320
 4265TIP3   OH234285   1.681   0.096  17.416 -0.4927  0.4084 -0.0240
 4265TIP3    H134286   1.730   0.063  17.491  0.3970  1.3124 -0.1791
 4265TIP3    H234287   1.595   0.056  17.423 -0.4937  0.6385  1.5952
 4266TIP3   OH234288   5.470   4.189  11.445  0.4133  0.0495  0.2129
 4266TIP3    H134289   5.560   4.188  11.477 -0.1494  0.9970  1.9511
 4266TIP3    H234290   5.431   4.109  11.480  0.1615  0.4478  0.8858
 4267TIP3   OH234291   3.901   0.168   5.821  0.1607 -0.4630 -0.2140
 4267TIP3    H134292   3.816   0.125   5.828 -0.1798  0.4495  2.2617
 4267TIP3    H234293   3.964   0.096   5.818 -0.5187 -1.1754  1.5727
 4268TIP3   OH234294   6.077   1.391  13.724 -0.5648  0.2858  0.1395
 4268TIP3    H134295   5.993   1.423  13.756 -1.0161  0.0640 -0.7624
 4268TIP3    H234296   6.080   1.421  13.633 -0.1642 -0.6403 -0.1604
 4269TIP3   OH234297   2.081   1.126   2.082  0.3957  0.5460  0.2073
 4269TIP3    H134298   2.009   1.160   2.136  1.4048  2.1049  0.6455
 4269TIP3    H234299   2.067   1.165   1.996  1.7277  2.4239  0.7914
 4270TIP3   OH234300   5.235   5.019  16.870  0.6246 -0.2474 -0.3322
 4270TIP3    H134301   5.217   5.022  16.963  2.2996  1.7180  0.0016
 4270TIP3    H234302   5.241   5.111  16.843  3.2916 -0.6807 -1.6464
 4271TIP3   OH234303   2.674   4.024  16.899  0.1412  0.5942 -0.0060
 4271TIP3    H134304   2.763   4.053  16.875  0.5197  0.5821  1.3208
 4271TIP3    H234305   2.634   4.101  16.940 -0.3886  0.5187 -0.3653
 4272TIP3   OH234306   1.885   3.624   5.285  0.0563 -0.4538 -0.1021
 4272TIP3    H134307   1.962   3.664   5.325 -1.0430  4.0129 -1.8302
 4272TIP3    H234308   1.818   3.627   5.353  0.4399 -0.9203  0.2973
 4273TIP3   OH234309   3.002   6.228  12.452 -0.1546  0.0456  0.0151
 4273TIP3    H134310   2.910   6.203  12.448  0.1194 -0.8815 -0.8433
 4273TIP3    H234311   3.016   6.281  12.374 -0.1249  0.8294  0.5350
 4274TIP3   OH234312   4.695   5.086   1.232  0.4928  0.0598 -0.5626
 4274TIP3    H134313   4.744   5.048   1.159  0.7017 -0.7774 -0.0013
 4274TIP3    H234314   4.662   5.169   1.198  0.8312 -0.1799 -1.5143
 4275TIP3   OH234315   5.462   0.757   2.638 -0.2498  0.1740 -0.6307
 4275TIP3    H134316   5.547   0.755   2.595  0.2286  1.2278  0.1924
 4275TIP3    H234317   5.442   0.666   2.657  1.8164  0.0116  1.2129
 4276TIP3   OH234318   5.307   3.104   4.277  0.0872  0.3478 -0.9587
 4276TIP3    H134319   5.217   3.115   4.310  0.5507  1.1937  0.0778
 4276TIP3    H234320   5.300   3.124   4.184 -0.8764 -0.0114 -0.9803
 4277TIP3   OH234321   3.035   3.519  13.220 -0.9904 -0.7538 -0.4954
 4277TIP3    H134322   3.103   3.482  13.163 -0.2136 -1.2832  0.7402
 4277TIP3    H234323   2.989   3.582  13.165  0.6469 -0.2178 -1.3060
 4278TIP3   OH234324   4.568   0.220  15.531 -0.3124 -0.2213  0.3624
 4278TIP3    H134325   4.517   0.231  15.611 -0.9094 -0.8986  0.0870
 4278TIP3    H234326   4.652   0.262  15.550  0.0675 -1.5685  1.8209
 4279TIP3   OH234327   3.703   0.957   5.351  0.2531 -0.4321  0.2280
 4279TIP3    H134328   3.694   0.974   5.258  0.9195 -2.5126 -0.2787
 4279TIP3    H234329   3.796   0.937   5.363 -0.1420 -1.9818  0.9616
 4280TIP3   OH234330   4.108   4.713   6.265  0.2419  0.3433 -0.3634
 4280TIP3    H134331   4.127   4.767   6.342 -0.6602 -0.9428  0.8197
 4280TIP3    H234332   4.042   4.763   6.217 -1.5600 -0.2278  1.3941
 4281TIP3   OH234333   6.180   1.063  15.158  0.3922  0.1621 -0.6873
 4281TIP3    H134334   6.084   1.059  15.154  0.3338  0.5789  0.1637
 4281TIP3    H234335   6.209   0.997  15.095 -0.4725 -1.0889  0.1734
 4282TIP3   OH234336   4.158   2.371  11.056 -0.3926 -0.8396  0.1941
 4282TIP3    H134337   4.179   2.438  11.122 -0.9848 -0.7785  0.3291
 4282TIP3    H234338   4.080   2.327  11.091  0.5324 -2.2386  0.5690
 4283TIP3   OH234339   5.046   3.314   3.696  0.5437 -0.1528 -0.0053
 4283TIP3    H134340   5.067   3.359   3.778  2.3540 -1.5159  0.3481
 4283TIP3    H234341   4.955   3.287   3.706  0.1626  1.3472  0.7504
 4284TIP3   OH234342   3.573   1.738   4.731  0.1649  0.4707  0.3572
 4284TIP3    H134343   3.539   1.782   4.809 -1.3242 -1.3486  0.7925
 4284TIP3    H234344   3.499   1.689   4.696  0.3510  2.2943 -3.0744
 4285TIP3   OH234345   4.816   1.349  11.904  0.0998 -0.6555  0.7034
 4285TIP3    H134346   4.832   1.305  11.988  0.5045 -0.9987  0.4560
 4285TIP3    H234347   4.893   1.327  11.851 -0.4291 -0.9480  0.0389
 4286TIP3   OH234348   2.653   5.914  13.142  0.1113  1.0275  0.2378
 4286TIP3    H134349   2.631   5.980  13.209  2.0432  2.6262 -0.5887
 4286TIP3    H234350   2.582   5.920  13.079 -0.9888  0.5368  1.3863
 4287TIP3   OH234351   4.392   4.565   3.324  0.1590  0.0011 -0.1160
 4287TIP3    H134352   4.358   4.634   3.267 -1.1616 -0.9023 -0.4919
 4287TIP3    H234353   4.486   4.580   3.327  0.0916  0.8909 -1.4506
 4288TIP3   OH234354   0.450   3.430   5.007 -0.7264  0.3332  0.1628
 4288TIP3    H134355   0.432   3.336   5.019 -0.2814 -0.0797 -2.0119
 4288TIP3    H234356   0.366   3.466   4.978 -0.4092  0.1623 -1.0455
 4289TIP3   OH234357   1.443   0.352  10.620  0.2052  0.1974 -0.2879
 4289TIP3    H134358   1.503   0.345  10.694  0.5530  1.1246 -0.4735
 4289TIP3    H234359   1.356   0.344  10.659  0.4241 -1.3564 -0.0422
 4290TIP3   OH234360   0.634   6.427   4.424 -0.1882  0.8582 -0.0810
 4290TIP3    H134361   0.599   6.394   4.342 -0.1714 -0.9569  0.5991
 4290TIP3    H234362   0.562   6.478   4.462 -0.9872 -0.1156 -0.2275
 4291TIP3   OH234363   1.848   3.813   0.607 -0.3529 -0.5639  0.0548
 4291TIP3    H134364   1.879   3.787   0.521 -1.2236 -0.1616 -0.3953
 4291TIP3    H234365   1.926   3.811   0.663  1.1826  3.1454 -1.6254
 4292TIP3   OH234366   0.107   4.281   2.919  0.1191 -0.2118  0.0980
 4292TIP3    H134367   0.097   4.372   2.890 -0.7180  0.0173  1.0356
 4292TIP3    H234368   0.154   4.288   3.002 -1.8713 -0.4139  1.3134
 4293TIP3   OH234369   5.542   1.666  13.699 -0.2525  0.1777 -0.0085
 4293TIP3    H134370   5.523   1.580  13.737  0.5246  0.5861  1.3941
 4293TIP3    H234371   5.637   1.667  13.688 -0.2154  0.9654  0.3107
 4294TIP3   OH234372   5.555   5.862   3.739 -0.3706  0.0678 -0.3531
 4294TIP3    H134373   5.635   5.811   3.727 -0.3855 -0.4323  1.3602
 4294TIP3    H234374   5.577   5.927   3.805 -1.9008 -1.5061  1.8882
 4295TIP3   OH234375   0.122   3.396  17.338 -0.3354 -0.3441 -0.1671
 4295TIP3    H134376   0.206   3.424  17.372  1.3810 -1.8146 -2.7861
 4295TIP3    H234377   0.069   3.378  17.415  2.4025 -1.1725  1.6727
 4296TIP3   OH234378   5.316   5.916   6.738  0.9424  0.1736  0.8821
 4296TIP3    H134379   5.375   5.844   6.761  0.1387 -1.1989 -1.0173
 4296TIP3    H234380   5.287   5.951   6.821  2.6089 -0.6435  1.8715
 4297TIP3   OH234381   5.066   0.864   0.883  0.2753 -0.8877 -0.4685
 4297TIP3    H134382   5.017   0.938   0.847  2.2435  1.4338  1.2726
 4297TIP3    H234383   5.011   0.833   0.955  0.2916  0.2324  0.0589
 4298TIP3   OH234384   2.137   1.588  11.411 -0.2669  0.0903 -0.0463
 4298TIP3    H134385   2.060   1.588  11.355  0.8864  1.3343 -1.7091
 4298TIP3    H234386   2.211   1.595  11.351  1.0460  1.1942  1.6109
 4299TIP3   OH234387   1.239   3.029  11.941 -0.6205  0.2430 -0.0810
 4299TIP3    H134388   1.157   3.044  11.988 -0.8191  0.3172 -0.4474
 4299TIP3    H234389   1.274   3.117  11.925  0.0652  0.1875  0.9956
 4300TIP3   OH234390   3.440   3.306   2.182 -0.1055  0.1330 -0.1289
 4300TIP3    H134391   3.439   3.401   2.177 -1.7336  0.1047 -0.7521
 4300TIP3    H234392   3.393   3.285   2.263 -0.4276 -0.1608 -0.3909
 4301TIP3   OH234393   0.168   4.021   2.384 -0.1492 -0.1890  0.2672
 4301TIP3    H134394   0.238   3.992   2.325 -0.5252  0.7998 -0.6978
 4301TIP3    H234395   0.206   4.013   2.472  1.6685  1.5679 -0.2847
 4302TIP3   OH234396   6.165   5.511  13.525 -0.0106  0.1778  0.0134
 4302TIP3    H134397   6.188   5.601  13.549 -0.6308  0.1836  0.6154
 4302TIP3    H234398   6.071   5.504  13.545 -0.0171 -0.5352 -0.2381
 4303TIP3   OH234399   4.032   0.457   5.120 -0.7410  0.4191  0.4218
 4303TIP3    H134400   4.012   0.498   5.204  2.3156  0.9218  1.0391
 4303TIP3    H234401   4.039   0.363   5.141  3.8569  0.8034  1.8923
 4304TIP3   OH234402   3.416   1.552  15.869  0.0900  0.3691 -0.0808
 4304TIP3    H134403   3.381   1.464  15.856  1.8422 -0.1628 -1.5781
 4304TIP3    H234404   3.345   1.610  15.842 -0.9189 -0.5633  0.4745
 4305TIP3   OH234405   1.694   2.290   6.106  0.1299 -0.0262  0.9889
 4305TIP3    H134406   1.650   2.222   6.158 -0.7840  0.3936  0.7973
 4305TIP3    H234407   1.726   2.353   6.170  1.0420 -0.6693  1.1719
 4306TIP3   OH234408   5.217   3.858  11.663 -0.0430  0.2045  0.2486
 4306TIP3    H134409   5.252   3.903  11.740  0.7828  0.4092 -0.2338
 4306TIP3    H234410   5.123   3.853  11.679  0.1734 -0.2473  1.5217
 4307TIP3   OH234411   5.007   4.152   5.940  0.2830 -0.1031 -0.2493
 4307TIP3    H134412   5.032   4.220   6.003 -1.0967  1.4576 -1.3115
 4307TIP3    H234413   4.914   4.139   5.955  0.8203 -3.2387  1.2338
 4308TIP3   OH234414   0.300   1.428   1.263 -0.3253 -0.2788 -0.5553
 4308TIP3    H134415   0.297   1.444   1.168 -1.8716  1.7575 -0.2302
 4308TIP3    H234416   0.347   1.503   1.298 -2.0088  0.3377  0.4881
 4309TIP3   OH234417   3.742   3.863  14.419  0.6305 -0.0866  0.1794
 4309TIP3    H134418   3.720   3.913  14.340  2.8540  1.2452  0.3066
 4309TIP3    H234419   3.791   3.788  14.386 -1.3392 -1.4089  0.1112
 4310TIP3   OH234420   1.444   3.977  15.760 -0.6163 -0.4976  0.9614
 4310TIP3    H134421   1.454   3.935  15.845  1.7943 -0.5607  0.7173
 4310TIP3    H234422   1.408   3.908  15.704  1.4593 -1.7345  1.0404
 4311TIP3   OH234423   0.835   2.151  13.307  0.0725 -0.0471 -0.7487
 4311TIP3    H134424   0.755   2.156  13.358  0.7894  2.7355  0.2701
 4311TIP3    H234425   0.806   2.150  13.216 -1.1350 -2.2637 -0.4098
 4312TIP3   OH234426   4.632   2.254   3.138 -0.1544  0.2070 -0.0853
 4312TIP3    H134427   4.647   2.174   3.188 -0.6442  0.4812  0.5206
 4312TIP3    H234428   4.598   2.224   3.054  0.7956 -0.2690 -0.3116
 4313TIP3   OH234429   0.904   1.364  13.776  0.0903  0.1854  0.1299
 4313TIP3    H134430   0.976   1.301  13.775  0.9683  1.1455  0.2165
 4313TIP3    H234431   0.938   1.439  13.727 -1.4934  0.0175 -1.3060
 4314TIP3   OH234432   4.091   5.394   1.293  0.5047 -0.8391 -0.0481
 4314TIP3    H134433   4.056   5.340   1.364  1.3248 -0.0560  0.9742
 4314TIP3    H234434   4.186   5.389   1.304  0.5940  0.7988  0.0753
 4315TIP3   OH234435   2.872   6.134   1.427  0.2899 -0.0008 -0.4809
 4315TIP3    H134436   2.896   6.149   1.518  1.1389 -2.5369 -0.2145
 4315TIP3    H234437   2.947   6.090   1.389 -0.2938  0.4636 -2.2645
 4316TIP3   OH234438   0.688   3.856   2.600  0.6410  0.3685  0.0647
 4316TIP3    H134439   0.599   3.848   2.566  0.0470  2.2950  1.0094
 4316TIP3    H234440   0.709   3.769   2.634 -0.5336 -0.3371 -0.9393
 4317TIP3   OH234441   5.708   4.360  15.445 -0.0233  0.2139 -0.1416
 4317TIP3    H134442   5.693   4.266  15.459  0.0338 -0.0458 -1.6362
 4317TIP3    H234443   5.621   4.399  15.452 -0.4268 -0.3026 -1.7727
 4318TIP3   OH234444   2.424   6.026   6.530  0.2022 -0.0779 -0.5521
 4318TIP3    H134445   2.405   6.118   6.549  3.1903  0.3050  1.3993
 4318TIP3    H234446   2.487   6.030   6.457  0.5277 -0.5359 -0.2999
 4319TIP3   OH234447   2.716   1.568  12.645 -0.0869 -0.0832 -0.9270
 4319TIP3    H134448   2.714   1.507  12.572  2.2327  0.1503 -1.2356
 4319TIP3    H234449   2.800   1.612  12.639 -1.0379  2.0732  0.1935
 4320TIP3   OH234450   1.433   1.973   3.854  0.7268  0.1868  0.2879
 4320TIP3    H134451   1.491   2.023   3.797  1.2712 -0.0462  0.6260
 4320TIP3    H234452   1.482   1.962   3.935  0.5573 -0.7535  0.2793
 4321TIP3   OH234453   2.429   3.632  12.871  0.1380  0.7624  0.2002
 4321TIP3    H134454   2.513   3.644  12.826  0.2394 -3.8076 -1.2870
 4321TIP3    H234455   2.369   3.688  12.822  1.2915 -0.0932 -2.3817
 4322TIP3   OH234456   2.223   6.164   0.817 -0.6196 -0.5173 -0.1030
 4322TIP3    H134457   2.296   6.184   0.758 -0.4570 -0.2863  0.1751
 4322TIP3    H234458   2.169   6.243   0.815 -1.2314 -0.9397 -0.8439
 4323TIP3   OH234459   5.397   5.854  14.106  0.2220  0.2129  0.1879
 4323TIP3    H134460   5.442   5.777  14.071 -0.8290 -0.4660  0.2881
 4323TIP3    H234461   5.396   5.839  14.201  0.3773  0.5530  0.2431
 4324TIP3   OH234462   5.083   6.554  16.750 -0.2116 -0.0207 -0.1419
 4324TIP3    H134463   5.151   6.506  16.797  1.7639 -0.3385 -3.0551
 4324TIP3    H234464   5.020   6.488  16.724 -0.5942 -0.0497  0.8080
 4325TIP3   OH234465   3.865   4.032  14.099  0.4552 -0.4172  0.4162
 4325TIP3    H134466   3.826   3.945  14.089  0.2848 -0.1963 -1.0468
 4325TIP3    H234467   3.949   4.015  14.143  0.3258 -1.3022  0.3472
 4326TIP3   OH234468   5.521   1.475  10.978 -0.3775  0.3483 -0.0296
 4326TIP3    H134469   5.540   1.381  10.968 -2.3181 -0.1390  0.3618
 4326TIP3    H234470   5.428   1.483  10.955  0.0450  2.4050 -1.2174
 4327TIP3   OH234471   5.996   2.707   1.316  0.4170  0.4393 -0.3040
 4327TIP3    H134472   5.914   2.660   1.310  0.1690  0.3737  2.2467
 4327TIP3    H234473   5.971   2.799   1.329  0.7070  0.4513  0.2603
 4328TIP3   OH234474   4.405   4.353   0.264 -0.2288  0.4934 -0.2238
 4328TIP3    H134475   4.352   4.284   0.224 -0.9578  1.2144 -0.5454
 4328TIP3    H234476   4.356   4.378   0.343  1.2528 -0.9969  1.2328
 4329TIP3   OH234477   6.322   5.316  15.838  0.7593 -0.1507  0.2228
 4329TIP3    H134478   6.342   5.375  15.910 -0.1820  1.0114 -0.4368
 4329TIP3    H234479   6.252   5.359  15.790  2.5078 -0.0426 -2.4241
 4330TIP3   OH234480   2.181   5.295   2.684 -0.0450  0.4092 -0.3435
 4330TIP3    H134481   2.117   5.338   2.740 -0.1120  0.2674 -0.3099
 4330TIP3    H234482   2.249   5.361   2.670 -0.4199  0.7122 -0.7542
 4331TIP3   OH234483   3.554   6.544   5.520  0.3994  0.3718  0.2718
 4331TIP3    H134484   3.606   6.558   5.441 -1.2539 -2.9312 -1.6268
 4331TIP3    H234485   3.463   6.543   5.490 -0.2562 -1.5888  2.0151
 4332TIP3   OH234486   5.018   4.876  15.991 -0.3724  0.5294  0.2325
 4332TIP3    H134487   5.049   4.933  15.920 -0.3791  0.5998  0.2862
 4332TIP3    H234488   5.065   4.907  16.069 -0.4295  0.5081  0.2754
 4333TIP3   OH234489   3.274   2.357   5.960  0.5685 -0.0596  0.1526
 4333TIP3    H134490   3.348   2.371   5.900  1.2781 -0.1501  0.9928
 4333TIP3    H234491   3.313   2.319   6.038 -0.4955 -0.9721  0.2733
 4334TIP3   OH234492   2.100   2.923   0.145  0.4639  0.0596  0.5803
 4334TIP3    H134493   2.037   2.932   0.073  1.4138  0.7478 -0.1971
 4334TIP3    H234494   2.111   3.013   0.178  1.5741  0.0788  0.2070
 4335TIP3   OH234495   0.799   3.615  17.317  0.2456  0.1132 -0.6152
 4335TIP3    H134496   0.872   3.667  17.349  0.3220  0.1145 -0.7937
 4335TIP3    H234497   0.735   3.680  17.288  0.3201  0.1076 -0.7903
 4336TIP3   OH234498   6.270   2.410  15.664  0.3632  0.0986  0.5071
 4336TIP3    H134499   6.241   2.334  15.715  0.9990  0.0931  0.8753
 4336TIP3    H234500   6.211   2.413  15.589 -0.5196  0.0295  1.1791
 4337TIP3   OH234501   3.489   1.094   4.105 -0.8956  0.2242 -0.0039
 4337TIP3    H134502   3.527   1.157   4.044 -0.3088  0.8993  1.0302
 4337TIP3    H234503   3.529   1.114   4.190 -0.3040 -1.8583  0.2880
 4338TIP3   OH234504   1.726   3.207  14.175  0.1978  0.2638  0.8343
 4338TIP3    H134505   1.666   3.212  14.100  0.4403  1.6863  0.7229
 4338TIP3    H234506   1.742   3.298  14.200  2.9059 -0.0006  0.3785
 4339TIP3   OH234507   4.936   2.516   3.181  0.0170 -0.2318 -0.1729
 4339TIP3    H134508   4.882   2.574   3.127 -0.0412 -0.6584 -0.5773
 4339TIP3    H234509   4.897   2.522   3.268 -0.1758  0.1003 -0.2778
 4340TIP3   OH234510   4.866   4.001  15.804  0.1629  0.1163 -0.2172
 4340TIP3    H134511   4.859   3.908  15.826 -1.8081  0.2604 -0.0628
 4340TIP3    H234512   4.808   4.013  15.729 -2.3206  1.7786  1.7755
 4341TIP3   OH234513   0.226   4.852   2.963  0.1329  0.4536  0.4929
 4341TIP3    H134514   0.315   4.816   2.971 -0.2360 -0.5322  0.2386
 4341TIP3    H234515   0.222   4.884   2.872 -0.0252 -0.1829  0.2771
 4342TIP3   OH234516   1.573   1.224  14.445 -0.0212 -0.5603  0.4895
 4342TIP3    H134517   1.643   1.289  14.450 -0.4753  0.0960 -1.1349
 4342TIP3    H234518   1.537   1.234  14.357  0.0100 -3.1514  0.1221
 4343TIP3   OH234519   6.431   4.335   0.431 -0.1315  0.3405  0.3739
 4343TIP3    H134520   6.458   4.256   0.385  0.7933 -0.0311  1.5041
 4343TIP3    H234521   6.359   4.371   0.379 -0.0075 -0.7919 -0.5933
 4344TIP3   OH234522   2.546   2.093   0.804 -0.8368  0.1403  0.4278
 4344TIP3    H134523   2.569   2.041   0.728 -0.5671  1.4735 -0.4426
 4344TIP3    H234524   2.629   2.110   0.849 -0.4441  2.2017 -0.9110
 4345TIP3   OH234525   1.142   5.075   3.131  0.4148 -0.2199 -0.2147
 4345TIP3    H134526   1.066   5.017   3.131  1.2006 -1.2813 -0.0035
 4345TIP3    H234527   1.186   5.057   3.048  0.8350 -0.1601 -0.0092
 4346TIP3   OH234528   6.070   2.550  16.504 -0.3598 -0.3709  0.1541
 4346TIP3    H134529   6.084   2.457  16.527  1.2600  0.0309  0.9663
 4346TIP3    H234530   6.067   2.551  16.409  2.5763 -0.9582 -0.0363
 4347TIP3   OH234531   5.147   5.947   1.079  0.1865 -0.1807  0.4206
 4347TIP3    H134532   5.152   5.863   1.125 -2.2683 -0.7580 -0.2394
 4347TIP3    H234533   5.135   6.012   1.149 -3.1472 -1.0122  0.7827
 4348TIP3   OH234534   2.438   0.387   1.647  0.5261 -0.3073  0.8196
 4348TIP3    H134535   2.471   0.297   1.649 -0.0077 -0.5183  0.4369
 4348TIP3    H234536   2.512   0.439   1.617  1.0197 -0.5336  1.6317
 4349TIP3   OH234537   5.560   0.391   6.013  0.1074  0.1548  0.0027
 4349TIP3    H134538   5.615   0.417   5.938  1.5664  1.5165  1.4419
 4349TIP3    H234539   5.616   0.408   6.089 -1.5168 -0.6892  1.4284
 4350TIP3   OH234540   4.923   6.442  14.365 -0.2048  0.1425 -0.7765
 4350TIP3    H134541   4.897   6.359  14.325  0.4137  0.1356 -1.1894
 4350TIP3    H234542   4.992   6.418  14.427 -1.1059  0.1629  0.2540
 4351TIP3   OH234543   4.054   6.532  12.051  0.3855  0.3584  0.1934
 4351TIP3    H134544   4.013   6.551  12.135  0.1357  0.6688  0.0041
 4351TIP3    H234545   3.993   6.566  11.986  0.2260 -0.5429 -0.1403
 4352TIP3   OH234546   2.616   2.977  17.063  0.2028  0.8328  0.4316
 4352TIP3    H134547   2.651   3.057  17.102 -0.2902  2.1435 -1.6677
 4352TIP3    H234548   2.669   2.907  17.101  2.1629  2.3508  0.6415
 4353TIP3   OH234549   5.655   1.288   2.878 -0.9421 -0.2673  0.4702
 4353TIP3    H134550   5.712   1.365   2.886  0.1103 -1.0462  0.7274
 4353TIP3    H234551   5.691   1.240   2.804 -2.3066  0.0521 -0.4256
 4354TIP3   OH234552   4.618   3.950   4.486  0.3064 -0.4257 -0.1170
 4354TIP3    H134553   4.573   3.959   4.570 -1.7014 -1.1044 -1.0612
 4354TIP3    H234554   4.618   4.038   4.449  0.5852 -0.2548  0.2771
 4355TIP3   OH234555   0.195   4.820  15.922  0.3759  0.2560  0.1982
 4355TIP3    H134556   0.131   4.748  15.922 -0.8296  1.2389 -1.5914
 4355TIP3    H234557   0.278   4.778  15.903  0.0154 -0.8790  1.0387
 4356TIP3   OH234558   0.754   0.536   0.055 -0.1662  0.3182  0.0064
 4356TIP3    H134559   0.717   0.499   0.135  2.7748 -0.9299  0.9064
 4356TIP3    H234560   0.717   0.483  -0.016  0.0882 -1.0687  0.8801
 4357TIP3   OH234561   5.787   1.748  14.689 -0.4519  0.3948  0.4455
 4357TIP3    H134562   5.802   1.838  14.662 -2.6883  1.7162  3.0641
 4357TIP3    H234563   5.874   1.708  14.692  0.8076  3.0074  0.8690
 4358TIP3   OH234564   1.828   1.763   0.846  0.2906  0.6147  0.4721
 4358TIP3    H134565   1.850   1.840   0.793  0.2817  0.9447  0.9306
 4358TIP3    H234566   1.793   1.800   0.927  0.4110  0.1260  0.7526
 4359TIP3   OH234567   1.902   1.571  12.943  0.0547  0.0012  0.2800
 4359TIP3    H134568   1.984   1.566  12.992  0.3618  0.9629 -0.1178
 4359TIP3    H234569   1.865   1.656  12.966 -1.0401 -0.5741  0.7537
 4360TIP3   OH234570   1.625   4.626   4.216  0.3680 -0.4995 -0.6929
 4360TIP3    H134571   1.623   4.541   4.259  0.3288 -0.3335 -0.3692
 4360TIP3    H234572   1.701   4.671   4.253 -0.1887 -0.0108 -0.1292
 4361TIP3   OH234573   3.470   2.644   3.271 -0.2234  0.1054  0.0307
 4361TIP3    H134574   3.405   2.666   3.339  0.0964  1.9518 -0.2166
 4361TIP3    H234575   3.528   2.581   3.313 -0.2523  0.9376  1.3686
 4362TIP3   OH234576   0.617   3.981  14.135  0.0620  0.0028 -0.0240
 4362TIP3    H134577   0.586   3.971  14.045  0.9745 -0.7826 -0.2740
 4362TIP3    H234578   0.697   3.929  14.138  0.5485  0.7828  0.9943
 4363TIP3   OH234579   3.169   5.613  16.893  0.3237 -0.1961  0.6173
 4363TIP3    H134580   3.189   5.628  16.800 -0.2528  0.9257  0.6479
 4363TIP3    H234581   3.102   5.679  16.913  0.6590 -0.2318  1.9103
 4364TIP3   OH234582   3.334   5.555   5.772  0.1344  0.1145  0.0332
 4364TIP3    H134583   3.422   5.570   5.736  0.0298 -0.3419 -0.4293
 4364TIP3    H234584   3.290   5.502   5.706 -0.2356 -0.3098  0.6064
 4365TIP3   OH234585   1.345   4.856  15.508 -0.1966 -0.3279  0.5710
 4365TIP3    H134586   1.419   4.813  15.549  0.9594 -0.1702 -1.2148
 4365TIP3    H234587   1.269   4.803  15.533  0.8327 -1.8884  0.5334
 4366TIP3   OH234588   3.745   0.605   5.920 -0.6478  0.0165 -0.0457
 4366TIP3    H134589   3.734   0.695   5.888  1.2675 -0.0057 -0.9177
 4366TIP3    H234590   3.784   0.558   5.847 -0.6492 -1.2840  0.7523
 4367TIP3   OH234591   0.081   0.885  16.209  0.1111  0.2240 -0.3592
 4367TIP3    H134592   0.132   0.866  16.287 -0.0868  1.8477  0.1994
 4367TIP3    H234593  -0.010   0.889  16.240 -0.2310 -1.1690 -1.0752
 4368TIP3   OH234594   3.132   0.226   5.193 -0.5085 -0.8904 -0.0577
 4368TIP3    H134595   3.140   0.146   5.245  0.8211 -0.7373  0.0138
 4368TIP3    H234596   3.221   0.263   5.193  0.3508 -2.2819 -4.6838
 4369TIP3   OH234597   5.176   5.515  15.158  0.3311 -0.2416  0.0244
 4369TIP3    H134598   5.224   5.438  15.189  2.6008  0.8317 -0.6562
 4369TIP3    H234599   5.197   5.584  15.220 -1.4253 -0.0321  0.4410
 4370TIP3   OH234600   1.400   0.156   0.553  0.4068 -0.2712  0.2047
 4370TIP3    H134601   1.348   0.213   0.497  0.1465 -0.7492 -0.0434
 4370TIP3    H234602   1.471   0.212   0.585 -0.4139  0.4638  0.7862
 4371TIP3   OH234603   6.064   4.396  14.524  0.0429  0.3668  0.5947
 4371TIP3    H134604   6.009   4.323  14.495 -1.0896 -0.1116  3.5897
 4371TIP3    H234605   6.005   4.471  14.526  0.5968  0.8414 -0.1165
 4372TIP3   OH234606   1.837   4.327   5.257 -0.4071 -0.3048  0.1588
 4372TIP3    H134607   1.900   4.400   5.264 -0.7904  0.0281  0.1400
 4372TIP3    H234608   1.872   4.261   5.317  0.8094 -0.7555 -0.9808
 4373TIP3   OH234609   0.142   1.614   5.339 -0.3874  0.0291 -0.4742
 4373TIP3    H134610   0.067   1.672   5.330  0.4319  1.0814 -0.6902
 4373TIP3    H234611   0.186   1.644   5.419 -0.5845 -1.0580  0.0674
 4374TIP3   OH234612   5.038   4.321  13.084 -0.1252 -0.3941 -0.5741
 4374TIP3    H134613   4.976   4.293  13.017  0.1402 -1.4142 -0.4100
 4374TIP3    H234614   5.091   4.243  13.101  0.5572  0.1869 -0.0080
 4375TIP3   OH234615   5.282   2.971  12.806  0.1972 -0.0922  0.0550
 4375TIP3    H134616   5.301   2.975  12.712  1.2149  1.3407  0.2934
 4375TIP3    H234617   5.360   2.931  12.844 -0.6567 -1.7117  0.2200
 4376TIP3   OH234618   3.060   1.299   1.578  0.2001 -0.0801  0.1624
 4376TIP3    H134619   2.991   1.241   1.609  0.2095 -0.3500 -0.3245
 4376TIP3    H234620   3.141   1.253   1.601  0.2206  0.1432  0.5516
 4377TIP3   OH234621   6.456   5.131  13.463 -0.0938  0.0615  0.0654
 4377TIP3    H134622   6.428   5.209  13.415  0.1390 -0.7111 -1.3631
 4377TIP3    H234623   6.454   5.158  13.555 -2.5697  0.9518 -0.1869
 4378TIP3   OH234624   0.123   0.669  12.896  0.1994 -0.0847  0.3638
 4378TIP3    H134625   0.203   0.679  12.845 -0.5523 -0.4581 -0.9215
 4378TIP3    H234626   0.073   0.602  12.850 -1.5466  1.2572  0.2359
 4379TIP3   OH234627   1.172   2.426   1.584 -0.2859  0.1133  0.5072
 4379TIP3    H134628   1.156   2.333   1.596  1.2276 -0.1401  0.6774
 4379TIP3    H234629   1.087   2.467   1.600 -0.4540 -1.0173  2.8993
 4380TIP3   OH234630   3.173   0.187  14.655  0.4656 -0.3457  0.0981
 4380TIP3    H134631   3.241   0.179  14.722 -0.1770  0.1584  0.8312
 4380TIP3    H234632   3.090   0.183  14.704 -0.0505 -1.4306 -0.8253
 4381TIP3   OH234633   6.116   5.160   6.317  0.2480 -0.5266 -0.0383
 4381TIP3    H134634   6.160   5.146   6.233  1.6478  4.5907 -0.4643
 4381TIP3    H234635   6.023   5.168   6.294  0.6892  1.5762 -1.3538
 4382TIP3   OH234636   1.977   5.828  14.125  0.2622  0.3722 -0.1331
 4382TIP3    H134637   1.934   5.870  14.050 -2.4399 -0.7597  0.6477
 4382TIP3    H234638   1.957   5.885  14.199  0.1894 -0.1256  0.2364
 4383TIP3   OH234639   5.169   2.036   3.950  0.1778  0.6142 -1.0112
 4383TIP3    H134640   5.191   1.960   3.897 -1.2619 -0.7874  0.2776
 4383TIP3    H234641   5.084   2.065   3.916 -1.1840 -0.8182  0.9085
 4384TIP3   OH234642   0.661   5.596   1.165 -0.8084  0.5922  0.7019
 4384TIP3    H134643   0.755   5.577   1.159 -1.3611 -2.1291 -1.1696
 4384TIP3    H234644   0.644   5.598   1.259  1.0665  0.9253  1.0864
 4385TIP3   OH234645   6.625   5.034   4.371  0.4198  0.5945 -0.2372
 4385TIP3    H134646   6.612   4.995   4.285  0.7644 -0.7429  0.2852
 4385TIP3    H234647   6.539   5.068   4.396  0.3784  1.2335 -1.2085
 4386TIP3   OH234648   6.476   6.062  12.677  0.3222 -0.0973  0.3564
 4386TIP3    H134649   6.452   5.975  12.644  0.3531  0.2249 -0.5233
 4386TIP3    H234650   6.488   6.115  12.599 -0.5683  0.9454  0.9050
 4387TIP3   OH234651   6.184   0.758   2.091 -0.0233  0.1721 -0.8466
 4387TIP3    H134652   6.154   0.767   2.001 -0.8618  0.5340 -0.5380
 4387TIP3    H234653   6.144   0.831   2.138 -1.0703 -1.0189  0.1916
 4388TIP3   OH234654   5.511   2.311   3.332 -0.2443 -0.3846  0.8260
 4388TIP3    H134655   5.450   2.352   3.271  1.2394  0.7102  0.0012
 4388TIP3    H234656   5.477   2.222   3.344 -1.8021  0.0891  0.1688
 4389TIP3   OH234657   4.474   0.624  12.540  0.2296  0.0534  0.2008
 4389TIP3    H134658   4.418   0.656  12.611  1.1181 -0.6820  1.2636
 4389TIP3    H234659   4.425   0.644  12.460  0.1759  2.9261  0.8425
 4390TIP3   OH234660   3.673   3.461   0.300 -0.6419 -0.4459  0.1708
 4390TIP3    H134661   3.746   3.507   0.342 -1.8381  1.4040  0.3316
 4390TIP3    H234662   3.657   3.385   0.356  2.4785 -2.1760 -1.0115
 4391TIP3   OH234663   4.560   2.305   0.235  0.4574 -0.0858  0.1085
 4391TIP3    H134664   4.477   2.258   0.226  1.1429 -1.4177  0.3701
 4391TIP3    H234665   4.540   2.395   0.211 -1.5271  0.1055  2.0928
 4392TIP3   OH234666   0.895   3.078  15.791  0.0017 -0.0106 -0.8296
 4392TIP3    H134667   0.919   3.007  15.850 -0.5781 -0.9479 -1.7010
 4392TIP3    H234668   0.890   3.155  15.848  1.8389 -0.3832 -0.0604
 4393TIP3   OH234669   6.368   0.553  11.952  0.2827  0.7206 -0.7906
 4393TIP3    H134670   6.352   0.609  12.028 -1.3455 -0.9972  0.2197
 4393TIP3    H234671   6.323   0.596  11.880 -0.5304  0.9867 -0.1387
 4394TIP3   OH234672   3.816   3.704  16.578 -0.5448  0.2878 -0.4184
 4394TIP3    H134673   3.738   3.679  16.528  0.4866 -0.9131 -1.5067
 4394TIP3    H234674   3.876   3.740  16.512  0.8911 -1.4212 -0.1212
 4395TIP3   OH234675   4.317   4.505   2.200 -0.2205  0.2587  0.2870
 4395TIP3    H134676   4.292   4.451   2.275  0.1373  2.3862  2.0764
 4395TIP3    H234677   4.404   4.473   2.176  0.5270  0.7485  2.1192
 4396TIP3   OH234678   2.817   5.983   1.106 -0.2619  0.0792  0.1150
 4396TIP3    H134679   2.903   5.958   1.073 -0.3341  0.2649 -0.2173
 4396TIP3    H234680   2.802   5.925   1.181  0.6010  0.7453  0.8293
 4397TIP3   OH234681   5.185   5.395  15.858 -0.4214  0.0424 -0.0102
 4397TIP3    H134682   5.271   5.400  15.898  0.1539 -0.8070 -1.1056
 4397TIP3    H234683   5.161   5.303  15.862  0.2599 -0.3358 -2.7660
 4398TIP3   OH234684   5.374   2.937   6.052 -0.3412 -0.4669  0.4507
 4398TIP3    H134685   5.306   2.975   6.108  0.2458  0.3653  0.6259
 4398TIP3    H234686   5.360   2.843   6.058 -1.3102 -0.3165  0.6928
 4399TIP3   OH234687   3.009   6.529  14.994  0.0737 -0.0580  0.6188
 4399TIP3    H134688   3.035   6.440  14.970 -0.7397  0.2966 -1.9255
 4399TIP3    H234689   3.047   6.543  15.081  0.3002 -2.8270  1.0508
 4400TIP3   OH234690   2.999   6.426  12.207  0.0343  0.2014  0.3107
 4400TIP3    H134691   3.086   6.465  12.198 -0.9137  2.1952 -1.0152
 4400TIP3    H234692   2.986   6.378  12.125  0.1477 -0.7414  0.8273
 4401TIP3   OH234693   4.784   2.843  11.096 -0.3450 -0.7011  0.9791
 4401TIP3    H134694   4.786   2.877  11.185 -0.6002 -0.2473  0.8186
 4401TIP3    H234695   4.773   2.748  11.106 -4.3444 -0.3724  1.4291
 4402TIP3   OH234696   0.873   4.467  14.649 -0.1026 -0.5047 -0.3533
 4402TIP3    H134697   0.966   4.462  14.628  0.2679  1.2717  0.6348
 4402TIP3    H234698   0.856   4.393  14.707  0.6094 -1.0330 -0.8153
 4403TIP3   OH234699   1.497   2.898  13.094  0.3244  0.1869 -0.3789
 4403TIP3    H134700   1.564   2.859  13.151 -0.5120 -0.2490  0.3240
 4403TIP3    H234701   1.541   2.972  13.053  1.4345 -0.4679 -0.4174
 4404TIP3   OH234702   6.534   5.333   5.579  0.4209  0.0385 -0.5511
 4404TIP3    H134703   6.529   5.364   5.669 -1.5180 -0.3387 -0.4884
 4404TIP3    H234704   6.492   5.402   5.527 -0.1389 -0.5754 -0.9254
 4405TIP3   OH234705   4.018   5.541   5.102 -0.6833  0.3064 -0.6310
 4405TIP3    H134706   3.949   5.475   5.093  0.4386 -0.9151 -0.5925
 4405TIP3    H234707   4.016   5.565   5.195 -0.2386 -0.6724 -0.3537
 4406TIP3   OH234708   0.952   0.152   1.124  0.5276 -0.8856 -0.7684
 4406TIP3    H134709   0.951   0.085   1.056 -2.2928 -0.2735 -1.4658
 4406TIP3    H234710   0.969   0.234   1.077 -0.1713 -0.6125 -0.5521
 4407TIP3   OH234711   2.235   1.851  14.356 -0.2171 -0.2369 -0.1510
 4407TIP3    H134712   2.303   1.902  14.400 -1.8331  0.1313  2.1197
 4407TIP3    H234713   2.268   1.761  14.356  0.4782  0.0145  0.4947
 4408TIP3   OH234714   2.904   3.443   3.750  0.0285  0.0983  0.1852
 4408TIP3    H134715   2.980   3.434   3.807 -0.6395  3.4395  1.8867
 4408TIP3    H234716   2.829   3.423   3.807 -0.5037  0.3117 -0.4212
 4409TIP3   OH234717   0.237   1.676  12.304 -0.2688  0.0338 -0.2314
 4409TIP3    H134718   0.308   1.718  12.353 -0.2254 -1.8098  1.4176
 4409TIP3    H234719   0.164   1.737  12.310 -0.0112  0.2120  1.4922
 4410TIP3   OH234720   1.898   6.627  17.514 -0.0206  0.5031  0.4882
 4410TIP3    H134721   1.844   6.577  17.453  0.5874  0.3234  0.0862
 4410TIP3    H234722   1.896   6.577  17.595  0.7333 -0.2913  0.0369
 4411TIP3   OH234723   4.014   4.924  17.038  0.1731 -0.1361 -0.2017
 4411TIP3    H134724   3.934   4.949  17.082  0.0999  0.3825 -0.6136
 4411TIP3    H234725   4.063   5.006  17.028 -0.1632 -0.0966 -1.7550
 4412TIP3   OH234726   1.537   3.963  11.601  0.7255  0.1726 -0.6161
 4412TIP3    H134727   1.499   3.885  11.561 -1.1394  1.1555 -0.9189
 4412TIP3    H234728   1.523   3.951  11.695 -1.0390  0.7915 -0.7548
 4413TIP3   OH234729   4.438   1.510  13.437 -0.4922 -0.3376  0.4137
 4413TIP3    H134730   4.515   1.476  13.482  0.7158  0.8695 -0.6239
 4413TIP3    H234731   4.373   1.523  13.506  0.2149 -1.4130  1.3154
 4414TIP3   OH234732   1.986   4.723  11.753  0.5192 -0.3493 -0.2305
 4414TIP3    H134733   2.046   4.719  11.678  1.3839 -0.1777  0.4433
 4414TIP3    H234734   1.933   4.801  11.737  0.3611 -0.5886 -0.9101
 4415TIP3   OH234735   2.481   4.895  12.935  0.4690 -0.9091  0.1613
 4415TIP3    H134736   2.461   4.915  13.026  0.6427 -1.1461  0.2518
 4415TIP3    H234737   2.512   4.805  12.936  1.1597 -0.6835 -0.0287
 4416TIP3   OH234738   1.355   6.332  13.631  0.3703 -0.4681  0.6421
 4416TIP3    H134739   1.318   6.409  13.587 -0.5553 -1.2435  0.0345
 4416TIP3    H234740   1.377   6.272  13.560  0.8982 -0.8519  1.1260
 4417TIP3   OH234741   1.351   1.297   3.715  0.0068 -0.1806  0.3428
 4417TIP3    H134742   1.303   1.253   3.645  1.8148  0.9529 -1.7535
 4417TIP3    H234743   1.375   1.227   3.776 -1.0445 -1.3221 -0.5040
 4418TIP3   OH234744   1.125   3.012  15.115  0.3620  0.2473  0.1126
 4418TIP3    H134745   1.097   2.959  15.041  1.8103  2.0796 -1.8823
 4418TIP3    H234746   1.183   2.955  15.165 -1.4717 -1.3592  0.5032
 4419TIP3   OH234747   6.148   0.669  16.032 -0.6280  0.0414  0.4187
 4419TIP3    H134748   6.188   0.726  15.967 -2.5747 -0.5717 -1.4315
 4419TIP3    H234749   6.219   0.648  16.093  1.4122  0.2764 -1.7640
 4420TIP3   OH234750   4.247   0.542   3.334  0.0729 -0.3864  0.2045
 4420TIP3    H134751   4.165   0.506   3.302 -0.1742 -0.4160  0.8422
 4420TIP3    H234752   4.258   0.503   3.421  1.0230 -0.7943 -0.0762
 4421TIP3   OH234753   2.215   0.400   2.747 -0.2646  0.0698 -0.0630
 4421TIP3    H134754   2.220   0.451   2.828 -0.2316 -2.8505  1.9407
 4421TIP3    H234755   2.122   0.389   2.732 -0.3009  1.5574 -1.1528
 4422TIP3   OH234756   5.836   5.544  10.995  0.1592 -0.6498 -0.4256
 4422TIP3    H134757   5.762   5.490  11.023  1.2084 -0.6576  2.6803
 4422TIP3    H234758   5.814   5.632  11.025  0.8851 -0.4262 -0.5439
 4423TIP3   OH234759   2.967   3.095  15.770  0.0946 -0.1871  0.0678
 4423TIP3    H134760   3.023   3.038  15.717  1.0683  0.0379  0.8230
 4423TIP3    H234761   2.954   3.048  15.852 -0.2534  0.0653  0.1627
 4424TIP3   OH234762   3.977   6.742  17.370  0.2759  0.5213  0.1652
 4424TIP3    H134763   3.994   6.815  17.429 -1.9817  2.5354 -1.4481
 4424TIP3    H234764   3.908   6.692  17.413  1.3830 -0.3543  0.9783
 4425TIP3   OH234765   6.452   1.254   5.532 -0.4894 -0.6090  0.0153
 4425TIP3    H134766   6.425   1.169   5.568 -1.8423  0.2437  1.0931
 4425TIP3    H234767   6.380   1.313   5.552  0.9098  1.0793  0.2992
 4426TIP3   OH234768   1.489   0.183   1.506 -0.3376  0.2115 -0.0567
 4426TIP3    H134769   1.443   0.107   1.471 -1.0637  0.9125 -0.6577
 4426TIP3    H234770   1.582   0.161   1.496 -0.5269 -0.0818 -1.4291
 4427TIP3   OH234771   3.708   3.694  14.928 -0.2414  0.3054 -0.0017
 4427TIP3    H134772   3.743   3.648  14.851 -1.4959  1.4871 -1.3431
 4427TIP3    H234773   3.724   3.634  15.001  2.6511 -0.0941 -0.8341
 4428TIP3   OH234774   6.088   1.519   2.670 -0.1978 -0.4542 -0.4511
 4428TIP3    H134775   6.163   1.495   2.615 -0.5544 -3.0277  0.0363
 4428TIP3    H234776   6.094   1.460   2.745 -1.1962  1.1906  0.9739
 4429TIP3   OH234777   6.104   4.086  12.360  0.4491  0.7253 -0.3478
 4429TIP3    H134778   6.051   4.131  12.426  0.7293 -0.7233  0.9259
 4429TIP3    H234779   6.189   4.129  12.363  0.7926  0.0166  1.0304
 4430TIP3   OH234780   1.166   1.342   4.731 -0.4580 -0.5472  0.0051
 4430TIP3    H134781   1.231   1.387   4.785  1.4622 -0.7757 -1.9724
 4430TIP3    H234782   1.093   1.404   4.724  0.7198  0.8941  0.0541
 4431TIP3   OH234783   1.413   1.467   3.322 -0.3759 -0.1511 -0.6597
 4431TIP3    H134784   1.456   1.411   3.387 -0.6378 -0.8935 -1.1062
 4431TIP3    H234785   1.392   1.407   3.250 -1.3467  0.3744 -0.8240
 4432TIP3   OH234786   4.918   1.186   1.781  0.0172 -0.0084  0.5097
 4432TIP3    H134787   4.977   1.256   1.811  2.1963 -2.3024  2.0362
 4432TIP3    H234788   4.962   1.105   1.808 -1.8885 -2.0439 -2.0007
 4433TIP3   OH234789   6.319   6.551  12.540  0.1824 -0.1497 -0.4184
 4433TIP3    H134790   6.298   6.514  12.455  2.3400 -0.3987 -0.9212
 4433TIP3    H234791   6.384   6.491  12.577  1.2590  1.3189  0.2058
 4434TIP3   OH234792   2.679   4.012  15.560 -0.0441 -0.4745  0.1881
 4434TIP3    H134793   2.607   3.977  15.611 -0.7851  0.0155 -0.4834
 4434TIP3    H234794   2.756   4.002  15.615 -0.3045 -2.6537  0.2111
 4435TIP3   OH234795   1.174   0.389  12.795  0.1643  0.0639  0.1454
 4435TIP3    H134796   1.120   0.418  12.722 -0.4237 -1.6798 -0.1614
 4435TIP3    H234797   1.138   0.433  12.871 -0.1003  0.8247 -0.4121
 4436TIP3   OH234798   0.806   0.110   3.388  0.2922 -0.3226 -0.5726
 4436TIP3    H134799   0.723   0.125   3.434  0.3420 -0.6436 -0.3749
 4436TIP3    H234800   0.786   0.128   3.296 -0.1054 -0.7961 -0.5833
 4437TIP3   OH234801   6.594   1.561  14.612  0.2064 -0.1711  0.0167
 4437TIP3    H134802   6.673   1.568  14.665  0.4997  1.1928 -0.5430
 4437TIP3    H234803   6.601   1.633  14.549 -1.4498 -0.0325 -0.0726
 4438TIP3   OH234804   3.839   3.749   3.874  0.1393 -0.0029  0.1854
 4438TIP3    H134805   3.846   3.814   3.804  1.9695 -0.8104 -0.4481
 4438TIP3    H234806   3.857   3.798   3.954 -2.0572  0.9459  0.1510
 4439TIP3   OH234807   1.898   2.046  13.476  0.7148  0.0920 -0.4997
 4439TIP3    H134808   1.912   2.127  13.524  1.9724  0.0476 -0.7477
 4439TIP3    H234809   1.926   1.977  13.536 -1.8054 -0.3390  0.3090
 4440TIP3   OH234810   4.714   5.135  11.955  0.1757  0.9792  0.2884
 4440TIP3    H134811   4.739   5.223  11.983 -1.5027  1.5086  0.2437
 4440TIP3    H234812   4.673   5.148  11.870 -0.4711  0.2084  0.4711
 4441TIP3   OH234813   0.042   1.963  15.396 -0.5366  0.1496  0.3373
 4441TIP3    H134814   0.133   1.947  15.368 -0.3468  2.0503 -0.3117
 4441TIP3    H234815   0.049   2.035  15.458 -1.2960 -2.0309  3.1440
 4442TIP3   OH234816   2.987   2.561   0.164  0.6998 -1.1052  0.3199
 4442TIP3    H134817   2.941   2.564   0.080  0.7911 -2.0230  0.2236
 4442TIP3    H234818   2.971   2.473   0.196  0.4295 -0.6713  1.4150
 4443TIP3   OH234819   6.677   2.490  11.573 -0.8704  0.2587  0.2339
 4443TIP3    H134820   6.738   2.417  11.560 -1.2157  0.2059 -1.2202
 4443TIP3    H234821   6.729   2.568  11.552 -1.0622  0.2752 -0.1854
 4444TIP3   OH234822   3.804   1.506  14.434 -0.2242 -0.5040  0.0086
 4444TIP3    H134823   3.888   1.462  14.448 -0.6540 -2.0811 -1.9314
 4444TIP3    H234824   3.788   1.498  14.340 -0.7632  3.1322 -0.3514
 4445TIP3   OH234825   3.054   0.684   5.204  0.5662 -0.3578  0.1115
 4445TIP3    H134826   2.980   0.742   5.221  0.8352  0.1768 -0.5148
 4445TIP3    H234827   3.084   0.708   5.116  3.0729  1.1912  1.2623
 4446TIP3   OH234828   5.674   4.976   2.020 -0.0977 -0.4836  0.1640
 4446TIP3    H134829   5.625   4.997   2.099  0.0071  0.2080  0.0518
 4446TIP3    H234830   5.694   4.882   2.028 -0.7935 -0.6050  0.5593
 4447TIP3   OH234831   5.480   0.634   4.539  0.3127  0.2091  0.1634
 4447TIP3    H134832   5.460   0.563   4.600  0.2090 -0.8375 -1.0349
 4447TIP3    H234833   5.504   0.589   4.458 -2.7310  1.5286 -1.6325
 4448TIP3   OH234834   3.999   0.652   0.680  0.0002 -0.1743 -0.2434
 4448TIP3    H134835   4.075   0.640   0.623  1.3121  1.2914  1.1180
 4448TIP3    H234836   3.931   0.597   0.640  1.5116 -0.9304 -1.9372
 4449TIP3   OH234837   1.599   5.625  16.795 -0.0041 -0.2883 -0.0583
 4449TIP3    H134838   1.570   5.585  16.877 -0.2431  1.6667  0.8785
 4449TIP3    H234839   1.615   5.552  16.736  1.2167 -1.8332  2.0666
 4450TIP3   OH234840   4.836   0.502   4.537  0.0939  0.1345  0.7002
 4450TIP3    H134841   4.783   0.578   4.516 -0.0160 -0.2183 -0.3527
 4450TIP3    H234842   4.800   0.431   4.483 -0.0689 -0.7676  1.9530
 4451TIP3   OH234843   2.674   1.212  13.047 -0.8564  0.1125 -0.8854
 4451TIP3    H134844   2.676   1.245  12.957  0.8475  1.0261 -0.5666
 4451TIP3    H234845   2.760   1.235  13.083 -1.8044  0.6103  1.2661
 4452TIP3   OH234846   2.008   4.894   1.760  0.2646 -0.4557  0.3090
 4452TIP3    H134847   1.934   4.842   1.728 -0.6676  0.5934  0.6992
 4452TIP3    H234848   1.967   4.972   1.799  1.6489  0.9106 -0.8841
 4453TIP3   OH234849   2.186   2.152  11.520 -0.7934  0.1616  0.1647
 4453TIP3    H134850   2.268   2.103  11.511 -0.6252  0.2901  0.8747
 4453TIP3    H234851   2.119   2.095  11.483 -0.3240  0.2448 -0.8358
 4454TIP3   OH234852   2.171   0.426  11.203  0.1562 -0.2168 -0.5994
 4454TIP3    H134853   2.095   0.368  11.207 -1.0666  1.2376 -1.4549
 4454TIP3    H234854   2.186   0.439  11.109  3.1034 -2.4398 -0.5735
 4455TIP3   OH234855   5.519   3.963   5.415  0.5383 -0.3062 -0.0447
 4455TIP3    H134856   5.584   3.897   5.392 -1.5128 -2.0859 -1.0586
 4455TIP3    H234857   5.499   3.946   5.507  3.6261  2.2864  1.3041
 4456TIP3   OH234858   5.037   4.223   1.744 -0.1660 -0.2698  0.2513
 4456TIP3    H134859   5.093   4.190   1.815  0.9773  1.0407  0.0099
 4456TIP3    H234860   4.964   4.266   1.790  0.4144  0.3150  0.6583
 4457TIP3   OH234861   0.584   2.526   3.662  0.1123  0.0008 -0.6303
 4457TIP3    H134862   0.629   2.449   3.628 -0.4832 -0.1837 -1.0159
 4457TIP3    H234863   0.492   2.499   3.668  0.1960  0.0033  1.1850
 4458TIP3   OH234864   1.756   5.844  13.505  0.6540  0.1614  0.1480
 4458TIP3    H134865   1.765   5.932  13.543  2.0248  0.0178  0.2157
 4458TIP3    H234866   1.753   5.860  13.410  0.4869  0.3154  0.1792
 4459TIP3   OH234867   5.504   4.417   4.062 -0.3528 -0.2691 -0.2117
 4459TIP3    H134868   5.598   4.415   4.043 -0.4196  0.7185 -0.7600
 4459TIP3    H234869   5.489   4.340   4.117  0.1607 -2.4597 -2.9128
 4460TIP3   OH234870   5.663   0.865  16.090 -0.1109  0.0608 -0.2234
 4460TIP3    H134871   5.740   0.813  16.111 -0.7530 -0.8341 -0.0595
 4460TIP3    H234872   5.636   0.903  16.173  0.4769  0.8522 -0.3767
 4461TIP3   OH234873   1.331   2.443  15.598 -0.5651  0.5422 -0.2303
 4461TIP3    H134874   1.270   2.380  15.558 -0.5798 -0.9391  1.9117
 4461TIP3    H234875   1.281   2.482  15.670  0.0670  1.6134 -0.3503
 4462TIP3   OH234876   2.916   1.099   2.251 -0.2260  0.3759  0.5604
 4462TIP3    H134877   2.960   1.035   2.195 -0.9108  0.9429 -0.6652
 4462TIP3    H234878   2.987   1.153   2.286  0.1918  0.1710  0.0372
 4463TIP3   OH234879   0.130   6.709  17.299  0.0232 -0.0016 -0.3735
 4463TIP3    H134880   0.187   6.786  17.301  1.7500 -1.1983  1.8960
 4463TIP3    H234881   0.064   6.727  17.366  0.7425 -0.6463  0.5403
 4464TIP3   OH234882   4.252   6.713   5.423  0.3527  0.5490  0.0597
 4464TIP3    H134883   4.272   6.783   5.361  1.6059  0.6762  0.5674
 4464TIP3    H234884   4.319   6.722   5.491  0.8140 -1.4091 -0.0849
 4465TIP3   OH234885   4.104   0.985   0.032 -0.8914  0.1597  0.3292
 4465TIP3    H134886   4.042   0.936  -0.021 -0.3859  0.6387 -0.7531
 4465TIP3    H234887   4.169   1.017  -0.031 -0.0562  0.4387  1.2987
 4466TIP3   OH234888   3.622   0.871   1.663  0.3763  0.3501  0.2357
 4466TIP3    H134889   3.690   0.893   1.599 -0.2005  0.8680 -0.2164
 4466TIP3    H234890   3.546   0.849   1.610  0.3385 -0.7722  0.7285
 4467TIP3   OH234891   0.333   4.146  17.254  0.7566 -0.1429 -0.3686
 4467TIP3    H134892   0.271   4.218  17.244  1.5683  0.6709  0.2754
 4467TIP3    H234893   0.412   4.175  17.208  0.8248 -0.9749 -0.8038
 4468TIP3   OH234894   1.938   5.234   5.358  0.3297  0.0728  0.3561
 4468TIP3    H134895   1.957   5.203   5.446  1.0363 -0.1056  0.1561
 4468TIP3    H234896   1.920   5.154   5.308 -1.9073  0.2902  0.7234
 4469TIP3   OH234897   4.991   4.880   1.840 -0.0765 -0.2056  0.2358
 4469TIP3    H134898   4.966   4.856   1.929  2.1436 -2.5403  0.3225
 4469TIP3    H234899   4.932   4.829   1.784 -0.8611  0.5676  0.3310
 4470TIP3   OH234900   5.059   1.437  11.715  0.1124 -0.4872 -0.3046
 4470TIP3    H134901   5.020   1.363  11.668  2.5842 -3.0738  1.3896
 4470TIP3    H234902   5.143   1.451  11.671  0.2066  0.5055  0.1832
 4471TIP3   OH234903   4.632   3.899   1.644  0.1069  0.3070  0.1807
 4471TIP3    H134904   4.633   3.887   1.739  0.6791  0.8803  0.2483
 4471TIP3    H234905   4.688   3.974   1.628  0.6438 -0.2543 -0.6847
 4472TIP3   OH234906   1.089   1.665   5.887  0.2392 -0.0193  0.0739
 4472TIP3    H134907   1.010   1.616   5.908 -2.2835  2.7407 -2.2090
 4472TIP3    H234908   1.085   1.743   5.943 -0.5540  1.7589 -2.2985
 4473TIP3   OH234909   1.932   1.989   5.469 -0.1033 -0.3251  0.2673
 4473TIP3    H134910   2.007   2.015   5.523  0.6583  1.3582 -1.4863
 4473TIP3    H234911   1.895   1.912   5.514  2.6888 -1.2498  1.1720
 4474TIP3   OH234912   1.889   1.980  15.987  0.0236  0.0131 -0.5843
 4474TIP3    H134913   1.873   1.967  16.080  0.7849  0.1951 -0.4148
 4474TIP3    H234914   1.937   2.063  15.983 -2.0268  1.2339 -1.3597
 4475TIP3   OH234915   1.461   3.707  15.493  0.6048 -0.1611  0.6928
 4475TIP3    H134916   1.386   3.700  15.434 -0.4474 -1.8893  2.0976
 4475TIP3    H234917   1.537   3.710  15.436 -0.4332 -0.4115 -0.7607
 4476TIP3   OH234918   1.032   1.884  14.026 -0.4368 -0.3363  0.2662
 4476TIP3    H134919   1.049   1.975  14.002 -1.5064  0.3916  2.0925
 4476TIP3    H234920   0.941   1.869  14.002 -1.1723  0.0415  2.5492
 4477TIP3   OH234921   1.117   5.756   0.007 -0.2021 -0.1111 -0.3587
 4477TIP3    H134922   1.028   5.775  -0.021 -0.1986  0.4187 -0.0266
 4477TIP3    H234923   1.173   5.803  -0.055 -0.1770  0.2744 -0.0528
 4478TIP3   OH234924   4.212   2.626   2.022  0.0911  0.1789  0.1894
 4478TIP3    H134925   4.201   2.533   2.003  1.4140  0.3162 -1.5778
 4478TIP3    H234926   4.148   2.670   1.966  0.1128  0.3681  0.3129
 4479TIP3   OH234927   4.417   5.274   1.136  0.3421 -0.1558  0.0026
 4479TIP3    H134928   4.463   5.340   1.085  1.3997 -1.4408 -0.7588
 4479TIP3    H234929   4.325   5.282   1.109 -0.1346  2.9052  2.0452
 4480TIP3   OH234930   2.584   2.317   1.213  0.1759  0.0777  0.1124
 4480TIP3    H134931   2.675   2.287   1.219  0.5894  1.1794 -0.4834
 4480TIP3    H234932   2.547   2.265   1.142  0.3412 -0.3527  0.3361
 4481TIP3   OH234933   0.644   3.751  13.106 -0.2560  0.1645  0.2072
 4481TIP3    H134934   0.629   3.831  13.156 -1.8018 -0.6643  1.1700
 4481TIP3    H234935   0.730   3.762  13.068  0.0103  1.8303  1.1876
 4482TIP3   OH234936   3.988   4.072   0.242  0.4160 -0.3896 -0.2072
 4482TIP3    H134937   3.947   4.030   0.317 -4.0290  0.3171 -1.8652
 4482TIP3    H234938   3.942   4.156   0.234  0.0968 -0.7358 -3.9856
 4483TIP3   OH234939   6.246   3.305   3.811  0.4300  0.2381 -0.2411
 4483TIP3    H134940   6.242   3.336   3.902 -1.0703  0.5667 -0.3944
 4483TIP3    H234941   6.339   3.309   3.788  0.9881 -0.8163  1.6027
 4484TIP3   OH234942   3.310   2.320  10.967 -0.1535  0.3934  0.0562
 4484TIP3    H134943   3.280   2.388  10.907 -0.6536  1.0556  1.0342
 4484TIP3    H234944   3.243   2.252  10.961 -0.2099  0.4611 -0.1139
 4485TIP3   OH234945   5.985   3.510  12.744  0.1879 -0.2070  0.0135
 4485TIP3    H134946   5.941   3.505  12.828  0.0232 -1.6203 -0.1226
 4485TIP3    H234947   6.070   3.468  12.759  0.2248 -0.3183 -0.4737
 4486TIP3   OH234948   3.580   5.489  12.827  0.4592 -0.3400  0.3499
 4486TIP3    H134949   3.539   5.572  12.802  2.2620  0.7812  0.9656
 4486TIP3    H234950   3.515   5.423  12.803 -0.7073  1.1671 -0.9050
 4487TIP3   OH234951   1.540   4.663  15.634 -0.0911  0.7936  0.9718
 4487TIP3    H134952   1.588   4.588  15.670  0.0676  0.7534  0.6757
 4487TIP3    H234953   1.593   4.739  15.656  2.0219  0.5029 -2.3920
 4488TIP3   OH234954   0.998   1.133  16.558  0.1586  0.1900 -0.5032
 4488TIP3    H134955   0.954   1.114  16.475 -0.6600  0.1199 -0.0610
 4488TIP3    H234956   0.964   1.067  16.619  0.6398  0.3337 -0.0740
 4489TIP3   OH234957   0.370   4.673   5.646  0.6781  0.4673  0.2125
 4489TIP3    H134958   0.396   4.760   5.675 -1.2641  1.1437  0.0751
 4489TIP3    H234959   0.382   4.674   5.552 -1.2814  1.3676 -0.0797
 4490TIP3   OH234960   5.657   4.374  14.177  0.1182 -0.7452  0.5884
 4490TIP3    H134961   5.614   4.391  14.261  1.0255  2.7603  0.5117
 4490TIP3    H234962   5.750   4.372  14.197  0.2925 -0.9339 -0.1999
 4491TIP3   OH234963   3.611   5.142  12.542  0.2354  0.5212 -0.0233
 4491TIP3    H134964   3.658   5.207  12.490 -1.0498 -0.3710 -2.4753
 4491TIP3    H234965   3.558   5.193  12.602  1.6619  1.6146  0.3614
 4492TIP3   OH234966   1.324   1.653  15.293 -0.6819  0.2464 -0.2706
 4492TIP3    H134967   1.349   1.742  15.266 -0.2985 -0.0692 -0.9831
 4492TIP3    H234968   1.374   1.596  15.236  0.1149 -0.4618  1.0958
 4493TIP3   OH234969   2.171   5.590  15.633 -0.1925 -0.1768 -0.5543
 4493TIP3    H134970   2.132   5.643  15.563  0.1268 -0.2222 -0.7669
 4493TIP3    H234971   2.146   5.635  15.714 -0.6782 -0.1974 -0.6880
 4494TIP3   OH234972   2.823   0.539   3.707  0.1466 -0.3898 -0.3484
 4494TIP3    H134973   2.844   0.601   3.637  0.2995 -1.1577 -0.9862
 4494TIP3    H234974   2.887   0.558   3.775  0.2498  0.0954 -0.5739
 4495TIP3   OH234975   2.730   3.195  11.271 -0.0906  0.4084  0.1612
 4495TIP3    H134976   2.738   3.100  11.282 -1.1553  0.3360  0.3763
 4495TIP3    H234977   2.648   3.217  11.314  0.0144  1.3965 -0.1327
 4496TIP3   OH234978   2.039   1.338   5.659 -0.5686 -0.5277  0.2470
 4496TIP3    H134979   2.091   1.312   5.734 -1.5743 -0.1081  1.1159
 4496TIP3    H234980   2.015   1.256   5.617 -1.1232 -0.8511  1.1699
 4497TIP3   OH234981   3.669   6.638   4.568 -0.2348  0.2044  0.4855
 4497TIP3    H134982   3.750   6.587   4.578 -1.3478 -1.6966  0.2382
 4497TIP3    H234983   3.667   6.694   4.646  0.5654 -0.8177  1.2744
 4498TIP3   OH234984   3.806   3.965   6.355 -0.3326  0.9360 -0.2001
 4498TIP3    H134985   3.734   3.930   6.302  0.3816 -0.6273 -0.1816
 4498TIP3    H234986   3.871   3.994   6.291  0.0078  0.1753 -0.2100
 4499TIP3   OH234987   3.411   4.728   5.963 -0.2659 -0.3791 -0.0894
 4499TIP3    H134988   3.419   4.702   5.872 -0.6637  1.0138 -0.5464
 4499TIP3    H234989   3.417   4.824   5.962 -2.3928 -0.1588  1.0838
 4500TIP3   OH234990   2.540   2.038   3.423  0.4523 -0.0737 -0.0526
 4500TIP3    H134991   2.494   1.957   3.402  0.2085  0.1515 -0.4033
 4500TIP3    H234992   2.530   2.048   3.518  1.6841 -1.1818  0.2221
 4501TIP3   OH234993   5.818   2.085   0.311 -0.0581  0.9288  0.4360
 4501TIP3    H134994   5.864   2.153   0.263 -0.1453  1.0163  0.4753
 4501TIP3    H234995   5.726   2.095   0.286  0.1576 -0.3791 -1.0243
 4502TIP3   OH234996   4.704   0.985   3.666 -0.1683  0.2314  0.3253
 4502TIP3    H134997   4.633   1.021   3.720 -1.4938 -2.2256  0.3387
 4502TIP3    H234998   4.761   0.941   3.729  0.0811  0.1658  0.0529
 4503TIP3   OH234999   5.550   1.103  14.787 -0.0688  0.1123 -0.1315
 4503TIP3    H135000   5.524   1.153  14.709 -2.2064 -1.6762 -0.6579
 4503TIP3    H235001   5.474   1.047  14.806  1.5223 -1.6171  1.5031
 4504TIP3   OH235002   2.356   3.683  13.497  0.1520 -0.5150  0.7102
 4504TIP3    H135003   2.343   3.768  13.539 -0.4729 -1.2559  2.0759
 4504TIP3    H235004   2.273   3.637  13.509  0.3117 -1.1396 -0.4580
 4505TIP3   OH235005   0.362   3.951   1.156 -0.0536  0.0983 -0.5313
 4505TIP3    H135006   0.330   3.884   1.095 -1.5129  2.2083 -2.2267
 4505TIP3    H235007   0.454   3.929   1.169 -0.4719 -2.2427 -0.9197
 4506TIP3   OH235008   5.835   1.414  15.584 -0.2880 -0.1880  0.2891
 4506TIP3    H135009   5.785   1.426  15.503  0.2012  1.0973  0.1520
 4506TIP3    H235010   5.828   1.320  15.603 -0.7240 -0.4482 -1.0405
 4507TIP3   OH235011   4.150   0.698   3.712  0.1640  0.0558 -0.3938
 4507TIP3    H135012   4.217   0.753   3.673  0.2960  0.7796  0.8246
 4507TIP3    H235013   4.072   0.753   3.714 -0.5394 -0.7933 -1.8508
 4508TIP3   OH235014   3.845   2.971  11.723  0.0269 -0.5407 -0.5105
 4508TIP3    H135015   3.897   2.960  11.803  0.9195 -0.6232 -1.0910
 4508TIP3    H235016   3.803   3.056  11.734 -0.9164 -1.1300  0.6316
 4509TIP3   OH235017   4.490   2.477   6.501 -0.0152 -0.4110 -0.2169
 4509TIP3    H135018   4.562   2.434   6.454 -1.7942 -2.6973 -0.9918
 4509TIP3    H235019   4.494   2.440   6.590  0.8615  0.8836  0.3156
 4510TIP3   OH235020   1.915   6.024   2.780 -0.3027  0.1648  0.3941
 4510TIP3    H135021   1.830   5.979   2.774 -0.4043  0.4996 -1.0822
 4510TIP3    H235022   1.945   6.006   2.869 -2.1845  0.5189  1.1531
 4511TIP3   OH235023   4.586   3.053  12.664  0.4508  0.6179 -0.2997
 4511TIP3    H135024   4.635   2.971  12.667 -0.2680  0.1502 -0.9092
 4511TIP3    H235025   4.650   3.120  12.688  0.5253 -0.3309  2.4254
 4512TIP3   OH235026   6.014   1.654  12.336  0.0335 -0.1387 -0.6973
 4512TIP3    H135027   5.946   1.634  12.401 -0.7985  0.7335 -1.2643
 4512TIP3    H235028   5.972   1.636  12.252  0.9092 -0.6978 -1.0324
 4513TIP3   OH235029   6.058   1.149  11.427 -0.1613  0.0796 -0.4307
 4513TIP3    H135030   6.150   1.174  11.415 -0.1685  0.5196  0.3580
 4513TIP3    H235031   6.057   1.100  11.509 -0.8123  1.1714  0.2437
 4514TIP3   OH235032   2.417   3.251  17.328 -0.5530  0.2002 -0.0313
 4514TIP3    H135033   2.340   3.201  17.353 -0.7387  0.6649  0.3367
 4514TIP3    H235034   2.457   3.201  17.257 -0.1312 -1.0432  1.0440
 4515TIP3   OH235035   0.178   3.312   2.218  0.2594  0.0185  0.4184
 4515TIP3    H135036   0.141   3.225   2.200  0.6910 -0.0289 -0.2443
 4515TIP3    H235037   0.207   3.306   2.309 -0.5254 -0.2378  0.6659
 4516TIP3   OH235038   4.868   1.983  17.016 -0.3730  0.7322 -0.2989
 4516TIP3    H135039   4.901   2.010  17.102 -1.1239  0.1303  0.1985
 4516TIP3    H235040   4.790   2.036  17.003 -0.0231  1.1277 -0.8129
 4517TIP3   OH235041   1.936   4.120   1.911  0.0129  0.2230 -0.7153
 4517TIP3    H135042   1.912   4.204   1.872  1.8175  1.3378  0.4038
 4517TIP3    H235043   1.891   4.119   1.995 -0.8452 -0.4361 -1.1714
 4518TIP3   OH235044   2.912   4.119   2.177  0.0317  0.2025  0.0596
 4518TIP3    H135045   2.955   4.033   2.174 -0.8616 -0.2147 -1.6903
 4518TIP3    H235046   2.964   4.174   2.119 -1.6169 -0.2605 -1.9447
 4519TIP3   OH235047   0.187   1.065   2.211 -0.0721  0.9002  0.2345
 4519TIP3    H135048   0.217   1.082   2.122 -4.7830  1.6456 -1.4769
 4519TIP3    H235049   0.192   0.969   2.220  0.7266  0.8392 -0.6641
 4520TIP3   OH235050   6.576   4.396   3.108  0.5605 -0.3838 -0.1092
 4520TIP3    H135051   6.560   4.362   3.195 -2.3612 -1.2883 -0.8916
 4520TIP3    H235052   6.597   4.319   3.055  0.7018 -0.0569 -0.5418
 4521TIP3   OH235053   4.770   4.155  14.284 -0.1588 -0.3205  0.1393
 4521TIP3    H135054   4.798   4.225  14.225  1.5221 -0.2079  1.0029
 4521TIP3    H235055   4.703   4.196  14.339  1.6168  1.0596  1.4247
 4522TIP3   OH235056   1.114   3.321   3.816 -0.1524  0.7524 -0.6031
 4522TIP3    H135057   1.073   3.407   3.804 -1.4173  0.4712  1.2260
 4522TIP3    H235058   1.194   3.325   3.763  0.5142  3.5444  0.4040
 4523TIP3   OH235059   3.997   4.436  16.740  0.3742  0.3803  0.6016
 4523TIP3    H135060   4.067   4.426  16.676  0.1933 -0.2289  0.4920
 4523TIP3    H235061   4.028   4.387  16.817  0.9008  1.6851  1.2416
 4524TIP3   OH235062   6.610   1.482   5.371 -0.5529  0.1422  0.1316
 4524TIP3    H135063   6.658   1.556   5.409 -0.5796  0.5880 -0.6695
 4524TIP3    H235064   6.523   1.488   5.408 -0.7261  0.8727 -0.3598
 4525TIP3   OH235065   5.972   0.515  11.584 -0.1048 -0.2959  0.2848
 4525TIP3    H135066   5.931   0.601  11.589 -2.2499 -1.3371  2.1301
 4525TIP3    H235067   5.975   0.495  11.490  0.3581  1.7045 -0.1659
 4526TIP3   OH235068   4.502   1.558  14.059 -0.1943  0.0709  0.2136
 4526TIP3    H135069   4.547   1.516  13.986 -1.7800  0.2092 -0.9079
 4526TIP3    H235070   4.424   1.504  14.073 -1.3266  1.5589 -0.0461
 4527TIP3   OH235071   6.324   4.561   6.180 -0.4225  0.0331  0.1729
 4527TIP3    H135072   6.328   4.556   6.276 -0.5958 -0.2787  0.1649
 4527TIP3    H235073   6.297   4.651   6.162 -1.0373 -0.0921  0.4382
 4528TIP3   OH235074   6.280   0.010   1.646  0.0717  0.0901  0.1816
 4528TIP3    H135075   6.290  -0.043   1.567 -1.2559  0.7516 -0.4626
 4528TIP3    H235076   6.197   0.056   1.634  0.5404  1.3050  1.3207
 4529TIP3   OH235077   4.530   1.841   3.457 -0.4114  0.0843  0.3968
 4529TIP3    H135078   4.472   1.796   3.396  0.0163 -1.1590  0.8578
 4529TIP3    H235079   4.608   1.785   3.461 -0.2145  0.4102  1.6621
 4530TIP3   OH235080   5.378   0.193   5.279  0.4802  0.5435  0.5347
 4530TIP3    H135081   5.331   0.150   5.350  0.4996  1.8745  1.4084
 4530TIP3    H235082   5.374   0.286   5.301  2.6022  0.8027  0.0953
 4531TIP3   OH235083   3.917   2.408  10.906 -0.3670 -0.1454 -0.1039
 4531TIP3    H135084   4.008   2.438  10.911 -0.1128 -1.0392  2.3118
 4531TIP3    H235085   3.866   2.479  10.943 -0.2153 -0.9330  1.7407
 4532TIP3   OH235086   4.383   4.532   5.541  0.5060 -0.6734  0.1298
 4532TIP3    H135087   4.475   4.514   5.561  0.0787 -1.1707  1.8281
 4532TIP3    H235088   4.335   4.485   5.609 -1.0122 -0.4881 -0.7930
 4533TIP3   OH235089   4.180   1.873  14.519 -0.0694  0.5168 -0.1212
 4533TIP3    H135090   4.136   1.937  14.574  0.6153  0.4624  0.4973
 4533TIP3    H235091   4.110   1.812  14.493 -1.1806  2.6308 -2.4534
 4534TIP3   OH235092   2.216   5.958  11.634 -0.4517 -0.0227  0.1871
 4534TIP3    H135093   2.187   5.875  11.672 -0.8017 -0.9925 -1.9921
 4534TIP3    H235094   2.305   5.940  11.602  0.3272  1.1379  1.6013
 4535TIP3   OH235095   6.004   2.450  15.972  0.0635  0.4178  0.0275
 4535TIP3    H135096   6.093   2.437  15.940  0.0880 -0.2769  0.3517
 4535TIP3    H235097   5.950   2.393  15.917 -0.0149 -0.0883  0.6211
 4536TIP3   OH235098   3.532   2.972  15.973  0.3254 -0.1157  0.4585
 4536TIP3    H135099   3.508   3.064  15.975  0.5167 -0.0322 -0.4605
 4536TIP3    H235100   3.529   2.944  16.064  0.9519  0.9742  0.8289
 4537TIP3   OH235101   4.452   2.046  13.327  1.0500 -0.1157  0.6105
 4537TIP3    H135102   4.383   2.108  13.352 -1.3514 -2.2976 -0.2020
 4537TIP3    H235103   4.428   1.964  13.371  1.1330 -1.8763 -2.3693
 4538TIP3   OH235104   1.387   6.414  15.304  0.4110  0.4987 -0.0437
 4538TIP3    H135105   1.407   6.503  15.277  3.7577 -0.1685 -0.0998
 4538TIP3    H235106   1.420   6.407  15.394 -0.7797 -0.4301  0.3683
 4539TIP3   OH235107   1.048   5.573   4.428  0.3301  0.5023  0.0372
 4539TIP3    H135108   1.113   5.626   4.474 -0.2399  0.4294  0.9389
 4539TIP3    H235109   0.972   5.572   4.486 -0.3206  0.2078 -0.7980
 4540TIP3   OH235110   0.440   5.177  13.593 -0.0478 -0.5808  0.3531
 4540TIP3    H135111   0.472   5.088  13.577  1.2888 -0.3331  1.4114
 4540TIP3    H235112   0.360   5.165  13.644 -0.0315 -1.1798  0.2409
 4541TIP3   OH235113   0.656   5.886   4.868  0.5876 -0.2975  0.4227
 4541TIP3    H135114   0.700   5.935   4.937  2.3125  0.2029 -0.9327
 4541TIP3    H235115   0.664   5.943   4.790 -0.6734 -1.1239 -0.3399
 4542TIP3   OH235116   4.428   4.454   4.697 -0.0344  0.3697  0.4164
 4542TIP3    H135117   4.437   4.361   4.718 -0.8606  0.3778  0.8583
 4542TIP3    H235118   4.500   4.472   4.637 -1.0767 -1.0565 -1.3723
 4543TIP3   OH235119   1.696   3.776   5.814  0.1776  0.3133  0.3626
 4543TIP3    H135120   1.615   3.822   5.793 -0.3065 -1.2584 -1.5083
 4543TIP3    H235121   1.692   3.763   5.909 -1.3319  1.0329  0.4277
 4544TIP3   OH235122   6.747   4.208  11.377 -0.3250  0.0240  0.9862
 4544TIP3    H135123   6.701   4.282  11.417  1.6701  1.6551  0.4720
 4544TIP3    H235124   6.737   4.223  11.282  0.1582 -0.3082  0.8806
 4545TIP3   OH235125   6.001   4.414  15.957  0.0331  0.3286 -0.0005
 4545TIP3    H135126   5.953   4.390  15.878  1.1070 -0.5654 -0.4089
 4545TIP3    H235127   6.028   4.330  15.995  1.8079  0.8108 -0.1374
 4546TIP3   OH235128   4.858   1.799   6.224 -0.0034 -0.8606  0.0659
 4546TIP3    H135129   4.845   1.788   6.319 -2.4318  0.9427  0.0543
 4546TIP3    H235130   4.813   1.725   6.185 -0.9127 -0.4594  0.3164
 4547TIP3   OH235131   4.587   5.056   1.483 -0.3421 -0.0175 -0.1032
 4547TIP3    H135132   4.496   5.031   1.469  0.2930 -1.4990 -2.0332
 4547TIP3    H235133   4.618   5.084   1.397  1.9812 -3.0188 -0.4098
 4548TIP3   OH235134   5.132   3.581   0.844 -0.3062 -0.2414 -0.1131
 4548TIP3    H135135   5.143   3.612   0.933  2.9066 -0.6537 -0.2466
 4548TIP3    H235136   5.098   3.492   0.853 -0.4405 -0.1122  0.6753
 4549TIP3   OH235137   5.000   2.753  13.246  0.3036 -0.5965  0.3576
 4549TIP3    H135138   4.929   2.768  13.184  0.1825  2.8629  1.1021
 4549TIP3    H235139   5.076   2.794  13.206  1.2869 -2.0066  0.7137
 4550TIP3   OH235140   5.385   2.586  16.389 -0.4827 -0.2119  0.0760
 4550TIP3    H135141   5.410   2.672  16.357 -0.8684 -0.0009  0.3418
 4550TIP3    H235142   5.303   2.600  16.437 -0.2853 -0.6398  0.5473
 4551TIP3   OH235143   0.342   5.371   5.631  0.0485  0.2070  0.2543
 4551TIP3    H135144   0.364   5.457   5.668  1.3566  1.1688 -2.4620
 4551TIP3    H235145   0.260   5.386   5.584  0.3854  0.0691 -0.3959
 4552TIP3   OH235146   5.294   0.783   0.058  0.1603 -0.5913  0.7354
 4552TIP3    H135147   5.258   0.791  -0.031 -0.7291  0.5878  1.1905
 4552TIP3    H235148   5.329   0.869   0.078 -0.1550 -0.6919  1.7552
 4553TIP3   OH235149   3.396   3.381  15.583 -0.2401 -0.5937  0.1591
 4553TIP3    H135150   3.488   3.376  15.558 -0.3963 -0.8276 -0.3867
 4553TIP3    H235151   3.359   3.448  15.525 -0.1149  0.5164  1.3308
 4554TIP3   OH235152   2.932   6.499  16.482  0.0697  0.6416 -0.7979
 4554TIP3    H135153   2.882   6.418  16.491  1.2206  0.0438  0.5937
 4554TIP3    H235154   2.894   6.542  16.405 -2.2231 -0.0058 -0.1016
 4555TIP3   OH235155   4.530   1.649  12.722  0.4129 -0.0898  0.1656
 4555TIP3    H135156   4.541   1.732  12.677 -0.6541  1.1044  1.9820
 4555TIP3    H235157   4.501   1.588  12.654  0.5401  1.1768 -1.0552
 4556TIP3   OH235158   6.581   4.988   1.689  0.0481 -0.2382 -0.3141
 4556TIP3    H135159   6.492   5.003   1.721 -0.4436  0.0457 -1.7041
 4556TIP3    H235160   6.613   5.075   1.667 -0.2296 -0.5164 -1.9816
 4557TIP3   OH235161   2.956   2.858  16.695 -0.8708  0.4004  0.0134
 4557TIP3    H135162   2.997   2.789  16.747 -0.0168  0.2245 -0.8726
 4557TIP3    H235163   2.960   2.827  16.605 -1.3051  1.2016 -0.3007
 4558TIP3   OH235164   0.759   0.498   3.377 -0.1418 -0.5102  0.0372
 4558TIP3    H135165   0.668   0.477   3.357  0.5022 -1.4558 -2.2448
 4558TIP3    H235166   0.805   0.415   3.367  1.2711  0.3521 -0.9289
 4559TIP3   OH235167   4.122   5.579   0.104 -0.0888 -0.1464  0.4187
 4559TIP3    H135168   4.156   5.490   0.097 -0.4143 -0.2086 -0.4685
 4559TIP3    H235169   4.078   5.595   0.021 -0.6553  0.5876  0.8412
 4560TIP3   OH235170   1.329   5.925  14.443 -0.1517 -0.0409  0.5554
 4560TIP3    H135171   1.400   5.870  14.410 -0.2657  0.4502 -0.5598
 4560TIP3    H235172   1.249   5.874  14.427 -0.1018 -0.3761  1.3387
 4561TIP3   OH235173   3.787   5.149  11.886 -0.0419 -0.3177 -0.2020
 4561TIP3    H135174   3.724   5.078  11.901  1.0913 -1.7625 -1.7936
 4561TIP3    H235175   3.864   5.123  11.936 -0.3095  0.9074  0.8942
 4562TIP3   OH235176   3.070   6.361   5.790  0.4211  0.2306  0.3305
 4562TIP3    H135177   3.143   6.303   5.770 -0.2832 -0.2393 -1.0492
 4562TIP3    H235178   3.004   6.304   5.829  0.6989  0.6153  1.3899
 4563TIP3   OH235179   5.947   5.504  14.003 -0.5096  0.1378  0.6275
 4563TIP3    H135180   6.019   5.462  13.956 -0.4215  0.1820  0.7222
 4563TIP3    H235181   5.883   5.525  13.935  1.3606  4.0482 -0.2320
 4564TIP3   OH235182   2.902   4.603   5.312  0.1787 -0.1691  0.3582
 4564TIP3    H135183   2.965   4.628   5.380  1.9891  3.1406 -2.2316
 4564TIP3    H235184   2.935   4.519   5.280  0.2575 -0.9542  2.3264
 4565TIP3   OH235185   4.257   1.550  17.301  0.1127 -0.1030  0.5460
 4565TIP3    H135186   4.250   1.635  17.344  0.4208  0.1212  0.1641
 4565TIP3    H235187   4.281   1.490  17.371 -0.5896  0.0295  0.9151
 4566TIP3   OH235188   3.821   3.260  14.337  0.5873 -0.5758  0.4985
 4566TIP3    H135189   3.867   3.206  14.402  0.3032  0.5446  1.6631
 4566TIP3    H235190   3.728   3.247  14.357  0.3866 -1.8266 -1.0293
 4567TIP3   OH235191   1.683   4.041  12.961 -0.4647  0.4923 -0.2299
 4567TIP3    H135192   1.654   4.076  13.045 -1.0106  0.1496 -0.2670
 4567TIP3    H235193   1.628   3.963  12.948 -1.0228  1.0492 -1.3239
 4568TIP3   OH235194   6.031   5.126   2.573 -0.7596 -0.0515 -0.4992
 4568TIP3    H135195   6.085   5.069   2.518  1.5944  0.8170  0.7354
 4568TIP3    H235196   6.023   5.207   2.523 -1.5039 -0.4064 -0.9643
 4569TIP3   OH235197   3.015   5.086  17.486  0.4424  0.5798  0.2554
 4569TIP3    H135198   3.101   5.116  17.515 -0.2637  1.6118  1.3627
 4569TIP3    H235199   2.954   5.123  17.549 -0.9732  1.1024 -1.3355
 4570TIP3   OH235200   4.653   2.432  16.458 -0.2854  0.0346 -0.3657
 4570TIP3    H135201   4.727   2.398  16.508 -1.9121 -0.5447  1.7915
 4570TIP3    H235202   4.633   2.516  16.500 -0.3332  0.6094 -1.4992
 4571TIP3   OH235203   2.673   0.560  12.831  0.1044  0.1458 -0.2770
 4571TIP3    H135204   2.689   0.639  12.884 -1.0081  0.3598 -0.2366
 4571TIP3    H235205   2.590   0.578  12.786  0.4283 -0.5324 -1.1641
 4572TIP3   OH235206   4.491   1.748   4.965  0.2654  0.0009 -0.5671
 4572TIP3    H135207   4.535   1.665   4.951 -1.0333 -0.7090 -0.5855
 4572TIP3    H235208   4.532   1.784   5.044  3.0509  0.9147 -2.2733
 4573TIP3   OH235209   5.109   5.188   0.127 -0.4642 -0.2473 -0.3496
 4573TIP3    H135210   5.028   5.138   0.116 -1.3693  0.6005  1.9794
 4573TIP3    H235211   5.115   5.240   0.047 -2.5186  0.0650 -0.3644
 4574TIP3   OH235212   5.542   6.208  15.259 -0.5762 -0.2460  0.4283
 4574TIP3    H135213   5.536   6.249  15.173  0.7767 -0.0165  0.4190
 4574TIP3    H235214   5.470   6.246  15.309  0.1328  1.5307  0.1740
 4575TIP3   OH235215   1.313   3.810   5.761  0.2099 -0.0071 -0.2468
 4575TIP3    H135216   1.334   3.731   5.712 -0.7044 -0.2973 -0.1865
 4575TIP3    H235217   1.244   3.853   5.710  0.7448  0.7985 -0.3205
 4576TIP3   OH235218   0.892   5.616   4.729 -0.8661  0.3312  0.0446
 4576TIP3    H135219   0.798   5.632   4.735 -0.6013  2.3148 -0.4975
 4576TIP3    H235220   0.899   5.523   4.707 -2.7525  0.5179 -1.5856
 4577TIP3   OH235221   4.799   5.892  12.581 -0.1034 -0.0848 -0.5467
 4577TIP3    H135222   4.743   5.870  12.655  0.2861 -1.0436 -0.5262
 4577TIP3    H235223   4.885   5.860  12.606  0.0241 -0.4500 -1.4251
 4578TIP3   OH235224   6.389   3.725   1.165  0.2345  0.6043 -0.1531
 4578TIP3    H135225   6.433   3.719   1.250 -0.0512  0.3170 -0.0218
 4578TIP3    H235226   6.447   3.679   1.104 -1.3288 -2.6784  0.5964
 4579TIP3   OH235227   5.977   2.216   1.465 -0.1992  0.0994 -0.0619
 4579TIP3    H135228   5.896   2.266   1.466 -0.8030 -0.8369 -0.5060
 4579TIP3    H235229   6.013   2.227   1.553  0.3760  2.3640 -0.5165
 4580TIP3   OH235230   2.274   2.237   6.056 -0.5663  0.3908 -0.0024
 4580TIP3    H135231   2.317   2.154   6.034  0.5245  0.7596  0.6326
 4580TIP3    H235232   2.286   2.292   5.979 -1.0917  0.0285 -0.3404
 4581TIP3   OH235233   5.659   0.180  11.822 -0.5286  0.0018  0.3714
 4581TIP3    H135234   5.568   0.195  11.794 -0.2201 -0.3279 -0.8885
 4581TIP3    H235235   5.678   0.091  11.791  0.8570  0.8021 -1.1759
 4582TIP3   OH235236   6.526   2.670   3.418  0.1571 -0.0855  0.2301
 4582TIP3    H135237   6.445   2.678   3.367  0.5341 -0.4310 -0.4181
 4582TIP3    H235238   6.593   2.712   3.365  0.6743 -0.9789  0.1566
 4583TIP3   OH235239   5.740   3.699   1.136 -0.0857 -0.2171 -1.0111
 4583TIP3    H135240   5.685   3.777   1.129 -0.5018 -0.3661  0.3667
 4583TIP3    H235241   5.825   3.726   1.102 -0.2688  0.8042 -0.6847
 4584TIP3   OH235242   5.051   3.498   2.751 -0.6160 -0.2830  0.7495
 4584TIP3    H135243   5.061   3.515   2.657 -0.0724  1.2448  1.0473
 4584TIP3    H235244   4.987   3.563   2.780  0.4626  0.3926  1.7194
 4585TIP3   OH235245   0.094   0.813   0.500  0.2102  0.7253  0.4695
 4585TIP3    H135246   0.164   0.752   0.473 -0.3986  0.4011 -0.4405
 4585TIP3    H235247   0.139   0.879   0.552  1.2159  0.5316 -0.1137
 4586TIP3   OH235248   1.824   2.469  15.439 -0.3892  0.2693 -0.8050
 4586TIP3    H135249   1.833   2.548  15.492  2.1656  0.5426 -1.5365
 4586TIP3    H235250   1.755   2.419  15.483 -0.4208  1.8280  1.0434
 4587TIP3   OH235251   3.898   1.443  15.903  0.1165 -0.2221 -0.5085
 4587TIP3    H135252   3.816   1.489  15.923  0.3285 -1.3985  4.2643
 4587TIP3    H235253   3.870   1.354  15.881  0.0551 -0.2133 -0.4669
 4588TIP3   OH235254   1.513   4.245  11.765 -0.0776  0.1691  0.2953
 4588TIP3    H135255   1.470   4.325  11.736 -0.6472 -0.1754  0.1628
 4588TIP3    H235256   1.586   4.233  11.704 -0.0361  0.5432  0.2723
 4589TIP3   OH235257   1.019   0.867   3.302  0.6048 -0.1053 -0.1419
 4589TIP3    H135258   1.013   0.860   3.207 -0.4794 -0.8280 -0.0305
 4589TIP3    H235259   1.113   0.857   3.321  0.6590 -1.5189 -1.0194
 4590TIP3   OH235260   5.675   4.451  12.874  0.3332  0.5188  0.0219
 4590TIP3    H135261   5.647   4.496  12.794 -0.9262  0.7181  0.5563
 4590TIP3    H235262   5.740   4.509  12.913  1.5585  0.0505 -1.2418
 4591TIP3   OH235263   5.870   3.237   0.968 -0.3629 -0.1162 -0.0220
 4591TIP3    H135264   5.870   3.314   1.025  1.9323  0.3308 -0.5485
 4591TIP3    H235265   5.839   3.270   0.883 -0.5189 -0.0405  0.0635
 4592TIP3   OH235266   1.854   5.944   4.497 -0.1184 -0.6043 -0.0110
 4592TIP3    H135267   1.787   5.882   4.528 -0.1301 -0.2304  0.7298
 4592TIP3    H235268   1.931   5.923   4.550 -0.1040 -0.0370  0.1981
 4593TIP3   OH235269   2.034   5.586   3.793 -0.3963 -0.3000  0.4168
 4593TIP3    H135270   2.012   5.518   3.729  3.1256 -2.3286  1.1186
 4593TIP3    H235271   2.098   5.641   3.749 -2.0843  1.7939  0.4033
 4594TIP3   OH235272   0.399   0.653  13.996  0.2614  0.1394  0.2559
 4594TIP3    H135273   0.469   0.609  13.948 -0.6012 -0.4325 -0.4978
 4594TIP3    H235274   0.355   0.584  14.044 -0.1565  0.4056  0.2615
 4595TIP3   OH235275   1.330   4.167   2.655  0.4503  0.4458  0.2002
 4595TIP3    H135276   1.410   4.128   2.692 -0.1067 -2.3327 -1.2542
 4595TIP3    H235277   1.277   4.188   2.732  1.2249 -0.7961  1.1242
 4596TIP3   OH235278   5.034   1.358  11.313  0.3621 -0.3575  0.2741
 4596TIP3    H135279   5.000   1.343  11.225 -0.1846  1.0627  0.2174
 4596TIP3    H235280   5.128   1.370  11.301  0.2000  0.4966 -0.2261
 4597TIP3   OH235281   4.676   2.513  11.910  0.0556  0.4644  0.3576
 4597TIP3    H135282   4.591   2.555  11.926  0.1656  0.4314  1.0997
 4597TIP3    H235283   4.729   2.539  11.986  1.3950  2.1839 -1.0840
 4598TIP3   OH235284   0.546   1.699  12.728 -0.2486 -0.4993 -0.3618
 4598TIP3    H135285   0.618   1.664  12.781  0.5914  0.2277 -0.9837
 4598TIP3    H235286   0.485   1.736  12.792 -0.0586 -1.0891  0.1743
 4599TIP3   OH235287   1.147   4.240   4.089 -0.5969 -0.4086 -0.3245
 4599TIP3    H135288   1.135   4.291   4.009  1.4775  1.1023  0.2300
 4599TIP3    H235289   1.140   4.304   4.159  0.9916 -1.0661  0.4715
 4600TIP3   OH235290   4.263   2.168   5.327  0.2233  0.0345  0.3137
 4600TIP3    H135291   4.234   2.077   5.324  1.7786 -0.5178  0.8681
 4600TIP3    H235292   4.314   2.179   5.247  0.9216  0.0774  0.7533
 4601TIP3   OH235293   3.504   3.966   2.007 -0.1483  0.5586 -0.6474
 4601TIP3    H135294   3.580   3.911   1.989  1.0421  1.5810  0.9523
 4601TIP3    H235295   3.526   4.011   2.089 -3.0291 -0.0697  0.6158
 4602TIP3   OH235296   6.209   4.639  11.137 -0.4566 -0.5350 -0.4030
 4602TIP3    H135297   6.170   4.708  11.084 -0.5057 -0.2988 -0.0618
 4602TIP3    H235298   6.145   4.568  11.135 -1.5153  0.3099  1.1773
 4603TIP3   OH235299   1.128   3.954   5.382  0.5386  0.1537  0.5474
 4603TIP3    H135300   1.115   3.895   5.457 -0.6714 -1.6525 -1.0029
 4603TIP3    H235301   1.171   3.900   5.316 -1.0570  0.8429 -1.1229
 4604TIP3   OH235302   1.681   1.072   5.666 -0.1598  0.8621 -0.5545
 4604TIP3    H135303   1.600   1.089   5.618  0.2667  2.2830 -0.8123
 4604TIP3    H235304   1.739   1.032   5.602 -0.4671  0.3107 -0.5010
 4605TIP3   OH235305   5.171   2.026  12.842  0.3219 -0.2551 -0.3373
 4605TIP3    H135306   5.163   2.115  12.808  1.5885  0.6626  1.5545
 4605TIP3    H235307   5.240   1.986  12.789  1.6423  0.8369  0.4969
 4606TIP3   OH235308   6.505   2.838   1.198  0.7111 -0.8291 -0.0713
 4606TIP3    H135309   6.416   2.818   1.225  1.4766 -2.1660  1.5874
 4606TIP3    H235310   6.523   2.924   1.236  0.9031 -1.5891  1.6384
 4607TIP3   OH235311   5.874   0.384  12.913 -0.5161  0.4644 -0.6352
 4607TIP3    H135312   5.897   0.470  12.948 -1.9653  0.4442  0.4724
 4607TIP3    H235313   5.933   0.324  12.959 -1.0132  0.6501  0.2650
 4608TIP3   OH235314   5.540   2.764  14.494  0.1053  0.2879  0.4107
 4608TIP3    H135315   5.472   2.729  14.552  0.8230 -1.0753  0.4697
 4608TIP3    H235316   5.620   2.721  14.523  0.9414  1.6039  0.1083
 4609TIP3   OH235317   0.461   3.290   3.389  0.1800  0.1563  0.2307
 4609TIP3    H135318   0.416   3.236   3.325 -0.0331 -0.2886  0.7452
 4609TIP3    H235319   0.530   3.334   3.340  0.3310 -0.5524 -0.2026
 4610TIP3   OH235320   0.003   1.542  14.846 -0.1532  0.4783 -0.0423
 4610TIP3    H135321   0.061   1.618  14.840  0.7055  0.1906  2.9506
 4610TIP3    H235322   0.061   1.467  14.832  0.4546  0.1696  3.2857
 4611TIP3   OH235323   4.657   5.656   4.775  0.2184  0.9274  0.0698
 4611TIP3    H135324   4.594   5.592   4.808 -2.0255  3.1996  0.5133
 4611TIP3    H235325   4.662   5.637   4.681 -0.7295  0.3921  0.1124
 4612TIP3   OH235326   0.686   0.188  12.646  0.0801  0.1760 -0.5014
 4612TIP3    H135327   0.635   0.261  12.612 -1.1962 -0.8284 -0.8539
 4612TIP3    H235328   0.704   0.212  12.737 -1.1113  0.5491 -0.3385
 4613TIP3   OH235329   1.669   4.089   3.168 -0.2622 -0.0954  0.1159
 4613TIP3    H135330   1.755   4.055   3.193 -1.1858 -2.3809  0.4157
 4613TIP3    H235331   1.644   4.145   3.241 -0.0921 -1.4723  1.2872
 4614TIP3   OH235332   3.348   2.062  12.946  0.2698  0.3599 -0.0739
 4614TIP3    H135333   3.298   2.141  12.965  0.7890  0.7432 -0.2894
 4614TIP3    H235334   3.300   2.020  12.874  1.1790  1.6191 -1.4845
 4615TIP3   OH235335   4.298   1.885   2.263  0.1085  0.1254  0.1647
 4615TIP3    H135336   4.388   1.870   2.290 -0.2283  1.3580  2.1924
 4615TIP3    H235337   4.304   1.958   2.201  0.6010 -0.6794 -0.7645
 4616TIP3   OH235338   2.790   4.741  17.255  0.0161 -0.4274  0.5533
 4616TIP3    H135339   2.782   4.811  17.320 -3.8343  0.0492 -0.1947
 4616TIP3    H235340   2.742   4.667  17.293 -0.8257 -0.7016 -0.9607
 4617TIP3   OH235341   0.341   1.339  10.827  0.0646  0.0027  0.7369
 4617TIP3    H135342   0.426   1.383  10.821  1.2446 -2.2777 -1.6879
 4617TIP3    H235343   0.305   1.346  10.738 -2.3089  0.8345  1.6992
 4618TIP3   OH235344   4.146   0.684  11.995  0.2582  0.0239 -0.6547
 4618TIP3    H135345   4.147   0.595  11.960 -1.8728  0.2430 -1.4479
 4618TIP3    H235346   4.181   0.738  11.924  0.0628 -0.0263 -0.7921
 4619TIP3   OH235347   3.523   5.691  15.571 -0.4321 -0.0158  0.9141
 4619TIP3    H135348   3.539   5.766  15.629 -1.3835  1.2381 -0.3720
 4619TIP3    H235349   3.487   5.730  15.491 -1.7796 -1.9213  0.5290
 4620TIP3   OH235350   6.084   4.238  11.954  0.3762  0.2841  0.8460
 4620TIP3    H135351   6.019   4.297  11.917  0.5812  0.1860  0.3151
 4620TIP3    H235352   6.041   4.152  11.952  1.7024 -0.5021 -2.8948
 4621TIP3   OH235353   4.601   3.617   1.586  0.0708 -0.6969  0.1234
 4621TIP3    H135354   4.507   3.614   1.604 -0.6935  2.9797 -2.1469
 4621TIP3    H235355   4.626   3.707   1.607  2.1442 -0.4203 -2.8841
 4622TIP3   OH235356   3.151   1.170   1.906  0.4423  0.5413 -0.6154
 4622TIP3    H135357   3.166   1.080   1.937 -1.3408  1.1597  2.4849
 4622TIP3    H235358   3.075   1.163   1.848  0.6920 -0.0324 -0.8791
 4623TIP3   OH235359   2.763   5.623   0.904  0.4557 -0.2269  0.0539
 4623TIP3    H135360   2.669   5.607   0.919 -0.0579  2.8487  0.9682
 4623TIP3    H235361   2.785   5.568   0.829 -1.8513 -1.7411  0.3844
 4624TIP3   OH235362   0.535   3.068  15.224 -0.4037  0.3294  0.5482
 4624TIP3    H135363   0.442   3.057  15.243 -0.1408 -0.0436  1.7935
 4624TIP3    H235364   0.578   3.056  15.310  1.1041 -3.5385 -0.5094
 4625TIP3   OH235365   5.587   3.128   6.535 -0.5922 -0.0821 -0.2428
 4625TIP3    H135366   5.615   3.040   6.558 -1.6736 -0.2168  0.6136
 4625TIP3    H235367   5.667   3.181   6.542 -0.0751 -0.8666 -0.1303
 4626TIP3   OH235368   1.279   5.842  13.765 -0.0486 -0.4779  0.9404
 4626TIP3    H135369   1.221   5.910  13.800 -0.5050 -0.2449 -0.2232
 4626TIP3    H235370   1.363   5.886  13.753  0.0640 -0.5162  1.5792
 4627TIP3   OH235371   3.803   1.885  12.295  0.2519  0.3869  0.5266
 4627TIP3    H135372   3.866   1.862  12.363  0.0886 -1.7287  0.0388
 4627TIP3    H235373   3.849   1.949  12.241  1.8571 -0.7643  0.4518
 4628TIP3   OH235374   3.202   5.668  12.800  0.2230 -0.8540 -0.1929
 4628TIP3    H135375   3.162   5.587  12.831 -0.4683 -0.9600 -1.3040
 4628TIP3    H235376   3.260   5.696  12.871 -0.8541 -1.3852  0.9190
 4629TIP3   OH235377   0.679   3.436   1.973 -0.1557 -0.0691  0.3518
 4629TIP3    H135378   0.752   3.383   2.005  0.1118 -0.8875 -1.4765
 4629TIP3    H235379   0.602   3.382   1.990  0.1125 -1.1355 -1.4723
 4630TIP3   OH235380   5.349   6.665   1.484 -0.4622  0.7590 -0.1942
 4630TIP3    H135381   5.255   6.680   1.498 -0.2491  0.8644  1.3512
 4630TIP3    H235382   5.385   6.753   1.474 -0.6480  0.6715 -1.8217
 4631TIP3   OH235383   4.105   4.151  11.736 -0.3091 -0.0773  0.1369
 4631TIP3    H135384   4.178   4.126  11.679 -1.4509 -1.8737 -0.6436
 4631TIP3    H235385   4.122   4.104  11.818 -0.7200 -0.7712 -0.1613
 4632TIP3   OH235386   5.920   0.603  13.162  0.4652  0.1606 -0.1663
 4632TIP3    H135387   5.960   0.671  13.216  0.1677 -1.5145  2.3472
 4632TIP3    H235388   5.980   0.528  13.170 -0.5875 -0.7466 -0.5792
 4633TIP3   OH235389   2.714   6.244  13.046 -0.3013  0.0955 -0.0411
 4633TIP3    H135390   2.643   6.183  13.029 -0.3070  0.2115 -0.4449
 4633TIP3    H235391   2.768   6.241  12.967 -1.0478  1.6296 -0.6393
 4634TIP3   OH235392   3.974   5.564  12.593  0.0217  0.0225  0.1871
 4634TIP3    H135393   3.970   5.628  12.664 -1.6243  0.0330  0.1380
 4634TIP3    H235394   3.979   5.617  12.514 -1.7751  0.1779  0.1181
 4635TIP3   OH235395   6.219   4.301   2.424 -0.0973  0.1452  0.2144
 4635TIP3    H135396   6.251   4.303   2.334 -0.2136  1.5843  0.1897
 4635TIP3    H235397   6.263   4.225   2.463  2.2960  1.2404 -0.2034
 4636TIP3   OH235398   6.669   5.068   0.317 -0.2785 -0.5360 -0.1824
 4636TIP3    H135399   6.700   5.108   0.398 -4.2366  1.6070  0.5741
 4636TIP3    H235400   6.640   4.980   0.343  2.4994 -1.5946 -0.3889
 4637TIP3   OH235401   3.547   2.963  12.770  0.1859  0.1063  0.3453
 4637TIP3    H135402   3.541   3.043  12.821 -0.1228 -0.4602  1.2064
 4637TIP3    H235403   3.500   2.982  12.688 -1.3477  0.2595  1.2345
 4638TIP3   OH235404   1.287   2.345  13.483 -0.4182  0.1072  0.1475
 4638TIP3    H135405   1.341   2.275  13.518 -1.2503  0.2372  1.7758
 4638TIP3    H235406   1.199   2.307  13.476 -0.7528  0.8030  0.4709
 4639TIP3   OH235407   6.260   0.289   3.141  0.5033  0.2805 -0.2919
 4639TIP3    H135408   6.197   0.259   3.207  0.9993  0.5356  0.3198
 4639TIP3    H235409   6.305   0.209   3.113  1.3727  0.3262  0.8562
 4640TIP3   OH235410   5.723   5.380  16.319  0.2219 -0.0362 -0.2668
 4640TIP3    H135411   5.818   5.371  16.330  0.2389  0.0310 -0.3628
 4640TIP3    H235412   5.695   5.294  16.288  0.3184  0.0890 -0.7115
 4641TIP3   OH235413   3.952   5.856   0.355 -0.0971 -0.1480 -0.5348
 4641TIP3    H135414   3.952   5.761   0.355 -1.0358 -0.2786  2.7881
 4641TIP3    H235415   3.918   5.880   0.442  4.4164  3.1511  0.7337
 4642TIP3   OH235416   4.827   3.926   3.551  0.2152  0.5612 -0.0619
 4642TIP3    H135417   4.789   4.014   3.545 -1.6878 -0.2074  0.3043
 4642TIP3    H235418   4.922   3.942   3.552 -0.0835  2.6650  0.8787
 4643TIP3   OH235419   3.875   6.456   2.294 -0.1676  0.0241 -0.4501
 4643TIP3    H135420   3.791   6.489   2.326  0.0584  0.6400 -0.4828
 4643TIP3    H235421   3.934   6.464   2.369 -0.4066 -1.4823 -0.0693
 4644TIP3   OH235422   5.182   5.270   1.192  0.3786 -0.2333  0.2968
 4644TIP3    H135423   5.101   5.226   1.218 -0.0799  0.4037 -0.0175
 4644TIP3    H235424   5.157   5.361   1.181  1.1729 -0.0063  0.3102
 4645TIP3   OH235425   2.306   3.468   1.801  0.1419  0.4035 -0.1708
 4645TIP3    H135426   2.227   3.523   1.799 -1.7823 -2.1729 -0.5085
 4645TIP3    H235427   2.353   3.497   1.879 -2.0442  0.8904  1.0564
 4646TIP3   OH235428   3.394   6.141  13.966 -0.2521  0.2773  0.3943
 4646TIP3    H135429   3.427   6.112  13.881  0.0903  0.5980  0.4126
 4646TIP3    H235430   3.323   6.081  13.986  1.7391 -1.9367  1.3968
 4647TIP3   OH235431   4.099   2.397  14.040  0.6354 -0.4228  0.4360
 4647TIP3    H135432   4.178   2.357  14.075 -0.2306 -2.2967  0.3334
 4647TIP3    H235433   4.035   2.326  14.035 -0.7056  0.7827 -0.5953
 4648TIP3   OH235434   0.475   3.242  13.120 -0.0345  0.5832  0.1647
 4648TIP3    H135435   0.534   3.167  13.126 -0.9924 -0.1026  1.6937
 4648TIP3    H235436   0.405   3.213  13.061 -0.6521  0.0681  1.1267
 4649TIP3   OH235437   2.253   5.613   0.260  0.6140  0.4356 -0.4321
 4649TIP3    H135438   2.336   5.654   0.285  0.7292 -0.8235  1.4190
 4649TIP3    H235439   2.190   5.685   0.259  1.0099  0.8775  1.7326
 4650TIP3   OH235440   0.018   1.778   2.530 -0.6702 -0.6473  0.2698
 4650TIP3    H135441   0.023   1.682   2.532 -1.4478 -0.6865  1.9312
 4650TIP3    H235442   0.083   1.806   2.595  0.9577  0.0723 -1.5604
 4651TIP3   OH235443   5.087   1.468   5.106 -0.2220  0.1142  0.0209
 4651TIP3    H135444   5.160   1.513   5.063 -0.9071 -0.3515 -1.7143
 4651TIP3    H235445   5.028   1.538   5.134 -0.5137  0.3843 -1.2314
 4652TIP3   OH235446   3.321   0.835   1.740 -0.0786 -0.0837  0.2546
 4652TIP3    H135447   3.231   0.849   1.711  0.0215 -0.6228 -0.3537
 4652TIP3    H235448   3.369   0.812   1.660  0.0782 -2.2305  0.9079
 4653TIP3   OH235449   5.580   2.526   2.963 -0.2293 -0.2319 -0.0921
 4653TIP3    H135450   5.533   2.585   3.023 -2.1372 -2.6871  1.0221
 4653TIP3    H235451   5.671   2.552   2.970 -0.9096  2.1620  0.7971
 4654TIP3   OH235452   6.062   4.457   2.142  0.2844  0.1752 -0.1234
 4654TIP3    H135453   6.001   4.513   2.094  0.3104  0.7762  0.5300
 4654TIP3    H235454   6.099   4.399   2.075  0.2878  0.9645 -0.8242
 4655TIP3   OH235455   5.986   4.284  15.072 -0.6194 -0.2219  0.1277
 4655TIP3    H135456   5.958   4.277  15.164 -0.7623  0.7932  0.1672
 4655TIP3    H235457   6.010   4.376  15.061  0.3641 -0.5491 -0.5866
 4656TIP3   OH235458   5.825   0.965   4.259  0.1368  0.3200 -0.3938
 4656TIP3    H135459   5.802   1.042   4.207  0.0423  0.3183 -0.3545
 4656TIP3    H235460   5.877   0.911   4.199  0.8557  0.7707 -0.1757
 4657TIP3   OH235461   2.862   4.645  16.167  0.3439 -0.1332  0.1888
 4657TIP3    H135462   2.951   4.638  16.133 -0.5537 -1.3617 -2.1275
 4657TIP3    H235463   2.833   4.733  16.140  1.4338  1.1250  2.7315
 4658TIP3   OH235464   1.726   0.691   0.602  0.4603 -0.2461  0.6722
 4658TIP3    H135465   1.635   0.697   0.629 -0.0380  1.2459 -1.1085
 4658TIP3    H235466   1.724   0.706   0.507  2.3592 -2.1712  0.2413
 4659TIP3   OH235467   0.883   6.087  14.970 -0.1417  0.1238 -0.1852
 4659TIP3    H135468   0.962   6.113  14.923  0.3989  1.4627  1.3945
 4659TIP3    H235469   0.817   6.150  14.942 -0.3216 -0.2212 -0.5456
 4660TIP3   OH235470   4.231   3.708  12.055 -0.3587 -0.5677  0.4634
 4660TIP3    H135471   4.142   3.731  12.029 -0.2245 -0.4106  0.1250
 4660TIP3    H235472   4.231   3.710  12.150 -0.1774  1.5513  0.4633
 4661TIP3   OH235473   1.682   5.300  15.172  0.0763 -0.0826 -0.0898
 4661TIP3    H135474   1.634   5.367  15.219 -1.7074 -0.7643 -0.8669
 4661TIP3    H235475   1.637   5.292  15.087  2.0157 -0.2234 -1.1683
 4662TIP3   OH235476   1.319   0.972   2.740 -0.3120 -0.0897 -0.0341
 4662TIP3    H135477   1.283   0.883   2.732  0.2205 -0.6413  2.6984
 4662TIP3    H235478   1.398   0.969   2.687  0.0268 -1.4926  0.4795
 4663TIP3   OH235479   0.082   0.105   0.635  0.5394  0.2457  0.0402
 4663TIP3    H135480   0.060   0.147   0.552 -0.4916 -1.1857 -0.4627
 4663TIP3    H235481   0.114   0.018   0.611 -1.3266 -0.8297  1.1587
 4664TIP3   OH235482   1.494   6.556  14.980  0.1583  0.5448 -0.0407
 4664TIP3    H135483   1.589   6.568  14.974  0.2304  0.1063  0.1726
 4664TIP3    H235484   1.469   6.605  15.058  0.2475  0.4366  0.0552
 4665TIP3   OH235485   6.601   0.207   0.497 -0.1308  0.2802 -0.6170
 4665TIP3    H135486   6.649   0.152   0.435 -0.7587  0.6764 -1.4765
 4665TIP3    H235487   6.564   0.277   0.443 -0.8221  0.5423  0.1803
 4666TIP3   OH235488   3.206   2.372   4.053  0.1428 -0.2671  0.0062
 4666TIP3    H135489   3.131   2.378   4.113  0.2699  0.2813  0.1145
 4666TIP3    H235490   3.167   2.346   3.969 -0.3864  1.4285 -0.3230
 4667TIP3   OH235491   1.700   6.663   5.662 -0.0554  0.3133 -0.0131
 4667TIP3    H135492   1.712   6.573   5.690 -0.4427  0.6281  1.2335
 4667TIP3    H235493   1.745   6.715   5.728 -3.0198  1.2132  1.4667
 4668TIP3   OH235494   2.839   1.455   4.608 -0.0661  0.0483  0.3842
 4668TIP3    H135495   2.821   1.362   4.625  0.1518 -0.2899 -1.1101
 4668TIP3    H235496   2.778   1.479   4.538  1.8572  0.2101 -1.3033
 4669TIP3   OH235497   2.109   0.537   6.697 -0.3991  0.4229  0.3799
 4669TIP3    H135498   2.039   0.482   6.662 -0.8895  1.3715 -0.1615
 4669TIP3    H235499   2.162   0.560   6.620  0.4118 -0.1254  0.7542
 4670TIP3   OH235500   4.972   6.005   3.060 -0.0649 -0.2444 -0.2514
 4670TIP3    H135501   4.880   6.029   3.048 -0.3026 -1.4188 -1.0229
 4670TIP3    H235502   5.021   6.081   3.029 -0.7754  0.0237 -0.7446
 4671TIP3   OH235503   6.507   5.403  15.632  0.5217 -0.0047 -0.2289
 4671TIP3    H135504   6.469   5.386  15.719  1.7988  2.1521  0.8340
 4671TIP3    H235505   6.446   5.464  15.591  0.4670 -0.1890 -0.4229
 4672TIP3   OH235506   1.383   1.367   2.685 -0.2169 -0.4081  0.2490
 4672TIP3    H135507   1.462   1.320   2.712  0.0974 -0.9242 -1.4361
 4672TIP3    H235508   1.320   1.351   2.756 -0.3856 -4.0605 -0.5347
 4673TIP3   OH235509   5.496   5.697  13.226  0.3643 -0.6405  0.1707
 4673TIP3    H135510   5.579   5.651  13.222  0.1012 -1.1090  0.0337
 4673TIP3    H235511   5.519   5.789  13.217  0.6857 -0.8978 -2.3101
 4674TIP3   OH235512   5.242   4.959  11.860 -0.3467  0.1321  0.3687
 4674TIP3    H135513   5.264   5.027  11.796  0.6656 -0.3772  0.1565
 4674TIP3    H235514   5.171   4.998  11.912 -0.8127  0.7688 -0.6918
 4675TIP3   OH235515   2.742   2.178  12.938  0.4385  0.5119 -0.4546
 4675TIP3    H135516   2.681   2.127  12.884  0.9524 -0.4661 -0.1308
 4675TIP3    H235517   2.688   2.248  12.975 -0.7156 -0.8517  0.5499
 4676TIP3   OH235518   3.635   1.837  13.307 -0.4117  0.3459 -0.1250
 4676TIP3    H135519   3.605   1.816  13.395 -0.7766 -0.2848 -0.3920
 4676TIP3    H235520   3.557   1.866  13.261 -0.4995 -0.6239 -0.6215
 4677TIP3   OH235521   5.551   5.960  13.239 -0.6898 -0.3340  0.2879
 4677TIP3    H135522   5.549   6.006  13.322  0.8283 -0.0469  0.1872
 4677TIP3    H235523   5.599   6.018  13.179  1.5096 -2.0598  0.2332
 4678TIP3   OH235524   6.297   5.252   5.781  0.2108 -0.1325 -0.5393
 4678TIP3    H135525   6.358   5.326   5.782 -1.2259  1.2085 -2.5865
 4678TIP3    H235526   6.260   5.250   5.869  1.4716  0.5377  0.0242
 4679TIP3   OH235527   2.207   6.002   6.093  0.2290  0.6887  0.7142
 4679TIP3    H135528   2.225   6.073   6.031 -1.3469 -1.1185 -2.0471
 4679TIP3    H235529   2.135   6.035   6.147 -1.3750  0.8227 -1.3892
 4680TIP3   OH235530   0.033   4.934  15.539 -0.1675 -0.1685 -0.3261
 4680TIP3    H135531  -0.015   4.959  15.460 -1.3289 -0.5147  0.2452
 4680TIP3    H235532  -0.019   4.864  15.577 -0.5699  1.1213  1.6421
 4681TIP3   OH235533   5.766   4.980   2.527 -0.0628 -0.9060 -0.2385
 4681TIP3    H135534   5.725   5.064   2.546 -0.7968 -1.0695 -1.0380
 4681TIP3    H235535   5.775   4.938   2.612  0.1244 -0.1028  0.1453
 4682TIP3   OH235536   0.418   5.256  15.323  0.5701 -0.3437  0.1265
 4682TIP3    H135537   0.376   5.314  15.386 -0.2681 -0.5123 -0.2617
 4682TIP3    H235538   0.477   5.202  15.376  0.2750 -0.1247  0.6891
 4683TIP3   OH235539   4.301   1.840  16.166 -0.0284 -0.2880 -0.2549
 4683TIP3    H135540   4.234   1.861  16.102  2.9830  1.2364 -3.2502
 4683TIP3    H235541   4.269   1.876  16.248 -3.1572 -0.4198 -1.3101
 4684TIP3   OH235542   5.471   3.153   1.006 -0.4660  0.1653 -0.4728
 4684TIP3    H135543   5.495   3.201   0.926 -1.0922  0.8236 -0.2826
 4684TIP3    H235544   5.415   3.081   0.975 -2.1032  1.3888 -0.5205
 4685TIP3   OH235545   5.067   0.112   6.504 -0.0298  0.4271  0.0493
 4685TIP3    H135546   5.148   0.066   6.527 -0.5241 -0.7319 -0.4376
 4685TIP3    H235547   5.017   0.116   6.585  0.3265  0.7683  0.2553
 4686TIP3   OH235548   6.672   0.616  17.090 -0.2624  0.1748  0.0194
 4686TIP3    H135549   6.686   0.563  17.168  1.3487 -0.3309 -0.5758
 4686TIP3    H235550   6.743   0.592  17.031 -0.7466  1.4193 -1.1398
 4687TIP3   OH235551   2.924   4.246  13.058  0.2116 -0.1312 -0.1441
 4687TIP3    H135552   2.907   4.292  12.976  1.3386 -0.2240 -0.4363
 4687TIP3    H235553   2.977   4.307  13.109  0.2715 -0.4276  0.1507
 4688TIP3   OH235554   3.506   3.067  17.430  0.0250  0.4929  0.4609
 4688TIP3    H135555   3.580   3.104  17.382  0.2195 -0.1882  0.2302
 4688TIP3    H235556   3.546   3.017  17.501 -0.2380  0.6631  0.7372
 4689TIP3   OH235557   4.843   0.451   6.585 -0.1572  0.6498  0.9531
 4689TIP3    H135558   4.921   0.444   6.640 -0.2224  0.9822  1.0923
 4689TIP3    H235559   4.806   0.537   6.607 -0.8064  0.3048  1.2199
 4690TIP3   OH235560   4.958   4.892  12.652 -0.0441 -0.0825  0.3327
 4690TIP3    H135561   5.014   4.966  12.629 -0.4803 -0.2106 -1.2532
 4690TIP3    H235562   4.906   4.877  12.574  0.2384 -2.2548  0.5110
 4691TIP3   OH235563   2.874   2.478  16.083 -0.7062  0.0543 -0.7840
 4691TIP3    H135564   2.939   2.465  16.152 -1.3364 -0.1905 -0.2254
 4691TIP3    H235565   2.836   2.563  16.101  0.4059  0.8310 -1.9253
 4692TIP3   OH235566   1.831   6.753  15.423 -0.2411 -0.4830  0.6583
 4692TIP3    H135567   1.923   6.737  15.443 -0.0323  0.0166  0.1533
 4692TIP3    H235568   1.803   6.816  15.490  0.2875  0.7257 -0.2137
 4693TIP3   OH235569   5.330   3.494   5.078 -0.0949 -0.0842 -0.0602
 4693TIP3    H135570   5.278   3.561   5.031 -0.3706  0.7795  1.4134
 4693TIP3    H235571   5.395   3.544   5.127  1.2080 -1.0768 -0.7263
 4694TIP3   OH235572   4.246   1.151  16.715 -0.0099 -0.1578 -0.5094
 4694TIP3    H135573   4.253   1.059  16.690 -0.2709 -0.4454  0.4370
 4694TIP3    H235574   4.278   1.154  16.805  0.7148  0.8119 -0.7884
 4695TIP3   OH235575   0.280   2.043   5.737  0.3928  0.1509  0.4777
 4695TIP3    H135576   0.279   1.948   5.747 -0.4159  0.1469  0.4673
 4695TIP3    H235577   0.360   2.061   5.687 -1.1261 -0.8948 -2.6245
 4696TIP3   OH235578   5.834   6.747   1.203 -0.2933  0.1833  0.1296
 4696TIP3    H135579   5.818   6.816   1.268 -0.5033 -0.4782  0.8005
 4696TIP3    H235580   5.755   6.693   1.207  1.0571 -1.8002  1.7729
 4697TIP3   OH235581   1.263   1.856  15.916 -0.3875  0.4251 -0.1496
 4697TIP3    H135582   1.289   1.827  16.004 -0.9560  0.7546  0.1271
 4697TIP3    H235583   1.263   1.775  15.864 -0.4253  0.1699  0.2398
 4698TIP3   OH235584   2.685   4.040  14.049 -0.0313 -0.0792 -0.5716
 4698TIP3    H135585   2.631   4.044  14.127  0.0001  0.5448 -0.5795
 4698TIP3    H235586   2.627   4.066  13.977 -0.4714 -2.0275 -0.9927
 4699TIP3   OH235587   0.447   1.283  15.911 -0.0577  0.0435 -0.8261
 4699TIP3    H135588   0.462   1.204  15.860 -0.0365 -0.1087 -0.5877
 4699TIP3    H235589   0.468   1.355  15.852 -2.4764 -0.0272 -1.9015
 4700TIP3   OH235590   6.136   5.341  15.258 -0.8328 -0.2683  0.1928
 4700TIP3    H135591   6.194   5.318  15.331 -3.8649 -0.9870  2.5910
 4700TIP3    H235592   6.095   5.259  15.233 -3.7699  0.6634  1.4536
 4701TIP3   OH235593   3.314   5.898   6.103 -0.0493  0.0933  0.0415
 4701TIP3    H135594   3.272   5.899   6.189 -0.0654 -1.7328  0.0985
 4701TIP3    H235595   3.407   5.885   6.122  0.0861  0.6866 -0.1978
 4702TIP3   OH235596   5.416   1.967   2.777 -0.5848 -0.4007  0.4611
 4702TIP3    H135597   5.465   2.036   2.732  0.1906  0.8018  2.9355
 4702TIP3    H235598   5.324   1.987   2.760 -0.3862  1.4515  1.3318
 4703TIP3   OH235599   6.011   4.479   6.059 -0.1589  0.2115 -0.1313
 4703TIP3    H135600   6.069   4.545   6.097  1.1453 -1.3487  0.7156
 4703TIP3    H235601   5.931   4.527   6.038  1.3024  2.4123 -1.1411
 4704TIP3   OH235602   1.577   4.195   2.811  0.2154  0.2697 -0.0549
 4704TIP3    H135603   1.654   4.138   2.819  0.8362  0.7169 -2.2262
 4704TIP3    H235604   1.588   4.260   2.880  0.5083 -1.0579  1.2102
 4705TIP3   OH235605   6.323   0.190  17.179  0.4750 -0.2089 -0.0916
 4705TIP3    H135606   6.355   0.183  17.269  1.8675  1.2112 -0.4447
 4705TIP3    H235607   6.260   0.262  17.182  1.4183  0.6542 -0.4604
 4706TIP3   OH235608   5.519   6.520   0.385  0.3705 -0.4960  0.1085
 4706TIP3    H135609   5.453   6.462   0.348 -0.2309  0.3284 -0.1612
 4706TIP3    H235610   5.530   6.491   0.475  1.1887 -1.9597 -0.4207
 4707TIP3   OH235611   3.785   5.661   4.329 -0.0287 -0.4603 -0.3633
 4707TIP3    H135612   3.769   5.738   4.383  0.8939 -0.1758 -0.4670
 4707TIP3    H235613   3.799   5.590   4.392  0.4794 -0.2484 -0.2289
 4708TIP3   OH235614   5.656   0.701   5.120 -0.1897 -0.0245  0.5065
 4708TIP3    H135615   5.696   0.616   5.099 -1.0532  0.2365 -2.7266
 4708TIP3    H235616   5.562   0.685   5.110 -0.3636  1.2665 -0.0410
 4709TIP3   OH235617   0.396   4.638  13.641  0.1004 -0.5116 -0.0106
 4709TIP3    H135618   0.456   4.599  13.577  0.0385  0.0423 -0.4105
 4709TIP3    H235619   0.394   4.575  13.713  0.9452 -0.6650 -0.1151
 4710TIP3   OH235620   1.497   6.232  14.205  0.9097 -0.0204 -0.0203
 4710TIP3    H135621   1.483   6.318  14.165  1.8278  0.5995  0.9476
 4710TIP3    H235622   1.588   6.211  14.186  0.1620 -1.8034 -2.0947
 4711TIP3   OH235623   2.767   5.521  12.510  0.7252 -0.4347  0.2800
 4711TIP3    H135624   2.730   5.511  12.598 -0.0316 -0.1898 -0.0071
 4711TIP3    H235625   2.849   5.569  12.525  0.4103 -0.0484  0.8113
 4712TIP3   OH235626   3.233   2.125  12.310 -0.0687 -0.3659 -0.1815
 4712TIP3    H135627   3.278   2.146  12.228  0.5619  1.0716  0.5089
 4712TIP3    H235628   3.228   2.208  12.357  0.2246 -1.3048  1.5758
 4713TIP3   OH235629   2.631   1.117   1.201  0.4800  0.2510  0.0572
 4713TIP3    H135630   2.684   1.065   1.262 -1.2021  1.2901  2.5478
 4713TIP3    H235631   2.591   1.051   1.143 -0.4227 -1.1774  2.1723
 4714TIP3   OH235632   3.299   4.279   2.737  0.4905  0.0057  0.3925
 4714TIP3    H135633   3.339   4.289   2.651 -1.9881 -2.0024 -1.1341
 4714TIP3    H235634   3.260   4.364   2.756 -1.7495 -0.3542 -2.1098
 4715TIP3   OH235635   5.878   1.736   4.499  0.4460  0.5124  0.1645
 4715TIP3    H135636   5.902   1.693   4.581 -0.6941 -0.7367 -0.1137
 4715TIP3    H235637   5.782   1.733   4.498  0.4331  0.6811 -1.1190
 4716TIP3   OH235638   4.553   1.480  15.544 -0.2287  0.2778  0.6358
 4716TIP3    H135639   4.512   1.404  15.504  1.5265 -0.0175 -0.6835
 4716TIP3    H235640   4.534   1.471  15.638 -1.1236 -1.0687  0.3450
 4717TIP3   OH235641   6.480   0.850  11.556 -0.5837  0.1096 -0.2730
 4717TIP3    H135642   6.522   0.936  11.552 -3.0943  1.4276 -0.7098
 4717TIP3    H235643   6.525   0.798  11.490 -0.4782  1.8590 -1.6721
 4718TIP3   OH235644   1.782   3.634  15.317 -0.6061 -0.3996  0.5673
 4718TIP3    H135645   1.810   3.548  15.288  0.8909  0.5679 -1.0455
 4718TIP3    H235646   1.762   3.682  15.236 -1.3546  0.7986  1.4229
 4719TIP3   OH235647   1.293   1.114   4.111 -0.3939  0.4468 -0.0042
 4719TIP3    H135648   1.282   1.064   4.192 -1.0756 -0.4421 -0.6277
 4719TIP3    H235649   1.208   1.107   4.067  0.2385  0.1770 -1.2175
 4720TIP3   OH235650   2.917   3.749   6.801  0.1133 -0.6452  0.1378
 4720TIP3    H135651   2.992   3.693   6.786  0.3889 -0.2396 -0.0154
 4720TIP3    H235652   2.848   3.690   6.831  0.5677 -0.9792  0.5263
 4721TIP3   OH235653   1.683   2.771   3.787 -0.3943 -0.7209 -0.1875
 4721TIP3    H135654   1.757   2.730   3.832 -1.3254 -0.7416  1.3716
 4721TIP3    H235655   1.622   2.794   3.857 -0.3820  2.4086 -1.0922
 4722TIP3   OH235656   4.347   5.411  17.494  0.3589  0.4881 -0.2468
 4722TIP3    H135657   4.425   5.466  17.493  1.2411 -0.6842 -2.2906
 4722TIP3    H235658   4.380   5.322  17.483 -1.2508 -0.0729 -0.8952
 4723TIP3   OH235659   2.184   4.749   6.046 -0.1760  0.2719 -0.2222
 4723TIP3    H135660   2.184   4.724   6.139  0.6613  0.1379 -0.2492
 4723TIP3    H235661   2.212   4.670   6.000  1.5355  0.9170 -0.3933
 4724TIP3   OH235662   5.687   4.824  14.779 -0.0969 -0.5268  0.5294
 4724TIP3    H135663   5.720   4.827  14.869  2.7228 -0.1922 -0.4207
 4724TIP3    H235664   5.645   4.909  14.766 -0.9018 -0.7257  1.6047
 4725TIP3   OH235665   4.458   4.238  15.552 -0.2240 -0.8335 -0.3990
 4725TIP3    H135666   4.475   4.183  15.476 -0.1872 -0.7472 -0.4538
 4725TIP3    H235667   4.437   4.177  15.623  3.5238 -1.2166  0.5879
 4726TIP3   OH235668   1.927   2.852   5.373  0.4880  0.6063  0.4107
 4726TIP3    H135669   1.981   2.778   5.399  1.7412  0.4092 -2.3742
 4726TIP3    H235670   1.951   2.923   5.433  3.7763  0.4503 -0.5355
 4727TIP3   OH235671   2.584   0.539   0.317  0.5085 -0.0676 -0.3113
 4727TIP3    H135672   2.519   0.552   0.386  1.6122  2.3724  0.3743
 4727TIP3    H235673   2.631   0.460   0.343 -1.0461 -0.9219  0.0506
 4728TIP3   OH235674   2.124   0.649   2.468  0.2275  0.0870 -0.2605
 4728TIP3    H135675   2.137   0.674   2.376 -0.3096 -2.6190 -1.1632
 4728TIP3    H235676   2.185   0.576   2.481  1.2621  1.2715  1.9802
 4729TIP3   OH235677   4.776   3.553   2.460 -0.0539  0.4961  0.0834
 4729TIP3    H135678   4.854   3.581   2.412 -0.0524 -0.6447 -0.6068
 4729TIP3    H235679   4.703   3.580   2.404 -0.2790  2.8144  1.3609
 4730TIP3   OH235680   0.752   0.816  12.911  0.1152  0.2256 -0.1394
 4730TIP3    H135681   0.744   0.897  12.962 -1.1347 -0.3919  0.6932
 4730TIP3    H235682   0.809   0.840  12.837 -1.7622  2.3925 -1.0063
 4731TIP3   OH235683   0.608   4.497  14.888  0.3683 -0.9529  0.1183
 4731TIP3    H135684   0.552   4.419  14.892  0.6236 -1.0827  2.3976
 4731TIP3    H235685   0.696   4.464  14.908  0.5454 -0.1428  0.7037
 4732TIP3   OH235686   5.355   4.694  12.858 -0.1109 -0.2828  0.4810
 4732TIP3    H135687   5.292   4.765  12.876 -0.2740 -0.8467  2.4216
 4732TIP3    H235688   5.414   4.696  12.933  1.2296 -0.8207 -0.5262
 4733TIP3   OH235689   4.621   0.267  10.722  0.6009  0.3692 -0.1314
 4733TIP3    H135690   4.608   0.359  10.746 -1.7401  0.7473 -2.3696
 4733TIP3    H235691   4.710   0.263  10.688  1.2649  1.4261  1.3687
 4734TIP3   OH235692   0.532   5.274  15.054  0.3068 -0.5071  0.4846
 4734TIP3    H135693   0.463   5.340  15.052  0.6520 -0.1036  1.3800
 4734TIP3    H235694   0.488   5.193  15.080 -0.4328 -1.0674 -2.2058
 4735TIP3   OH235695   0.388   0.540   4.868  0.1743  0.5488 -0.1417
 4735TIP3    H135696   0.447   0.563   4.797  1.5803  2.0058  1.3949
 4735TIP3    H235697   0.330   0.616   4.876  0.9805  1.0754  1.1363
 4736TIP3   OH235698   0.782   1.468  11.359 -0.0906 -0.5106  0.4365
 4736TIP3    H135699   0.727   1.411  11.411 -0.9983 -0.3164 -0.2833
 4736TIP3    H235700   0.782   1.428  11.272 -1.7200  1.1858 -0.4055
 4737TIP3   OH235701   1.598   4.772  17.370  0.4327  0.2002  0.1718
 4737TIP3    H135702   1.641   4.827  17.436  0.0528  0.4673  0.2026
 4737TIP3    H235703   1.647   4.690  17.371  0.8475  0.4473  0.3102
 4738TIP3   OH235704   2.154   5.886   0.253  0.5755 -0.1926  0.3818
 4738TIP3    H135705   2.067   5.927   0.256  1.4662  1.7667  1.6300
 4738TIP3    H235706   2.193   5.920   0.172  0.9805  0.7948  0.9669
 4739TIP3   OH235707   2.037   5.104   6.111  0.1499  0.1175 -0.4497
 4739TIP3    H135708   1.954   5.102   6.159 -0.0623 -0.1105 -0.8243
 4739TIP3    H235709   2.102   5.125   6.178 -0.2114  0.3268 -0.1568
 4740TIP3   OH235710   5.409   0.968  13.380  0.1020 -0.6888 -0.5205
 4740TIP3    H135711   5.492   0.965  13.334  0.4462 -0.0304  0.0361
 4740TIP3    H235712   5.352   0.908  13.331  1.2396 -2.0768 -0.2163
 4741TIP3   OH235713   5.688   0.234   4.354 -0.2189  0.1891 -0.3072
 4741TIP3    H135714   5.696   0.245   4.259  0.2583 -1.2648 -0.4528
 4741TIP3    H235715   5.770   0.267   4.389  0.4126 -1.0596 -0.5753
 4742TIP3   OH235716   1.178   2.433   2.299  0.3348  0.0007 -0.4282
 4742TIP3    H135717   1.191   2.526   2.320  1.6999 -0.1292 -0.5950
 4742TIP3    H235718   1.216   2.386   2.373 -0.4675 -0.4341 -0.2850
 4743TIP3   OH235719   6.496   4.477  10.804 -0.1810 -0.1549  0.3817
 4743TIP3    H135720   6.431   4.512  10.866  0.9395  1.1143  0.9028
 4743TIP3    H235721   6.511   4.549  10.743  1.1945 -0.1843  0.6600
 4744TIP3   OH235722   0.125   5.842   0.498  0.3007 -0.4429  0.3189
 4744TIP3    H135723   0.139   5.867   0.407  1.1546  2.4649  1.1600
 4744TIP3    H235724   0.047   5.786   0.496  1.0022 -1.4893 -2.2786
 4745TIP3   OH235725   4.267   0.256   0.520  0.0238 -0.5427 -0.2288
 4745TIP3    H135726   4.313   0.277   0.601  1.4882 -0.3811 -1.0757
 4745TIP3    H235727   4.194   0.201   0.548  1.0639 -1.3020  1.0978
 4746TIP3   OH235728   5.524   2.869  12.498 -0.1762  0.0724 -0.1420
 4746TIP3    H135729   5.590   2.909  12.555 -0.3818  0.4246 -0.1461
 4746TIP3    H235730   5.483   2.943  12.454 -1.4515 -0.0455  0.8148
 4747TIP3   OH235731   1.301   1.251  14.601  0.0634  0.4799  0.1090
 4747TIP3    H135732   1.344   1.302  14.533  0.8105  0.9006  0.8875
 4747TIP3    H235733   1.253   1.183  14.553 -0.1141  1.2764 -0.8782
 4748TIP3   OH235734   2.937   6.132  13.222  0.1026  0.4887 -0.0443
 4748TIP3    H135735   2.987   6.200  13.266  0.3547  0.7586 -0.7475
 4748TIP3    H235736   2.854   6.174  13.199 -0.4696  0.0477  1.1055
 4749TIP3   OH235737   4.105   0.224  13.640 -0.1617 -0.7267  0.1237
 4749TIP3    H135738   4.093   0.268  13.724  0.5025  0.5628 -0.4274
 4749TIP3    H235739   4.018   0.191  13.618 -0.7093  0.3839  0.5320
 4750TIP3   OH235740   0.714   6.444  17.129  0.8287  0.0160  0.1111
 4750TIP3    H135741   0.727   6.352  17.106  0.6924  0.0158  0.0345
 4750TIP3    H235742   0.797   6.486  17.104  1.0197 -0.1460  0.4731
 4751TIP3   OH235743   2.483   4.032   6.079 -0.2722 -0.1537  0.8137
 4751TIP3    H135744   2.445   4.116   6.051  1.2203  0.6342  1.0650
 4751TIP3    H235745   2.422   4.000   6.145 -1.0823  0.5344  0.4295
 4752TIP3   OH235746   2.969   2.012  14.497  0.3039 -0.0951 -0.3213
 4752TIP3    H135747   2.981   1.943  14.561 -0.5961 -0.1013 -0.1484
 4752TIP3    H235748   2.988   2.093  14.545  3.1712 -0.2597 -0.9748
 4753TIP3   OH235749   4.067   4.716  14.511 -0.2255 -0.6834  0.2895
 4753TIP3    H135750   4.043   4.639  14.564  0.0150 -1.6771 -0.9925
 4753TIP3    H235751   4.152   4.743  14.547  0.6288 -2.2173 -0.4282
 4754TIP3   OH235752   2.434   6.494  15.161 -0.3138 -0.2779 -0.1084
 4754TIP3    H135753   2.505   6.482  15.099  0.4726 -0.6771  0.8359
 4754TIP3    H235754   2.446   6.424  15.225 -0.0389  1.1295  1.4639
 4755TIP3   OH235755   4.735   0.117   2.086 -0.2528 -0.7745 -0.7650
 4755TIP3    H135756   4.685   0.114   2.005 -1.9094 -2.1959  0.2298
 4755TIP3    H235757   4.693   0.053   2.143  1.0682 -0.0955  1.1069
 4756TIP3   OH235758   4.147   3.986  11.968  0.5542 -0.1492  0.3549
 4756TIP3    H135759   4.216   3.977  12.033  0.6598 -4.7780 -0.0487
 4756TIP3    H235760   4.073   3.937  12.005 -0.1009 -1.0849 -2.0114
 4757TIP3   OH235761   3.781   2.689  11.320 -0.3117  0.6804  0.4391
 4757TIP3    H135762   3.829   2.746  11.380  0.2139 -0.1226  0.7970
 4757TIP3    H235763   3.689   2.702  11.342 -0.0988 -0.3364  2.1135
 4758TIP3   OH235764   2.293   2.860   1.387 -0.7179  0.3794 -0.3277
 4758TIP3    H135765   2.375   2.818   1.362 -0.3251 -0.1932  1.6832
 4758TIP3    H235766   2.320   2.926   1.452 -1.7095  1.2458 -0.7721
 4759TIP3   OH235767   3.688   1.249  15.980 -0.4769  0.3002  0.6366
 4759TIP3    H135768   3.678   1.185  16.050 -2.0069 -0.3931 -0.1683
 4759TIP3    H235769   3.626   1.319  16.002 -0.9602  0.0821  0.0110
 4760TIP3   OH235770   6.612   6.559  13.554 -0.0063 -0.0025 -0.1553
 4760TIP3    H135771   6.687   6.525  13.602 -1.0967 -2.2866  0.0558
 4760TIP3    H235772   6.610   6.652  13.576  2.2687 -0.0291  0.4375
 4761TIP3   OH235773   2.143   1.086   2.917 -0.5283 -0.5138  0.3313
 4761TIP3    H135774   2.125   0.994   2.896 -0.9234 -0.1027 -1.2588
 4761TIP3    H235775   2.238   1.090   2.927 -0.1211 -0.5906 -2.5990
 4762TIP3   OH235776   1.931   3.372   3.582 -0.0360  0.2138  0.0151
 4762TIP3    H135777   1.871   3.308   3.619 -1.3435  0.8542 -0.9227
 4762TIP3    H235778   2.018   3.333   3.593 -0.6636 -0.9958  0.8629
 4763TIP3   OH235779   0.869   3.915   6.396 -0.5241 -0.0656  0.3148
 4763TIP3    H135780   0.907   3.926   6.483  0.1811 -0.0210  0.0151
 4763TIP3    H235781   0.899   3.829   6.368 -1.2546 -0.3368  0.3557
 4764TIP3   OH235782   4.752   3.498  11.567 -0.1259 -0.1375  0.1698
 4764TIP3    H135783   4.755   3.430  11.499  0.3121 -0.0592  0.1073
 4764TIP3    H235784   4.662   3.496  11.598 -0.9508  1.2950 -1.9057
 4765TIP3   OH235785   3.050   4.944  11.770  0.1011 -0.4146 -0.1053
 4765TIP3    H135786   3.022   5.034  11.785  1.7736  0.2125 -0.5114
 4765TIP3    H235787   2.969   4.896  11.752 -0.6694  1.4324 -1.9231
 4766TIP3   OH235788   4.250   2.959   0.575  0.1890 -0.8111 -0.4617
 4766TIP3    H135789   4.202   2.892   0.625 -0.1184  0.8129  1.5457
 4766TIP3    H235790   4.338   2.958   0.612  0.4143 -0.6449 -0.9865
 4767TIP3   OH235791   3.838   4.296  14.249 -0.4342  0.0898  0.2477
 4767TIP3    H135792   3.748   4.287  14.280 -0.3008 -2.5308  0.0994
 4767TIP3    H235793   3.889   4.240  14.307  0.7564 -0.1869 -1.0163
 4768TIP3   OH235794   6.023   2.072   4.632 -0.0245  0.0240 -0.1793
 4768TIP3    H135795   5.958   2.019   4.678 -0.1491  0.7823  0.5513
 4768TIP3    H235796   6.008   2.161   4.663 -0.0295  0.5583 -1.6278
 4769TIP3   OH235797   3.441   5.495  14.600 -0.0046  0.3884  0.6856
 4769TIP3    H135798   3.449   5.582  14.639  0.8086  0.8411 -0.4590
 4769TIP3    H235799   3.529   5.472  14.574 -0.1106 -1.0655  1.5018
 4770TIP3   OH235800   4.603   5.256   2.477 -0.4898  0.4237 -0.4835
 4770TIP3    H135801   4.583   5.310   2.553  0.7045  0.3006 -0.0713
 4770TIP3    H235802   4.685   5.291   2.442  0.0800 -0.8229 -0.4718
 4771TIP3   OH235803   4.543   5.437  15.862 -0.4137  0.8128 -0.3939
 4771TIP3    H135804   4.523   5.515  15.810 -1.0577  1.0558  0.2124
 4771TIP3    H235805   4.515   5.363  15.807  1.3089  0.9069 -1.4963
 4772TIP3   OH235806   1.267   3.176  17.017  0.2364 -0.7251  0.3239
 4772TIP3    H135807   1.172   3.175  17.027  0.2084 -0.7573  0.0683
 4772TIP3    H235808   1.289   3.269  17.011  0.1038 -0.7430 -0.6445
 4773TIP3   OH235809   2.824   5.953  16.723  0.1942  0.3699  0.6189
 4773TIP3    H135810   2.740   5.908  16.713  0.2796  0.3480 -0.0250
 4773TIP3    H235811   2.819   6.027  16.663  0.9708 -0.1421 -0.1115
 4774TIP3   OH235812   1.124   1.951  17.312  0.1201  0.1037 -0.3059
 4774TIP3    H135813   1.159   1.995  17.234 -0.2671 -0.7173 -0.9570
 4774TIP3    H235814   1.198   1.905  17.350  0.3036  0.4807 -0.2058
 4775TIP3   OH235815   3.350   1.488  11.690  0.1535  0.3016  0.8008
 4775TIP3    H135816   3.399   1.504  11.771  0.9298  1.7253  0.0756
 4775TIP3    H235817   3.273   1.545  11.698 -0.9625 -1.2291  1.5118
 4776TIP3   OH235818   5.330   5.990   6.382  0.1894 -0.6461  0.2534
 4776TIP3    H135819   5.356   5.973   6.472 -1.5131 -1.4848  0.6156
 4776TIP3    H235820   5.332   6.086   6.375 -1.2594 -0.4774  1.7019
 4777TIP3   OH235821   5.104   3.611  12.913  0.9308  0.2878 -0.4841
 4777TIP3    H135822   5.027   3.555  12.904  0.3863  0.7448  0.9693
 4777TIP3    H235823   5.088   3.660  12.994  2.0104  1.5567 -1.0066
 4778TIP3   OH235824   0.889   3.504  15.221  0.0423  0.7551 -0.7370
 4778TIP3    H135825   0.808   3.510  15.272  0.0340  1.9464 -0.8567
 4778TIP3    H235826   0.884   3.419  15.178 -0.4264  0.1685  0.4390
 4779TIP3   OH235827   2.892   4.189  12.537 -0.1235  0.0045 -0.3214
 4779TIP3    H135828   2.850   4.105  12.553 -1.0364  0.2616 -1.2869
 4779TIP3    H235829   2.875   4.240  12.617 -1.2339 -0.0643 -0.4994
 4780TIP3   OH235830   5.075   1.672   3.462 -0.5194 -0.1268 -0.1848
 4780TIP3    H135831   5.100   1.590   3.504  1.7886  0.7713  0.3492
 4780TIP3    H235832   5.022   1.646   3.387  1.2895 -2.1965 -0.8370
 4781TIP3   OH235833   5.775   4.511  13.509 -0.3421 -0.2369  0.1656
 4781TIP3    H135834   5.721   4.588  13.526  0.7670  0.6330 -0.0854
 4781TIP3    H235835   5.811   4.526  13.421  0.4928 -0.6487  0.4213
 4782TIP3   OH235836   1.614   3.603   1.936 -0.9220 -0.0808  0.1065
 4782TIP3    H135837   1.561   3.530   1.967 -1.0642  0.2396  0.6130
 4782TIP3    H235838   1.657   3.568   1.857 -1.3512 -0.5569  0.0757
 4783TIP3   OH235839   5.364   5.420   1.442  0.5763  0.3861  0.0738
 4783TIP3    H135840   5.364   5.504   1.487  0.5463 -0.3732  1.5749
 4783TIP3    H235841   5.271   5.395   1.439  0.5585  0.5257 -0.6126
 4784TIP3   OH235842   2.941   6.188   4.377 -0.4112 -0.1861 -0.2184
 4784TIP3    H135843   2.996   6.196   4.299  0.8048 -1.9626  0.3958
 4784TIP3    H235844   2.998   6.218   4.448 -1.3471  0.9470  0.0800
 4785TIP3   OH235845   4.609   3.559   5.470  0.3570 -0.4234 -0.1942
 4785TIP3    H135846   4.573   3.597   5.551  0.2669 -0.7852 -0.0634
 4785TIP3    H235847   4.699   3.592   5.467  1.3076 -2.6082  1.5358
 4786TIP3   OH235848   4.679   6.469   2.000 -1.1240 -0.2945  0.0015
 4786TIP3    H135849   4.670   6.542   1.939 -2.8147  0.0851  0.6588
 4786TIP3    H235850   4.655   6.392   1.948 -0.8692 -0.1954 -0.2695
 4787TIP3   OH235851   6.759   1.887   0.206  0.5220 -0.1770 -0.1063
 4787TIP3    H135852   6.798   1.959   0.256 -0.0630 -0.1949  0.3936
 4787TIP3    H235853   6.671   1.877   0.244  0.6759 -1.2975 -0.0337
 4788TIP3   OH235854   6.696   1.450  17.162 -0.1715  0.4390  0.4901
 4788TIP3    H135855   6.715   1.361  17.192 -0.2981 -0.2455 -1.3831
 4788TIP3    H235856   6.640   1.439  17.085  0.9372  2.0736 -0.6137
 4789TIP3   OH235857   1.930   0.853   1.435 -0.4136 -0.0376 -0.1295
 4789TIP3    H135858   1.962   0.839   1.346  1.3405 -0.2770  0.5148
 4789TIP3    H235859   1.835   0.843   1.427 -0.2824 -0.3032 -1.9160
 4790TIP3   OH235860   5.768   1.029  12.396  0.0932  0.1671 -0.2119
 4790TIP3    H135861   5.687   1.019  12.445 -0.4079  0.5126 -0.9609
 4790TIP3    H235862   5.834   0.983  12.449 -0.6885 -0.5897  0.1234
 4791TIP3   OH235863   4.575   4.425  16.558  0.4795  0.7910  0.4390
 4791TIP3    H135864   4.636   4.494  16.532  0.6462  0.7187  0.6347
 4791TIP3    H235865   4.578   4.426  16.654 -0.8354  1.6887  0.4917
 4792TIP3   OH235866   5.416   2.624  13.093  0.1823 -0.1443 -0.0464
 4792TIP3    H135867   5.323   2.626  13.071 -0.0926 -1.1456  0.9055
 4792TIP3    H235868   5.461   2.642  13.011 -0.8548  1.2056 -0.3582
 4793TIP3   OH235869   1.768   4.390  13.970 -0.2995  0.3823  0.3708
 4793TIP3    H135870   1.789   4.472  13.924  0.3467  0.4070  0.6882
 4793TIP3    H235871   1.695   4.413  14.027 -0.1031  0.7471  0.4823
 4794TIP3   OH235872   0.586   1.758   2.720  0.4583 -0.6333  0.3765
 4794TIP3    H135873   0.548   1.703   2.789 -2.2170  0.5795 -0.0203
 4794TIP3    H235874   0.561   1.714   2.638  0.0813  0.0818  0.1027
 4795TIP3   OH235875   5.013   4.900  14.208  0.0090  0.5147 -0.1509
 4795TIP3    H135876   5.104   4.893  14.179  0.5322  2.0462  0.9702
 4795TIP3    H235877   4.992   4.813  14.241  0.3568 -0.4345 -2.3127
 4796TIP3   OH235878   2.451   2.625   2.932  0.0430  0.2972  0.4304
 4796TIP3    H135879   2.374   2.641   2.878  0.8809 -0.9908 -1.2270
 4796TIP3    H235880   2.468   2.531   2.924  3.1243  0.8394 -1.2763
 4797TIP3   OH235881   2.677   5.473  15.070 -0.4704  0.1118  0.5975
 4797TIP3    H135882   2.701   5.381  15.082 -1.9157 -0.2581  0.7350
 4797TIP3    H235883   2.702   5.515  15.152 -0.5735 -0.3147  0.8503
 4798TIP3   OH235884   4.418   0.830  11.837  0.8722 -0.7941 -0.7280
 4798TIP3    H135885   4.416   0.735  11.846 -1.2582 -0.6965  0.4793
 4798TIP3    H235886   4.422   0.845  11.742  0.0032 -2.1007 -0.9932
 4799TIP3   OH235887   3.342   5.181   2.528 -0.6119  0.2823 -0.6382
 4799TIP3    H135888   3.277   5.113   2.548 -1.0128  0.5362 -1.0436
 4799TIP3    H235889   3.424   5.133   2.518 -1.0304 -0.2571 -1.6894
 4800TIP3   OH235890   1.161   4.998  15.698 -0.3496 -0.1606 -0.4583
 4800TIP3    H135891   1.129   5.079  15.738  0.8431  0.9298 -1.6133
 4800TIP3    H235892   1.114   4.993  15.614  1.7875  1.0073 -1.7851
 4801TIP3   OH235893   2.425   1.032   4.772 -0.4098  0.1021  0.0071
 4801TIP3    H135894   2.440   1.037   4.867 -0.2621 -1.1404  0.0714
 4801TIP3    H235895   2.330   1.022   4.764 -0.3419 -0.7586  0.1004
 4802TIP3   OH235896   1.726   0.855  13.473 -0.4091  0.0421 -0.1148
 4802TIP3    H135897   1.693   0.783  13.420 -0.7908  1.7601 -2.3846
 4802TIP3    H235898   1.814   0.871  13.440  0.9460 -1.2999  2.5189
 4803TIP3   OH235899   5.085   6.199   0.281  0.1163  0.2935  0.3790
 4803TIP3    H135900   5.109   6.261   0.212 -0.2186 -1.2462 -1.1797
 4803TIP3    H235901   4.997   6.227   0.308 -0.7311 -0.4297 -1.4824
 4804TIP3   OH235902   3.388   3.366  14.668  0.6473  0.6076  0.1039
 4804TIP3    H135903   3.338   3.323  14.600  1.5967 -0.9433  0.3467
 4804TIP3    H235904   3.366   3.319  14.749  2.7237 -0.3990  0.1598
 4805TIP3   OH235905   2.073   5.574  15.022  0.6195 -0.0566  0.2253
 4805TIP3    H135906   2.098   5.664  15.042 -0.1532  0.5174 -1.2336
 4805TIP3    H235907   2.099   5.524  15.099  0.5265  1.5098  1.3204
 4806TIP3   OH235908   2.949   4.478   2.801 -0.0695 -0.1865 -0.0207
 4806TIP3    H135909   2.991   4.463   2.716 -0.7910  0.0664 -0.4339
 4806TIP3    H235910   2.933   4.572   2.803  1.9744  0.1948  1.3799
 4807TIP3   OH235911   4.923   5.712  14.403 -0.2291  0.3522  0.8825
 4807TIP3    H135912   4.960   5.736  14.318 -0.6658  1.5549  1.0205
 4807TIP3    H235913   4.888   5.624  14.389 -0.4979  0.6165 -0.2478
 4808TIP3   OH235914   4.312   0.942   2.206  0.4964 -0.3739 -0.0986
 4808TIP3    H135915   4.324   1.009   2.138 -0.2306  0.2142  0.3346
 4808TIP3    H235916   4.358   0.977   2.282  0.7120 -0.6966 -0.0838
 4809TIP3   OH235917   4.032   3.997  12.581 -0.3098  0.0598 -0.2955
 4809TIP3    H135918   3.961   4.060  12.576  1.6034  2.2611 -2.1357
 4809TIP3    H235919   4.040   3.962  12.492 -0.4133 -1.8053  0.3713
 4810TIP3   OH235920   0.918   2.576   1.861  0.2341  0.2505  0.2466
 4810TIP3    H135921   0.837   2.571   1.911  0.6119 -1.0328  0.7875
 4810TIP3    H235922   0.962   2.655   1.892  0.4427 -0.4977  1.9433
 4811TIP3   OH235923   0.040   0.150  13.004  0.0998  0.0773 -0.6151
 4811TIP3    H135924  -0.020   0.145  12.930 -0.8201  1.6568 -0.0341
 4811TIP3    H235925   0.095   0.226  12.985 -0.6522  0.9713  0.6366
 4812TIP3   OH235926   4.023   3.183   2.503 -0.3016 -0.2758 -0.3525
 4812TIP3    H135927   4.048   3.208   2.591 -1.5620 -0.6754  0.1480
 4812TIP3    H235928   4.057   3.253   2.447  0.1404  0.1971  0.5024
 4813TIP3   OH235929   0.635   2.165  12.310 -0.2985  0.9476  0.1034
 4813TIP3    H135930   0.603   2.076  12.293  2.4608 -0.4674  1.5960
 4813TIP3    H235931   0.595   2.188  12.394 -0.4864  0.8488  0.0428
 4814TIP3   OH235932   0.243   3.566  12.716 -0.3067  0.2412  0.6429
 4814TIP3    H135933   0.171   3.566  12.779 -0.2366  0.2987  0.7233
 4814TIP3    H235934   0.311   3.512  12.756 -1.3362 -2.1252 -0.6309
 4815TIP3   OH235935   5.804   2.217  14.483 -0.1049 -0.6383  0.3467
 4815TIP3    H135936   5.823   2.155  14.412  1.9404  0.4623 -0.1523
 4815TIP3    H235937   5.738   2.276  14.445  1.4261  0.3299 -0.9646
 4816TIP3   OH235938   1.621   0.748  15.589 -0.3035  0.3200  0.0390
 4816TIP3    H135939   1.695   0.807  15.576  0.4941 -0.9296 -1.2717
 4816TIP3    H235940   1.544   0.806  15.585  0.5321  1.5254  0.7028
 4817TIP3   OH235941   1.282   3.253  13.826 -0.2175 -0.3464 -0.2101
 4817TIP3    H135942   1.226   3.327  13.800  0.5326  0.5282  0.5834
 4817TIP3    H235943   1.260   3.184  13.763 -0.0660  0.9355 -1.7588
 4818TIP3   OH235944   0.399   1.684   1.801  0.4722 -0.1958 -0.1684
 4818TIP3    H135945   0.495   1.689   1.798  0.6709 -1.8287  1.5481
 4818TIP3    H235946   0.376   1.632   1.724  0.9104  0.5559 -0.8200
 4819TIP3   OH235947   5.740   0.565  16.198  0.4440 -0.0952  0.1017
 4819TIP3    H135948   5.651   0.553  16.163  0.4517 -1.0485  0.3820
 4819TIP3    H235949   5.781   0.479  16.189  2.0895  0.8242 -1.9992
 4820TIP3   OH235950   1.510   4.089   1.983 -0.0058 -0.1565 -0.0861
 4820TIP3    H135951   1.581   4.054   1.928  0.0348 -0.0907 -0.0753
 4820TIP3    H235952   1.485   4.016   2.039 -1.7788 -1.0653 -1.9167
 4821TIP3   OH235953   3.654   3.661  11.717 -0.0630 -0.3140 -0.2985
 4821TIP3    H135954   3.616   3.573  11.723  1.8727 -1.1051  1.1316
 4821TIP3    H235955   3.716   3.655  11.644 -0.3736  0.0566 -0.5954
 4822TIP3   OH235956   5.279   2.386  11.434 -0.6082 -0.2336 -0.4335
 4822TIP3    H135957   5.212   2.318  11.428 -0.9391  0.0446 -0.0018
 4822TIP3    H235958   5.240   2.461  11.389 -1.2152  0.3983  1.0677
 4823TIP3   OH235959   3.365   4.005   0.105 -0.2638 -0.5180  0.1413
 4823TIP3    H135960   3.306   3.931   0.087 -0.8059 -0.3755  1.2353
 4823TIP3    H235961   3.356   4.062   0.028  0.3668 -1.6998 -0.8380
 4824TIP3   OH235962   3.007   5.810   4.542 -0.2796  0.0813 -0.6748
 4824TIP3    H135963   2.946   5.881   4.519 -0.1973  0.0499 -0.9918
 4824TIP3    H235964   2.977   5.735   4.491  0.3331  0.2053 -1.2339
 4825TIP3   OH235965   5.735   0.463   5.036  0.3923 -0.2213 -0.0092
 4825TIP3    H135966   5.656   0.409   5.037 -0.5721  1.1420 -0.5879
 4825TIP3    H235967   5.785   0.431   4.961  0.8665 -1.6993  0.8875
 4826TIP3   OH235968   2.850   3.369  10.951  0.1719  0.1640  0.2882
 4826TIP3    H135969   2.771   3.412  10.982  0.5746 -0.0043  1.6179
 4826TIP3    H235970   2.862   3.402  10.861 -1.4947  0.0239 -0.0039
 4827TIP3   OH235971   3.698   0.674  16.699 -0.2775  0.1057  0.2208
 4827TIP3    H135972   3.616   0.627  16.717 -0.0376 -0.4355 -0.0639
 4827TIP3    H235973   3.736   0.691  16.785 -0.1480 -0.6308  0.3177
 4828TIP3   OH235974   0.054   2.914  13.569  0.1927 -0.2264  0.3384
 4828TIP3    H135975   0.024   2.964  13.494 -3.8676 -0.8748  1.2761
 4828TIP3    H235976   0.060   2.824  13.537  0.2985 -0.2245  0.3533
 4829TIP3   OH235977   4.431   5.125  15.204  0.0558 -0.0479  0.2797
 4829TIP3    H135978   4.520   5.118  15.170 -0.6528  0.2147 -1.7880
 4829TIP3    H235979   4.418   5.045  15.255  1.1571 -0.5437 -0.1851
 4830TIP3   OH235980   0.547   3.114  15.920  0.0840  0.0196 -0.4505
 4830TIP3    H135981   0.508   3.201  15.923  0.5287  0.2497 -1.0913
 4830TIP3    H235982   0.535   3.085  15.830  2.1059  0.4530 -0.9245
 4831TIP3   OH235983   6.341   1.637   0.940  0.2294 -0.3862 -0.5541
 4831TIP3    H135984   6.417   1.610   0.992 -0.1555  1.5669  1.1969
 4831TIP3    H235985   6.313   1.558   0.895  2.7086 -1.3810 -0.5183
 4832TIP3   OH235986   6.533   4.723   4.511  0.5625 -0.1734 -0.4606
 4832TIP3    H135987   6.578   4.662   4.570 -1.4741  0.3654  1.7976
 4832TIP3    H235988   6.560   4.810   4.540  0.2394  0.0944 -0.9413
 4833TIP3   OH235989   4.988   1.874   2.574 -0.0118  0.5081  0.0098
 4833TIP3    H135990   4.926   1.926   2.523 -0.3123  2.4370  2.1661
 4833TIP3    H235991   5.055   1.849   2.511 -2.5280 -1.0628 -2.2747
 4834TIP3   OH235992   2.057   2.064  14.661  0.3821  0.3483 -0.0282
 4834TIP3    H135993   2.114   1.990  14.683  1.6288  2.0248  2.9231
 4834TIP3    H235994   2.064   2.071  14.566  2.3363 -1.6621 -0.1332
 4835TIP3   OH235995   4.704   1.894   1.052 -0.3900  0.1445 -0.2285
 4835TIP3    H135996   4.733   1.979   1.085  1.9462 -0.5650 -0.2789
 4835TIP3    H235997   4.635   1.915   0.988 -2.2141  1.7524  2.0849
 4836TIP3   OH235998   2.198   3.357   6.405 -0.3728 -0.4026  0.0046
 4836TIP3    H135999   2.265   3.329   6.468 -0.5688 -0.1202  0.3441
 4836TIP3    H236000   2.117   3.318   6.438 -0.3344 -0.9925 -0.5712
 4837TIP3   OH236001   0.293   4.314   1.371 -0.1184 -0.7667  0.4736
 4837TIP3    H136002   0.291   4.275   1.283  0.2677 -0.1547  0.1873
 4837TIP3    H236003   0.233   4.388   1.366  0.4937 -0.2597  0.4896
 4838TIP3   OH236004   6.318   0.959   5.584 -0.1255 -0.1874 -0.2387
 4838TIP3    H136005   6.228   0.956   5.551 -0.6130  0.7156  0.9193
 4838TIP3    H236006   6.311   0.935   5.676  0.5494  1.5193  0.3132
 4839TIP3   OH236007   6.732   0.672  14.639  0.0652  0.4268 -0.7116
 4839TIP3    H136008   6.791   0.695  14.566  0.5150  1.5163 -0.0203
 4839TIP3    H236009   6.791   0.644  14.709 -0.1802  1.9581  0.1432
 4840TIP3   OH236010   5.891   2.087  11.114 -0.5720  0.1724  0.2911
 4840TIP3    H136011   5.925   2.044  11.036  0.2993 -2.8488  2.1970
 4840TIP3    H236012   5.884   2.180  11.089  0.1500 -0.5658 -3.1400
 4841TIP3   OH236013   3.263   0.422  11.250  0.3982  0.2120 -0.5127
 4841TIP3    H136014   3.318   0.378  11.315 -0.2013  0.4205  0.1434
 4841TIP3    H236015   3.237   0.352  11.189  0.3860 -0.1233 -0.1256
 4842TIP3   OH236016   0.907   3.122   2.317  0.1737 -0.3676  0.3977
 4842TIP3    H136017   0.896   3.173   2.237 -0.1711 -0.3728  0.4373
 4842TIP3    H236018   0.986   3.156   2.357 -1.5382  2.2011  1.9161
 4843TIP3   OH236019   1.660   1.876   2.203  0.1952 -0.2149 -0.1131
 4843TIP3    H136020   1.622   1.874   2.291  0.1789  0.7691 -0.0834
 4843TIP3    H236021   1.658   1.969   2.178  0.6352 -0.4211 -0.9595
 4844TIP3   OH236022   2.975   5.823   0.107  0.0152 -0.0440  0.1108
 4844TIP3    H136023   3.004   5.796   0.194  2.3982 -3.4972 -1.5185
 4844TIP3    H236024   2.955   5.741   0.061 -1.4425  1.6388 -2.5427
 4845TIP3   OH236025   0.355   5.800  14.341 -0.2809  0.0635  0.0644
 4845TIP3    H136026   0.266   5.823  14.315 -0.8090 -1.4764  0.3875
 4845TIP3    H236027   0.347   5.776  14.433  0.5441  0.2832  0.1962
 4846TIP3   OH236028   5.524   0.416  13.921 -0.3969  0.5541  0.6845
 4846TIP3    H136029   5.577   0.465  13.984  3.3268 -2.4155  0.2072
 4846TIP3    H236030   5.543   0.324  13.941 -3.3568 -0.6528 -1.3973
 4847TIP3   OH236031   0.935   2.624  15.096  0.3085  0.2773  0.0765
 4847TIP3    H136032   1.024   2.650  15.119  1.0967 -1.4908 -0.7444
 4847TIP3    H236033   0.900   2.586  15.177  0.7348 -0.0518  0.1121
 4848TIP3   OH236034   3.474   4.101   4.060  0.1298  0.1911  0.2061
 4848TIP3    H136035   3.518   4.079   3.978  0.6248  1.7141  0.0432
 4848TIP3    H236036   3.516   4.045   4.126 -0.9371 -1.7680 -0.6932
 4849TIP3   OH236037   5.740   3.008   0.869  0.3695  0.8695  0.7011
 4849TIP3    H136038   5.830   3.002   0.834 -0.0338  1.3942 -0.5042
 4849TIP3    H236039   5.735   3.096   0.906  0.4318  0.7387  1.0245
 4850TIP3   OH236040   2.320   4.610  15.931 -0.3910  0.2621  0.9490
 4850TIP3    H136041   2.288   4.553  15.862  0.1332  0.9307  0.1375
 4850TIP3    H236042   2.241   4.642  15.974 -1.0707  3.0814 -1.9770
 4851TIP3   OH236043   2.125   1.564   6.031  0.0444 -0.1361  1.1251
 4851TIP3    H136044   2.078   1.481   6.044  1.0888 -0.7879  0.8672
 4851TIP3    H236045   2.137   1.599   6.119  0.2356 -0.6208  1.2934
 4852TIP3   OH236046   3.410   5.534  13.886  0.0197  0.0734 -0.5587
 4852TIP3    H136047   3.465   5.518  13.963 -0.9900  3.1296  0.9602
 4852TIP3    H236048   3.472   5.551  13.815  1.1676  2.7461  0.9514
 4853TIP3   OH236049   1.631   4.041  15.295  0.5717 -0.1081  0.1236
 4853TIP3    H136050   1.676   3.971  15.342 -0.1797 -0.5892  0.1318
 4853TIP3    H236051   1.595   3.999  15.217  1.1815  0.5351 -0.5193
 4854TIP3   OH236052   6.020   1.973  12.457 -0.3037  0.2494 -0.0409
 4854TIP3    H136053   5.954   1.912  12.424 -0.6052 -0.2095  1.3492
 4854TIP3    H236054   6.058   1.929  12.532  0.3682  1.2477  0.2247
 4855TIP3   OH236055   0.935   2.594  14.047 -0.0745 -0.2719 -0.0865
 4855TIP3    H136056   0.879   2.526  14.083 -0.6141  0.4263  0.4254
 4855TIP3    H236057   0.884   2.634  13.977 -0.9482  1.4732  1.4569
 4856TIP3   OH236058   4.629   4.538   4.957  0.1715  0.3413 -0.0052
 4856TIP3    H136059   4.641   4.444   4.949  0.5535  0.3454  0.4519
 4856TIP3    H236060   4.692   4.565   5.024 -0.3390  0.8302  0.2922
 4857TIP3   OH236061   5.362   4.982  14.001 -0.1755 -0.3438 -0.0857
 4857TIP3    H136062   5.364   5.070  14.039 -0.0583 -0.0835 -0.6798
 4857TIP3    H236063   5.353   4.997  13.907  1.8297 -0.9223 -0.4111
 4858TIP3   OH236064   5.545   5.280  15.557  0.6309 -0.1448 -0.3128
 4858TIP3    H136065   5.576   5.319  15.475  0.9336 -0.3862 -0.3168
 4858TIP3    H236066   5.464   5.326  15.577  0.5583 -0.0847 -0.7482
 4859TIP3   OH236067   2.611   1.995  15.981  1.3595 -0.5158 -0.0887
 4859TIP3    H136068   2.572   2.020  16.065 -0.3843 -0.8556 -0.7418
 4859TIP3    H236069   2.593   1.902  15.974  0.0903 -0.2020 -1.4906
 4860TIP3   OH236070   0.392   1.404  16.323  0.0730  0.3637 -0.2176
 4860TIP3    H136071   0.333   1.336  16.355 -0.2253 -0.2360 -1.9158
 4860TIP3    H236072   0.460   1.356  16.276  1.3502  1.1111  0.8245
 4861TIP3   OH236073   2.330   4.209  16.479 -0.2642  0.3547  0.3751
 4861TIP3    H136074   2.261   4.145  16.493 -0.6580  1.2866  3.1354
 4861TIP3    H236075   2.330   4.223  16.384  0.7642 -4.6174 -0.6736
 4862TIP3   OH236076   5.036   2.540  13.409 -0.7067 -0.1945 -0.0295
 4862TIP3    H136077   5.032   2.621  13.358 -1.3180  0.0486  0.3920
 4862TIP3    H236078   4.995   2.474  13.353 -1.6291  0.1312  0.2552
 4863TIP3   OH236079   5.507   2.093  15.187  0.6805 -0.3371  0.6816
 4863TIP3    H136080   5.585   2.137  15.152 -0.6329  1.0683 -0.6600
 4863TIP3    H236081   5.443   2.163  15.197 -1.2768 -1.7814 -0.8150
 4864TIP3   OH236082   6.605   1.297  16.042 -0.5208  0.4254  0.5215
 4864TIP3    H136083   6.641   1.380  16.072  0.2271  0.4779 -0.4847
 4864TIP3    H236084   6.536   1.321  15.981 -1.4571  0.3082  1.5032
 4865TIP3   OH236085   3.885   1.404  16.271 -0.4038  0.3704  0.0279
 4865TIP3    H136086   3.881   1.480  16.330 -2.1219 -0.7251  1.3989
 4865TIP3    H236087   3.970   1.363  16.291  0.3440  1.6319 -0.4072
 4866TIP3   OH236088   3.310   2.947  11.562 -0.5696  0.8505  0.1087
 4866TIP3    H136089   3.247   3.017  11.576 -1.9438 -0.2625 -0.2409
 4866TIP3    H236090   3.298   2.921  11.471  0.2960  0.5050  0.0754
 4867TIP3   OH236091   0.723   2.690  13.119  0.7126 -0.8752 -0.2324
 4867TIP3    H136092   0.795   2.737  13.077 -0.4177  1.2408  0.0822
 4867TIP3    H236093   0.686   2.636  13.049  1.0578 -0.0959 -1.0346
 4868TIP3   OH236094   1.214   6.217   4.981 -0.3005 -0.3933 -0.4401
 4868TIP3    H136095   1.233   6.272   5.057  0.5275 -0.3763 -0.6477
 4868TIP3    H236096   1.139   6.164   5.007  0.8817 -1.4552  0.9356
 4869TIP3   OH236097   2.517   2.536  11.782 -0.1358  0.0414 -0.3684
 4869TIP3    H136098   2.527   2.626  11.811 -2.3480  0.8796 -1.9012
 4869TIP3    H236099   2.479   2.543  11.694 -1.1938 -2.3827 -0.1965
 4870TIP3   OH236100   2.219   4.752  16.491  0.1080  0.2018  0.1839
 4870TIP3    H136101   2.236   4.685  16.424  0.0703  1.6630 -1.3746
 4870TIP3    H236102   2.244   4.712  16.573 -2.2649 -2.6515 -0.3140
 4871TIP3   OH236103   1.857   2.432   2.546 -0.0249 -0.2670 -0.0235
 4871TIP3    H136104   1.907   2.373   2.602  1.6426 -0.4084 -1.5623
 4871TIP3    H236105   1.800   2.374   2.495 -1.7401 -0.1162  1.6431
 4872TIP3   OH236106   0.917   3.146   6.280  0.3551  0.0610  0.1359
 4872TIP3    H136107   0.845   3.092   6.313  0.7831  0.7256  2.3536
 4872TIP3    H236108   0.996   3.103   6.314  0.7229  1.7811  1.6428
 4873TIP3   OH236109   5.068   3.323   3.417 -0.4786  0.1047 -0.2027
 4873TIP3    H136110   5.041   3.323   3.509  0.2253 -0.5198  0.0092
 4873TIP3    H236111   5.131   3.395   3.411  0.6942 -0.8749  0.1783
 4874TIP3   OH236112   4.878   1.477   4.058  0.2960  0.2020  0.2638
 4874TIP3    H136113   4.797   1.518   4.028  0.2944 -0.9472 -1.4237
 4874TIP3    H236114   4.865   1.384   4.042  1.4344 -0.1466  1.2466
 4875TIP3   OH236115   0.426   5.252   0.139 -0.1196 -0.5548  0.0450
 4875TIP3    H136116   0.473   5.222   0.061 -1.1997  0.2077 -0.9244
 4875TIP3    H236117   0.338   5.271   0.108 -0.6335 -0.4507  1.5128
 4876TIP3   OH236118   3.848   6.537  17.505 -0.2795  0.5600 -0.1013
 4876TIP3    H136119   3.826   6.536  17.598  1.8039 -2.1419  0.4758
 4876TIP3    H236120   3.810   6.457  17.470 -0.9811  1.5154 -1.5907
 4877TIP3   OH236121   0.213   6.206   1.650  0.3136 -0.2588  0.3857
 4877TIP3    H136122   0.250   6.129   1.605  0.0865  0.0699 -0.3718
 4877TIP3    H236123   0.282   6.271   1.646  0.2247 -0.1667  0.3564
 4878TIP3   OH236124   5.382   6.583  13.997 -0.1125 -0.5663  0.0134
 4878TIP3    H136125   5.432   6.517  14.045 -0.0437 -1.4397 -1.2103
 4878TIP3    H236126   5.446   6.621  13.936 -0.4654 -0.2842 -0.1832
 4879TIP3   OH236127   0.939   0.552   6.692  0.5015 -0.5171  0.0700
 4879TIP3    H136128   0.869   0.539   6.628  0.8610 -2.4846  0.0012
 4879TIP3    H236129   0.941   0.470   6.742  1.8829  0.0142  0.9482
 4880TIP3   OH236130   6.674   4.147   2.352 -0.7335  0.3118 -0.0288
 4880TIP3    H136131   6.682   4.233   2.394  1.2555  0.7846 -1.2439
 4880TIP3    H236132   6.759   4.105   2.365 -0.7348 -0.3392 -1.7506
 4881TIP3   OH236133   5.792   1.767  15.649 -0.2567 -0.1654 -0.5016
 4881TIP3    H136134   5.804   1.837  15.713  2.4467 -0.6858 -0.3155
 4881TIP3    H236135   5.750   1.696  15.698  0.0255  0.1296  0.1778
 4882TIP3   OH236136   2.407   3.790   1.029  0.2184 -0.7722  0.0389
 4882TIP3    H136137   2.371   3.856   1.089 -1.7418 -2.8207  1.2664
 4882TIP3    H236138   2.466   3.738   1.084 -0.3492 -1.6731 -0.1847
 4883TIP3   OH236139   6.185   1.145   0.752  0.1134 -0.2017 -0.1820
 4883TIP3    H136140   6.113   1.167   0.811  0.3014 -0.6204  0.2074
 4883TIP3    H236141   6.260   1.193   0.786  0.3197 -0.7653  0.1636
 4884TIP3   OH236142   4.578   4.099   0.335 -0.5361  0.2868  0.1862
 4884TIP3    H136143   4.542   4.168   0.278  0.5920  1.2999  0.6443
 4884TIP3    H236144   4.511   4.086   0.402 -0.2467  1.9024  0.8369
 4885TIP3   OH236145   1.769   3.482   0.519  0.3153  0.3394 -0.3950
 4885TIP3    H136146   1.821   3.460   0.596 -0.7975 -0.8321  0.0467
 4885TIP3    H236147   1.702   3.542   0.551  0.4017  0.5751 -0.6465
 4886TIP3   OH236148   4.749   0.393  11.050 -0.4972 -0.0050 -0.0480
 4886TIP3    H136149   4.671   0.450  11.050 -1.1146 -0.8219 -0.7116
 4886TIP3    H236150   4.781   0.398  10.959  0.0413  0.0611  0.1420
 4887TIP3   OH236151   0.117   0.746  15.151  0.3582 -0.5601 -0.3117
 4887TIP3    H136152   0.155   0.695  15.222  0.2787 -3.0664 -1.9550
 4887TIP3    H236153   0.191   0.772  15.097  0.1801 -1.6273 -1.1123
 4888TIP3   OH236154   6.178   2.731  17.192 -0.1329 -0.2127 -0.2207
 4888TIP3    H136155   6.119   2.705  17.121  0.0558 -1.7148  0.1244
 4888TIP3    H236156   6.164   2.664  17.259  0.7189  0.3900  0.5756
 4889TIP3   OH236157   4.571   4.591  15.403 -0.1037  0.4138  0.4085
 4889TIP3    H136158   4.609   4.674  15.373 -0.2302  0.0039 -0.9522
 4889TIP3    H236159   4.479   4.596  15.379 -0.0174 -0.3057 -0.0926
 4890TIP3   OH236160   6.755   3.831   1.942  0.1938 -0.6222  0.3718
 4890TIP3    H136161   6.718   3.902   1.890  1.8261 -0.1716 -0.2044
 4890TIP3    H236162   6.812   3.784   1.882  1.4612 -0.6055  1.5157
 4891TIP3   OH236163   6.161   3.632  15.419  0.0373 -0.1030 -0.3602
 4891TIP3    H136164   6.190   3.685  15.344  3.1617  0.3944  1.0312
 4891TIP3    H236165   6.223   3.558  15.421 -0.4282 -0.4924  1.2995
 4892TIP3   OH236166   5.120   0.764   2.496 -0.8277 -0.3015  0.5289
 4892TIP3    H136167   5.129   0.704   2.422 -0.6676 -1.3908  1.3864
 4892TIP3    H236168   5.121   0.706   2.573  1.2585  0.9465  1.5098
 4893TIP3   OH236169   0.412   1.205  10.550  0.1794  0.0852 -0.4567
 4893TIP3    H136170   0.466   1.200  10.629 -0.5448 -0.1429  0.0331
 4893TIP3    H236171   0.471   1.178  10.480  0.2508 -1.8071  0.2765
 4894TIP3   OH236172   5.065   3.308  16.268 -0.1006 -0.3366  0.1270
 4894TIP3    H136173   5.143   3.336  16.220 -1.0668 -0.4422 -1.5794
 4894TIP3    H236174   5.047   3.380  16.328 -0.2090  0.9128 -1.3465
 4895TIP3   OH236175   5.022   0.774  11.774 -0.1668 -0.1119 -0.2091
 4895TIP3    H136176   4.963   0.698  11.770 -0.8293  0.4366 -1.5885
 4895TIP3    H236177   5.079   0.765  11.698 -0.3776  0.8602 -0.5002
 4896TIP3   OH236178   1.182   1.046   4.701  0.3661 -0.1642  0.1746
 4896TIP3    H136179   1.181   1.142   4.702  2.8962 -0.0774  0.4325
 4896TIP3    H236180   1.149   1.023   4.614 -1.1548  0.8638  0.4369
 4897TIP3   OH236181   1.074   0.817  14.505 -0.1981  0.0881  0.1202
 4897TIP3    H136182   1.048   0.741  14.556 -1.5384  1.1658  1.1414
 4897TIP3    H236183   1.093   0.885  14.570 -0.2421  0.9819 -0.7672
 4898TIP3   OH236184   4.458   4.018  14.414 -0.1940  0.2491  0.1272
 4898TIP3    H136185   4.436   4.062  14.496 -0.8111 -0.8123  0.5603
 4898TIP3    H236186   4.542   3.976  14.431 -0.0221  0.5457  0.0063
 4899TIP3   OH236187   6.769   2.940   4.319  0.0526 -0.1525 -0.0806
 4899TIP3    H136188   6.814   3.003   4.263 -0.9703  0.8222  0.1623
 4899TIP3    H236189   6.839   2.896   4.366  0.8002  0.7752 -0.2874
 4900TIP3   OH236190   1.774   5.169   4.132  0.1874  0.5326 -0.2569
 4900TIP3    H136191   1.819   5.108   4.191  2.9810  1.2742 -1.4695
 4900TIP3    H236192   1.743   5.114   4.060 -0.9049  0.0156  0.5754
 4901TIP3   OH236193   4.569   3.893   3.841 -0.4225  0.0426  0.2188
 4901TIP3    H136194   4.656   3.861   3.817 -0.9816 -1.3693  0.0089
 4901TIP3    H236195   4.545   3.952   3.770 -0.4381 -1.0746 -0.7223
 4902TIP3   OH236196   5.892   0.867  11.856 -0.0434 -0.0348  0.0951
 4902TIP3    H136197   5.922   0.952  11.889 -1.9684  0.9164 -0.4434
 4902TIP3    H236198   5.937   0.803  11.911 -2.4320  1.4069  4.1849
 4903TIP3   OH236199   6.717   2.097   3.568 -0.1027  0.0276 -0.2161
 4903TIP3    H136200   6.657   2.093   3.493  0.5218 -0.6964 -0.6926
 4903TIP3    H236201   6.691   2.176   3.616 -1.0775  0.0205 -0.7126
 4904TIP3   OH236202   4.582   4.637   5.281  0.5967  0.2518  0.7012
 4904TIP3    H136203   4.512   4.674   5.228 -0.2343 -0.0059  1.5969
 4904TIP3    H236204   4.539   4.608   5.361  1.5655 -0.7725  0.8765
 4905TIP3   OH236205   4.036   5.729   3.937 -0.3751  0.2820  0.2806
 4905TIP3    H136206   4.089   5.806   3.920  0.4024 -0.4155 -0.5703
 4905TIP3    H236207   3.947   5.762   3.948  0.1361  1.4099  1.1710
 4906TIP3   OH236208   0.181   5.300  12.056 -0.5866  0.0649 -0.1080
 4906TIP3    H136209   0.190   5.309  12.151 -1.2604 -0.4358  0.0107
 4906TIP3    H236210   0.092   5.268  12.043  0.3351 -2.4874 -0.7280
 4907TIP3   OH236211   5.309   6.119  14.053 -0.6920  0.1650  0.0159
 4907TIP3    H136212   5.218   6.123  14.023 -1.2944  1.0671  1.8334
 4907TIP3    H236213   5.327   6.026  14.060 -1.2281 -0.0405 -1.0259
 4908TIP3   OH236214   3.371   0.622  13.295  0.0342 -0.2363 -0.5952
 4908TIP3    H136215   3.309   0.694  13.295 -1.2918 -1.3330  0.0705
 4908TIP3    H236216   3.394   0.609  13.387  0.2085 -0.7069 -0.7000
 4909TIP3   OH236217   1.563   2.533   3.883 -0.0695  0.0860 -0.1608
 4909TIP3    H136218   1.587   2.615   3.839  0.2919 -0.4988 -1.0833
 4909TIP3    H236219   1.641   2.478   3.874 -0.9033 -0.9862 -1.0820
 4910TIP3   OH236220   3.805   1.147  13.784  0.0128 -0.2539 -0.8325
 4910TIP3    H136221   3.818   1.145  13.689  0.1781 -1.1036 -0.8036
 4910TIP3    H236222   3.840   1.063  13.814  0.9218  0.4379  0.1053
 4911TIP3   OH236223   5.703   2.744  17.112 -0.1991 -0.4794 -0.0140
 4911TIP3    H136224   5.776   2.682  17.115 -0.9530 -1.4012  0.0360
 4911TIP3    H236225   5.625   2.689  17.121 -0.8858  0.5201  0.3715
 4912TIP3   OH236226   4.926   0.672   6.072  0.4773 -0.1870 -0.3883
 4912TIP3    H136227   4.927   0.728   6.150 -0.5490 -0.2073 -0.3479
 4912TIP3    H236228   4.956   0.587   6.104  1.1692  0.1007 -0.2598
 4913TIP3   OH236229   3.636   0.749   1.039 -0.4460  0.0747  0.6504
 4913TIP3    H136230   3.712   0.808   1.045 -1.1631  0.9201  2.1485
 4913TIP3    H236231   3.660   0.686   0.971  0.7845  1.4776 -0.2946
 4914TIP3   OH236232   5.795   1.901  16.917 -0.1417  0.1520 -0.0439
 4914TIP3    H136233   5.705   1.883  16.892 -0.1286 -1.3543  0.8673
 4914TIP3    H236234   5.795   1.895  17.013  0.8853  0.3265 -0.0198
 4915TIP3   OH236235   5.757   6.065   0.337  0.2332  0.2805  0.1137
 4915TIP3    H136236   5.819   6.040   0.406 -0.9158 -0.8175  0.7918
 4915TIP3    H236237   5.675   6.082   0.384 -0.4416  0.0135 -0.9326
 4916TIP3   OH236238   4.029   0.713   3.069  0.3629  0.5393 -0.5283
 4916TIP3    H136239   3.948   0.681   3.029  0.1678 -0.7232  0.8023
 4916TIP3    H236240   4.048   0.794   3.022 -0.5645 -0.1741 -2.2521
 4917TIP3   OH236241   0.848   4.664  16.510 -0.1387  0.3520  0.0814
 4917TIP3    H136242   0.892   4.658  16.595  1.9275  0.8073 -0.8941
 4917TIP3    H236243   0.816   4.754  16.506 -0.8641  0.1337  0.6266
 4918TIP3   OH236244   6.652   4.613   3.506  0.5275 -0.3845  0.0444
 4918TIP3    H136245   6.695   4.698   3.503  0.8804 -0.4982  1.3614
 4918TIP3    H236246   6.694   4.567   3.579 -0.0229 -1.4911 -0.3017
 4919TIP3   OH236247   1.086   4.877   6.180  0.2121 -0.0632 -0.1411
 4919TIP3    H136248   0.998   4.850   6.205  0.3157 -0.9381 -0.6938
 4919TIP3    H236249   1.091   4.969   6.207 -0.8557 -0.0124 -0.0693
 4920TIP3   OH236250   0.118   4.491  10.692  0.4574  0.4664  0.2366
 4920TIP3    H136251   0.065   4.570  10.688  2.9115  2.2120 -0.2306
 4920TIP3    H236252   0.180   4.507  10.764  0.5618 -1.3726  0.6254
 4921TIP3   OH236253   0.170   5.081  17.127 -0.3693 -0.1753 -0.3666
 4921TIP3    H136254   0.196   4.995  17.160  0.0533  0.4913  1.1214
 4921TIP3    H236255   0.143   5.130  17.205  0.4761  1.4107 -1.0169
 4922TIP3   OH236256   0.845   6.294  15.538 -0.2559 -0.6042  0.2801
 4922TIP3    H136257   0.782   6.274  15.607 -0.7049  1.8102  0.6705
 4922TIP3    H236258   0.927   6.255  15.568 -0.4853  0.2120  2.1061
 4923TIP3   OH236259   5.420   0.704   1.475 -0.3228 -0.1530 -0.1104
 4923TIP3    H136260   5.332   0.739   1.462 -0.4740 -1.3770 -3.0030
 4923TIP3    H236261   5.407   0.611   1.495  0.2905 -0.2691 -0.2090
 4924TIP3   OH236262   4.921   1.713  15.135 -0.2860  0.6454  0.1732
 4924TIP3    H136263   4.868   1.793  15.137 -1.7556 -0.2753 -0.3442
 4924TIP3    H236264   4.934   1.695  15.042 -1.6004 -0.7075  0.2040
 4925TIP3   OH236265   5.284   1.306  17.251 -0.5953 -0.3684 -0.1256
 4925TIP3    H136266   5.192   1.331  17.260 -0.6701  0.1249 -1.8898
 4925TIP3    H236267   5.333   1.382  17.283 -0.8047 -0.4066  0.2852
 4926TIP3   OH236268   1.186   4.383  12.907  0.6189  0.3137  0.5112
 4926TIP3    H136269   1.106   4.435  12.914  1.5934  1.7898  0.9313
 4926TIP3    H236270   1.173   4.311  12.969 -1.6814 -1.3271 -1.6689
 4927TIP3   OH236271   2.784   3.404   6.069 -0.3726 -0.3901  0.6408
 4927TIP3    H136272   2.776   3.388   6.163  2.3293 -1.3876  0.7777
 4927TIP3    H236273   2.760   3.321   6.028 -0.7044 -0.2185  0.4797
 4928TIP3   OH236274   0.114   1.608   2.857 -0.4236  0.5231 -0.1268
 4928TIP3    H136275   0.095   1.701   2.854 -0.9183  0.4506  0.5106
 4928TIP3    H236276   0.029   1.566   2.867 -0.2273 -0.0160 -0.6402
 4929TIP3   OH236277   4.219   0.439   3.623  0.5353  0.1759 -0.4496
 4929TIP3    H136278   4.162   0.397   3.688  2.4277 -1.0225  0.5534
 4929TIP3    H236279   4.247   0.520   3.665  1.7834 -0.6137  0.3201
 4930TIP3   OH236280   5.481   4.994   5.449 -0.3049 -0.2049  0.0896
 4930TIP3    H136281   5.413   4.927   5.451  0.4281 -0.9625  1.3038
 4930TIP3    H236282   5.558   4.951   5.489  1.1780  0.3126 -2.0274
 4931TIP3   OH236283   4.193   2.694   2.364 -0.1911 -0.3332 -0.0887
 4931TIP3    H136284   4.187   2.667   2.273 -1.3770 -0.9788  0.1701
 4931TIP3    H236285   4.231   2.782   2.361  1.2050 -0.9418 -1.1035
 4932TIP3   OH236286   3.621   1.168   4.342  0.4181 -0.3164 -0.0945
 4932TIP3    H136287   3.685   1.129   4.402  0.1427  1.1621  1.2520
 4932TIP3    H236288   3.645   1.260   4.339 -0.5115 -0.0927 -1.0797
 4933TIP3   OH236289   0.426   1.580   2.226  0.1822 -0.7188  0.1468
 4933TIP3    H136290   0.338   1.605   2.254  0.7191  1.5443 -0.0201
 4933TIP3    H236291   0.420   1.485   2.213 -3.0837 -0.3384 -2.7859
 4934TIP3   OH236292   4.629   0.311   5.932  0.3278 -0.0311 -0.3490
 4934TIP3    H136293   4.619   0.301   6.026 -0.3444  2.0234 -0.1734
 4934TIP3    H236294   4.651   0.403   5.918 -0.7468  0.0140 -2.2556
 4935TIP3   OH236295   2.935   3.900   4.073 -0.6356  0.2104  0.0920
 4935TIP3    H136296   3.005   3.840   4.044  0.0076  2.1741 -2.8188
 4935TIP3    H236297   2.886   3.920   3.993 -1.8897  2.2210  1.2914
 4936TIP3   OH236298   6.357   0.530   6.088 -0.1864  0.4000  0.2861
 4936TIP3    H136299   6.340   0.448   6.133  0.9311  0.8543  1.5846
 4936TIP3    H236300   6.452   0.542   6.094 -0.0998  0.8744 -1.5205
 4937TIP3   OH236301   3.528   3.878   5.125 -0.3351 -0.4057 -0.0559
 4937TIP3    H136302   3.535   3.969   5.096 -0.8119  0.1309  1.4208
 4937TIP3    H236303   3.536   3.827   5.044  1.5210  0.8578 -0.7471
 4938TIP3   OH236304   0.284   0.735   3.031 -0.7806 -0.2438 -0.2717
 4938TIP3    H136305   0.261   0.774   2.947  0.1651 -1.0500 -0.9248
 4938TIP3    H236306   0.260   0.801   3.096 -3.2503 -0.3409 -1.0030
 4939TIP3   OH236307   4.620   3.058  11.475 -0.0490  0.1199 -0.2036
 4939TIP3    H136308   4.610   2.985  11.413 -0.6089 -0.8263  0.9560
 4939TIP3    H236309   4.676   3.023  11.545 -0.3079  0.8022  0.3575
 4940TIP3   OH236310   3.613   5.899  15.999 -0.0158 -0.2726 -0.0392
 4940TIP3    H136311   3.518   5.906  15.990 -0.3976 -2.0718  1.8579
 4940TIP3    H236312   3.626   5.855  16.082  2.5424  0.6122  0.1117
 4941TIP3   OH236313   2.765   5.751   1.293  0.2687  0.5342 -0.6148
 4941TIP3    H136314   2.823   5.691   1.247  0.9235 -0.7969  1.7901
 4941TIP3    H236315   2.818   5.786   1.364 -1.2473  0.9606  0.3459
 4942TIP3   OH236316   2.130   1.859  13.153 -0.3877 -0.0433  0.1480
 4942TIP3    H136317   2.106   1.806  13.077  0.5744 -1.8816  1.0412
 4942TIP3    H236318   2.224   1.872  13.143 -0.6092  1.5563 -0.0464
 4943TIP3   OH236319   5.299   0.532  14.162 -0.0561  0.2831 -1.0982
 4943TIP3    H136320   5.260   0.550  14.077 -0.3283 -0.4949 -1.1527
 4943TIP3    H236321   5.368   0.469  14.143 -0.4303 -0.2609 -0.6970
 4944TIP3   OH236322   2.846   1.661   2.134  0.2057  0.4556  0.1343
 4944TIP3    H136323   2.756   1.641   2.108  0.7769  0.2797 -1.8446
 4944TIP3    H236324   2.900   1.608   2.077  1.6025  1.2070  0.7034
 4945TIP3   OH236325   1.778   0.545   2.838 -0.3111  0.3274 -0.3620
 4945TIP3    H136326   1.833   0.618   2.811 -1.0532  1.1072  0.2122
 4945TIP3    H236327   1.828   0.467   2.813  0.1049  1.0162 -1.7355
 4946TIP3   OH236328   0.585   0.909   3.368  0.1745  0.6151  0.0740
 4946TIP3    H136329   0.502   0.939   3.331 -1.4893 -1.8393  1.5412
 4946TIP3    H236330   0.633   0.875   3.293 -0.6241  1.0332 -0.6462
 4947TIP3   OH236331   6.284   1.784   0.568  0.3152  0.1202 -0.2824
 4947TIP3    H136332   6.196   1.821   0.558  0.2380  0.2611  0.8449
 4947TIP3    H236333   6.269   1.691   0.588  0.3407  0.4535  1.4559
 4948TIP3   OH236334   0.200   5.250   1.248 -0.2695 -0.8319  0.3857
 4948TIP3    H136335   0.131   5.211   1.193 -1.3949 -0.4541  1.4992
 4948TIP3    H236336   0.160   5.259   1.334  1.2461 -0.7560  1.1045
 4949TIP3   OH236337   3.353   4.483  13.324 -0.2879 -0.4985  0.4636
 4949TIP3    H136338   3.343   4.388  13.330  0.2590 -0.6750 -1.0386
 4949TIP3    H236339   3.303   4.517  13.398 -0.1591 -1.9687  1.2579
 4950TIP3   OH236340   1.813   1.272   0.302  0.7410 -0.3183 -0.3414
 4950TIP3    H136341   1.853   1.256   0.217 -0.6843  0.0146 -1.1178
 4950TIP3    H236342   1.806   1.186   0.343  2.6675 -0.3238  0.0503
 4951TIP3   OH236343   3.850   3.700  16.859  0.1472 -0.1850  0.4177
 4951TIP3    H136344   3.838   3.677  16.767 -0.7013 -0.7103  0.6523
 4951TIP3    H236345   3.933   3.658  16.883  1.3905  1.5549 -0.5981
 4952TIP3   OH236346   6.042   5.024  12.949  0.2468  0.0349 -0.4094
 4952TIP3    H136347   6.015   4.992  12.862 -0.4988  0.9861 -0.5584
 4952TIP3    H236348   6.055   5.118  12.936  1.0028  0.0350  0.3159
 4953TIP3   OH236349   0.925   2.086  12.203 -0.5011 -0.2187  0.0328
 4953TIP3    H136350   0.856   2.138  12.245  0.9076  0.8640  1.0725
 4953TIP3    H236351   0.927   2.005  12.254 -2.1021 -1.0143 -1.0541
 4954TIP3   OH236352   6.015   0.475   3.574  0.3318  0.2585  0.7835
 4954TIP3    H136353   5.962   0.520   3.640  0.8338  0.6904  0.8956
 4954TIP3    H236354   6.060   0.545   3.527 -0.6418  0.0240 -0.5883
 4955TIP3   OH236355   5.001   3.409  14.368  0.3167 -0.5732  0.1487
 4955TIP3    H136356   4.907   3.391  14.365  0.2459 -0.2180  0.1801
 4955TIP3    H236357   5.042   3.323  14.360  0.0259 -0.5796 -1.9643
 4956TIP3   OH236358   1.331   4.582  10.945  0.2112 -0.3750  0.0685
 4956TIP3    H136359   1.321   4.531  10.865 -0.3790 -1.3761  0.7583
 4956TIP3    H236360   1.424   4.577  10.965  0.4576  0.3190 -0.8151
 4957TIP3   OH236361   2.987   4.798   2.643 -0.4378  0.0700 -0.2437
 4957TIP3    H136362   2.949   4.811   2.730 -1.8845 -1.1378 -0.6602
 4957TIP3    H236363   2.912   4.779   2.586  0.4467  1.0115 -1.8173
 4958TIP3   OH236364   6.441   4.592   5.677  0.3064 -0.0317 -0.5527
 4958TIP3    H136365   6.528   4.618   5.707 -0.0033  0.9250 -0.4656
 4958TIP3    H236366   6.445   4.496   5.673  0.7265 -0.1516  1.4853
 4959TIP3   OH236367   5.492   4.910   2.221 -0.5890  0.2597  0.1843
 4959TIP3    H136368   5.547   4.874   2.291 -0.3969  1.0964  0.4683
 4959TIP3    H236369   5.460   4.833   2.175  2.3341 -0.2864 -1.1994
 4960TIP3   OH236370   2.461   5.954   1.843 -0.7896  0.6110 -0.1092
 4960TIP3    H136371   2.435   5.926   1.931 -0.1803  1.7499  0.4723
 4960TIP3    H236372   2.491   6.045   1.856  3.9618 -0.6074 -0.4859
 4961TIP3   OH236373   3.008   3.213   1.152 -0.2502  0.4345  0.1854
 4961TIP3    H136374   3.100   3.188   1.149 -0.3603 -0.4481  2.3920
 4961TIP3    H236375   3.003   3.276   1.224 -1.2539  1.0665 -0.4177
 4962TIP3   OH236376   5.091   3.591   2.477 -0.1629 -0.0933 -0.4931
 4962TIP3    H136377   5.130   3.678   2.467  1.2200 -0.6350  0.0572
 4962TIP3    H236378   5.096   3.552   2.389 -1.4898  0.6310 -0.9270
 4963TIP3   OH236379   5.848   5.633   3.042  0.2462 -0.2368  0.6586
 4963TIP3    H136380   5.899   5.707   3.011 -0.2571 -0.1779 -0.0506
 4963TIP3    H236381   5.860   5.566   2.975 -0.5026 -0.2686  0.5510
 4964TIP3   OH236382   3.018   6.288   5.054  0.5784  0.1291 -0.4025
 4964TIP3    H136383   2.966   6.317   5.129  0.9215  1.2443 -0.5833
 4964TIP3    H236384   3.096   6.250   5.092  1.2144  1.5878 -0.1819
 4965TIP3   OH236385   6.229   6.314   0.935 -0.9423 -0.0402  0.2189
 4965TIP3    H136386   6.303   6.356   0.892 -0.5016 -2.7277 -1.9240
 4965TIP3    H236387   6.204   6.375   1.005  1.5509  2.1919 -0.6639
 4966TIP3   OH236388   2.960   5.833   0.867  0.2016 -0.0318  0.0700
 4966TIP3    H136389   3.036   5.780   0.892  0.7212  0.0957 -1.1936
 4966TIP3    H236390   2.895   5.770   0.837 -0.0045 -0.1019  0.6515
 4967TIP3   OH236391   6.284   6.650   1.410  0.3439 -0.3984  0.3028
 4967TIP3    H136392   6.218   6.585   1.435  0.9120 -0.4314  1.8487
 4967TIP3    H236393   6.277   6.656   1.315 -0.5687 -1.8066  0.2466
 4968TIP3   OH236394   5.897   5.052   1.849 -0.9722 -0.4617 -0.3074
 4968TIP3    H136395   5.925   4.961   1.843 -0.7177 -0.4034 -0.0115
 4968TIP3    H236396   5.824   5.050   1.911  0.0797 -0.2324  0.9630
 4969TIP3   OH236397   2.217   2.884  13.776 -0.7901  0.0149  0.5030
 4969TIP3    H136398   2.274   2.879  13.853  1.1895  0.3638 -0.8744
 4969TIP3    H236399   2.220   2.795  13.739 -1.2752  0.0011  0.4884
 4970TIP3   OH236400   5.281   5.827   5.786 -0.1558 -0.2996 -0.0469
 4970TIP3    H136401   5.216   5.821   5.855  1.3048 -0.2707  1.3902
 4970TIP3    H236402   5.242   5.886   5.721 -0.4952  1.9027  2.0225
 4971TIP3   OH236403   1.592   3.271  11.591  0.0010  0.7575  0.4964
 4971TIP3    H136404   1.641   3.236  11.665 -0.1461  1.0544  0.7398
 4971TIP3    H236405   1.659   3.300  11.529  0.1358  0.9966  0.7498
 4972TIP3   OH236406   4.564   1.401   3.106 -0.0310 -0.7396  0.3968
 4972TIP3    H136407   4.598   1.319   3.069 -1.7288 -2.1000  1.6923
 4972TIP3    H236408   4.625   1.422   3.176  0.7606 -0.5317 -0.3322
 4973TIP3   OH236409   1.615   5.072   1.067 -0.2547 -0.5661  0.3059
 4973TIP3    H136410   1.679   5.112   1.008 -1.0010 -0.6342 -0.5811
 4973TIP3    H236411   1.629   4.978   1.057  0.7295 -0.5744  1.5208
 4974TIP3   OH236412   2.909   3.549   3.444  0.3500  0.3784  0.3951
 4974TIP3    H136413   2.994   3.562   3.402  0.8157 -1.5982  0.6497
 4974TIP3    H236414   2.930   3.510   3.528 -0.8585 -1.6897 -0.2032
 4975TIP3   OH236415   4.341   0.211  14.068  0.1599  0.4617 -0.0236
 4975TIP3    H136416   4.403   0.284  14.062  0.3261  0.4826  1.5862
 4975TIP3    H236417   4.393   0.139  14.102  0.3636 -0.9285 -2.9632
 4976TIP3   OH236418   4.640   4.131  16.192 -0.6630  0.0477  0.4148
 4976TIP3    H136419   4.729   4.105  16.213 -0.4827  1.2676  1.2846
 4976TIP3    H236420   4.589   4.108  16.270 -1.1851 -0.8928 -0.1768
 4977TIP3   OH236421   1.592   5.072  17.177 -0.5446  0.3161  0.2656
 4977TIP3    H136422   1.590   5.135  17.105  0.9460  0.8641  0.6538
 4977TIP3    H236423   1.664   5.013  17.154 -2.2837 -1.6649 -0.3928
 4978TIP3   OH236424   2.476   0.226   0.205  0.6049  0.0419 -0.6933
 4978TIP3    H136425   2.472   0.322   0.202  0.3276  0.0453 -0.2710
 4978TIP3    H236426   2.410   0.201   0.270 -0.0222 -0.4977 -1.5207
 4979TIP3   OH236427   4.505   0.069   3.622  0.0316 -0.4668  0.5286
 4979TIP3    H136428   4.555   0.081   3.541  0.0164 -1.3139  0.3912
 4979TIP3    H236429   4.414   0.086   3.597  0.2639  1.5632  0.8843
 4980TIP3   OH236430   4.025   0.841  14.288  0.0364 -0.2196  0.4648
 4980TIP3    H136431   4.086   0.891  14.233 -0.2425 -0.4466 -0.0531
 4980TIP3    H236432   4.034   0.751  14.258 -1.4153 -0.0880 -0.4187
 4981TIP3   OH236433   1.727   3.281   4.237 -0.3503 -0.3959  0.0582
 4981TIP3    H136434   1.699   3.191   4.252  0.8693 -1.0645 -1.3531
 4981TIP3    H236435   1.769   3.307   4.320 -1.9732 -0.5797  0.9744
 4982TIP3   OH236436   4.224   2.099   3.158 -0.1165  0.2977  0.2826
 4982TIP3    H136437   4.294   2.077   3.097 -0.6446 -0.2171 -0.1466
 4982TIP3    H236438   4.195   2.014   3.192 -1.0570  0.4379 -0.1409
 4983TIP3   OH236439   2.051   2.471  16.758 -0.2097  0.3095  0.1593
 4983TIP3    H136440   2.060   2.513  16.844 -2.4569 -0.6501  0.9556
 4983TIP3    H236441   2.044   2.377  16.778 -1.9231  0.1578 -0.9188
 4984TIP3   OH236442   2.474   4.561  15.261 -0.1940  0.6005 -0.0775
 4984TIP3    H136443   2.525   4.531  15.186  1.2605 -0.4797  1.2776
 4984TIP3    H236444   2.417   4.487  15.283  0.1733  0.4864  0.5241
 4985TIP3   OH236445   0.294   2.104  13.417 -0.1545  0.3559 -0.7059
 4985TIP3    H136446   0.239   2.182  13.423  1.2165  1.4095 -1.1337
 4985TIP3    H236447   0.287   2.076  13.326  0.7742  1.1205 -1.0390
 4986TIP3   OH236448   4.370   6.028   1.341  0.5349  0.4682  0.3402
 4986TIP3    H136449   4.357   5.953   1.284  0.2062  2.2013 -2.0117
 4986TIP3    H236450   4.418   5.993   1.416 -2.0090 -2.6354  0.7620
 4987TIP3   OH236451   0.274   6.637   3.302 -0.0387 -1.1903 -0.4111
 4987TIP3    H136452   0.306   6.548   3.317 -0.7996 -2.3015 -4.1863
 4987TIP3    H236453   0.326   6.670   3.229  1.3279  2.2605  1.8472
 4988TIP3   OH236454   4.790   4.352   2.430  0.4304 -0.7758  0.3104
 4988TIP3    H136455   4.814   4.364   2.521  1.3352  1.3480 -0.1464
 4988TIP3    H236456   4.845   4.280   2.399  0.3058 -1.3253  1.3349
 4989TIP3   OH236457   5.129   0.469   5.405  0.3804 -0.5058  0.1312
 4989TIP3    H136458   5.080   0.405   5.354  0.4398  0.8692 -1.7604
 4989TIP3    H236459   5.148   0.424   5.488 -0.8926 -2.3471 -0.5032
 4990TIP3   OH236460   0.354   0.572  16.895 -0.5119 -0.4677 -0.2383
 4990TIP3    H136461   0.429   0.524  16.932  0.1068 -0.3655 -1.3321
 4990TIP3    H236462   0.389   0.615  16.817 -1.1958  1.3010  0.3656
 4991TIP3   OH236463   2.765   3.530  16.686 -0.5459  0.1763 -0.2200
 4991TIP3    H136464   2.727   3.617  16.673 -0.0020  0.6755  1.2545
 4991TIP3    H236465   2.702   3.486  16.744  0.0053  0.2059  0.4065
 4992TIP3   OH236466   2.064   3.467   5.573 -0.1520  0.0618 -0.5674
 4992TIP3    H136467   2.008   3.396   5.540  0.6928 -0.4757 -0.8520
 4992TIP3    H236468   2.024   3.491   5.657 -0.4691 -0.7313 -0.4814
 4993TIP3   OH236469   5.325   5.093   1.356  0.2055 -0.0045  0.1258
 4993TIP3    H136470   5.249   5.042   1.385  0.2429  0.0428  0.3125
 4993TIP3    H236471   5.287   5.172   1.318  0.1634  0.0545  0.2888
 4994TIP3   OH236472   5.847   1.599   5.965  0.2008 -0.3673  0.5946
 4994TIP3    H136473   5.938   1.624   5.982  0.3302 -0.4614  0.0825
 4994TIP3    H236474   5.840   1.600   5.869 -0.0972 -1.2009  0.5993
 4995TIP3   OH236475   6.361   4.053  14.856 -0.1585 -0.3665 -0.4322
 4995TIP3    H136476   6.358   4.124  14.920  2.1817 -0.0676 -0.5555
 4995TIP3    H236477   6.444   4.067  14.810 -0.4363 -2.2447 -1.5807
 4996TIP3   OH236478   3.734   2.378  16.618 -0.1618  0.5408  0.5791
 4996TIP3    H136479   3.754   2.446  16.554 -0.6803  0.0521 -0.1271
 4996TIP3    H236480   3.777   2.299  16.583 -1.0453  0.1041  0.4365
 4997TIP3   OH236481   3.384   0.202  10.662 -0.1758 -0.4118  0.3560
 4997TIP3    H136482   3.386   0.264  10.735 -1.6044 -1.0118  0.9435
 4997TIP3    H236483   3.302   0.222  10.616 -0.1901 -1.2550 -0.0030
 4998TIP3   OH236484   4.458   2.111   6.826  0.2890  0.1149  0.1726
 4998TIP3    H136485   4.381   2.055   6.819 -0.5335  0.9492  1.9147
 4998TIP3    H236486   4.477   2.115   6.920  1.1603  1.6246 -0.0287
 4999TIP3   OH236487   3.766   0.097   4.423 -0.2229 -0.5600 -0.0649
 4999TIP3    H136488   3.750   0.178   4.472 -0.0405  0.0628 -1.0129
 4999TIP3    H236489   3.751   0.027   4.487 -2.9388  0.1049  0.1330
 5000TIP3   OH236490   6.293   1.135   5.174  0.2054 -0.0064 -0.4170
 5000TIP3    H136491   6.384   1.106   5.181  0.2232  0.1478  0.0654
 5000TIP3    H236492   6.255   1.081   5.105  0.8101  0.3003 -1.0013
 5001TIP3   OH236493   6.617   6.465  12.401 -0.0680 -0.5094  0.0652
 5001TIP3    H136494   6.712   6.465  12.389  0.5167  0.2941  3.5261
 5001TIP3    H236495   6.590   6.556  12.387 -0.3022 -0.6762 -0.6079
 5002TIP3   OH236496   3.526   0.376   4.227  0.2331 -0.2831  0.2953
 5002TIP3    H136497   3.466   0.347   4.295  0.4206  1.2119  1.1404
 5002TIP3    H236498   3.504   0.469   4.214 -0.5670 -0.7558 -2.5032
 5003TIP3   OH236499   0.977   5.372   6.493  0.8155  0.0365 -0.2711
 5003TIP3    H136500   0.942   5.395   6.407 -2.6831 -1.7032  0.5032
 5003TIP3    H236501   1.042   5.305   6.475  1.4222  0.9373 -1.6296
 5004TIP3   OH236502   6.401   1.771  14.616  0.0276  0.2493  0.7594
 5004TIP3    H136503   6.376   1.678  14.621  0.6297  0.1109  1.4237
 5004TIP3    H236504   6.397   1.801  14.707  1.4190  0.4394  0.7760
 5005TIP3   OH236505   2.006   4.042   1.298 -0.2188 -0.0991  0.2402
 5005TIP3    H136506   2.063   4.082   1.232  0.5881 -0.3288  0.7841
 5005TIP3    H236507   1.918   4.064   1.270  0.1491  0.5217 -0.4588
 5006TIP3   OH236508   2.923   0.081   1.443 -0.1847 -0.5499  0.2451
 5006TIP3    H136509   2.992   0.017   1.425  1.9315  1.4303  0.7749
 5006TIP3    H236510   2.899   0.067   1.534 -2.1806 -2.6657 -0.5022
 5007TIP3   OH236511   6.125   6.714  11.614  0.2476 -0.0094 -0.5825
 5007TIP3    H136512   6.196   6.753  11.665 -0.0155 -0.9235  0.5210
 5007TIP3    H236513   6.059   6.783  11.608 -0.0807 -0.1468  1.0764
 5008TIP3   OH236514   4.388   1.922  11.733 -0.3236  0.0198 -0.0392
 5008TIP3    H136515   4.319   1.965  11.785 -1.0587  0.9836 -1.6839
 5008TIP3    H236516   4.398   1.836  11.772 -0.6346  0.7906  1.8363
 5009TIP3   OH236517   1.560   2.755  16.032  0.0812 -0.1249  0.1295
 5009TIP3    H136518   1.503   2.679  16.045  0.0922 -0.5139 -1.8238
 5009TIP3    H236519   1.505   2.830  16.057 -0.0579 -0.7111  1.7035
 5010TIP3   OH236520   3.321   0.018  16.557 -0.0201  0.1823 -0.3464
 5010TIP3    H136521   3.243   0.060  16.520  0.6056  0.5805 -1.2446
 5010TIP3    H236522   3.348   0.078  16.628  0.6130  1.1040 -1.3356
 5011TIP3   OH236523   2.211   3.641   0.368 -0.3839  0.0116  0.0594
 5011TIP3    H136524   2.233   3.599   0.285 -0.4078  0.6955 -0.3047
 5011TIP3    H236525   2.279   3.706   0.381 -1.0691  0.7712 -0.0659
 5012TIP3   OH236526   5.712   2.011   1.787  0.3368 -0.0970  0.1784
 5012TIP3    H136527   5.672   2.061   1.858  1.4293  0.1052  0.6703
 5012TIP3    H236528   5.799   2.049   1.777  0.5971 -0.8529 -0.5328
 5013TIP3   OH236529   4.776   4.306   0.387  0.1498 -0.0076 -0.1664
 5013TIP3    H136530   4.690   4.330   0.423 -0.1620 -1.9248  0.4817
 5013TIP3    H236531   4.772   4.211   0.376  2.0768 -0.1012 -0.4443
 5014TIP3   OH236532   1.990   3.042  15.818  0.7767 -0.0469  0.1696
 5014TIP3    H136533   2.002   2.948  15.831 -2.2957 -0.6802 -0.8912
 5014TIP3    H236534   1.986   3.053  15.723 -0.6008  0.8714  0.3137
 5015TIP3   OH236535   2.777   3.159  15.471 -0.0582  0.3238  0.1838
 5015TIP3    H136536   2.721   3.083  15.457 -0.5542  0.6187  0.5652
 5015TIP3    H236537   2.723   3.220  15.521  0.5207  0.7047  0.3495
 5016TIP3   OH236538   1.730   4.385  15.424 -0.1446  0.0984  0.1290
 5016TIP3    H136539   1.771   4.314  15.376 -0.3924 -0.0715  0.1665
 5016TIP3    H236540   1.670   4.425  15.361  0.0714  0.3400  0.0755
 5017TIP3   OH236541   1.106   2.494   3.825 -1.0332  0.1236 -0.3926
 5017TIP3    H136542   1.193   2.471   3.794 -1.1738  0.1967 -0.8603
 5017TIP3    H236543   1.047   2.440   3.772 -1.2392 -0.5910  0.5393
 5018TIP3   OH236544   5.280   0.776  13.246 -0.0834 -0.4730 -0.2200
 5018TIP3    H136545   5.226   0.720  13.191 -0.5505  0.4741 -0.7542
 5018TIP3    H236546   5.294   0.725  13.326 -0.5602 -1.3080 -0.6565
 5019TIP3   OH236547   4.210   1.662   6.191  0.6704  0.4258  0.1749
 5019TIP3    H136548   4.282   1.637   6.133  0.1564 -1.2251  0.1987
 5019TIP3    H236549   4.235   1.627   6.277 -0.3170 -0.5013  0.1021
 5020TIP3   OH236550   5.670   3.404  11.739  0.5618  0.4017  0.2360
 5020TIP3    H136551   5.588   3.410  11.790  0.2792  2.1898 -0.3283
 5020TIP3    H236552   5.650   3.342  11.670  0.5085 -1.0447  1.4963
 5021TIP3   OH236553   3.404   2.662   3.542 -0.1728 -0.1060  0.2155
 5021TIP3    H136554   3.417   2.567   3.541 -1.9923 -0.3968 -1.3525
 5021TIP3    H236555   3.401   2.684   3.635 -1.4877 -1.8828  0.6508
 5022TIP3   OH236556   2.778   1.774   3.307  0.3165 -0.2202  0.2046
 5022TIP3    H136557   2.846   1.826   3.265  1.2091  0.6808  2.6197
 5022TIP3    H236558   2.738   1.834   3.370 -0.4118 -1.7242  1.2211
 5023TIP3   OH236559   3.619   0.995  14.531 -0.0985 -0.2281 -0.6069
 5023TIP3    H136560   3.575   0.942  14.597  0.2706  0.1768 -0.0246
 5023TIP3    H236561   3.642   0.933  14.462 -1.8363 -0.4080 -1.0869
 5024TIP3   OH236562   0.290   6.655  12.797  0.1627  0.0293 -0.0071
 5024TIP3    H136563   0.212   6.677  12.746  1.3539  1.1999 -1.4303
 5024TIP3    H236564   0.326   6.577  12.754 -0.0197 -0.2992  0.4283
 5025TIP3   OH236565   3.085   3.385   2.529 -0.2219  0.2073  0.0204
 5025TIP3    H136566   3.011   3.334   2.562 -0.7125  1.4185  0.8453
 5025TIP3    H236567   3.045   3.459   2.483  0.4715 -0.4434 -1.7256
 5026TIP3   OH236568   3.942   2.916   6.934 -0.7255  0.3169  0.1859
 5026TIP3    H136569   3.972   2.885   6.849 -1.7907 -0.2400 -0.0009
 5026TIP3    H236570   4.019   2.959   6.973 -0.5484  1.6623 -1.5526
 5027TIP3   OH236571   4.023   5.919  12.661 -0.2364  0.3270  0.5274
 5027TIP3    H136572   4.010   5.831  12.695 -1.5653  0.1086 -0.4590
 5027TIP3    H236573   4.115   5.922  12.636 -0.1131 -0.6885  0.8162
 5028TIP3   OH236574   6.082   3.958   2.536 -0.6647 -0.5225 -0.4822
 5028TIP3    H136575   6.044   3.995   2.456 -1.3142 -0.2522 -0.0631
 5028TIP3    H236576   6.174   3.984   2.534 -0.8794  0.2461 -0.7012
 5029TIP3   OH236577   2.512   4.032  14.284 -0.0139 -0.8591  0.3864
 5029TIP3    H136578   2.474   4.116  14.311 -0.5061 -1.1988  0.7849
 5029TIP3    H236579   2.555   3.999  14.363 -0.0986 -1.1265  0.3223
 5030TIP3   OH236580   0.958   6.446  16.888 -0.0307 -0.2208  0.0616
 5030TIP3    H136581   0.986   6.501  16.961 -0.1632 -0.2195  0.1132
 5030TIP3    H236582   0.884   6.494  16.849 -0.6225 -0.7132  0.5567
 5031TIP3   OH236583   1.882   5.580  14.758 -0.4088 -0.0626 -0.1271
 5031TIP3    H136584   1.878   5.497  14.710 -2.3008 -0.6880  0.9924
 5031TIP3    H236585   1.882   5.554  14.850  0.2968  1.1712  0.2408
 5032TIP3   OH236586   5.839   3.574   1.991  0.4450 -0.5747  0.2998
 5032TIP3    H136587   5.840   3.637   1.918  0.5516 -0.3376  0.5035
 5032TIP3    H236588   5.916   3.598   2.044 -0.1597 -0.1417  0.9973
 5033TIP3   OH236589   0.797   5.552  13.999  0.4735  0.0009  0.1883
 5033TIP3    H136590   0.791   5.486  14.068  0.6673 -3.0055 -2.3946
 5033TIP3    H236591   0.888   5.582  14.002  0.7300 -0.7874  0.6637
 5034TIP3   OH236592   2.228   1.788   3.990 -0.3513  0.3088  0.3638
 5034TIP3    H136593   2.249   1.701   4.023  0.3204 -0.1479 -1.2251
 5034TIP3    H236594   2.312   1.833   3.983 -0.4738  0.3939 -0.7035
 5035TIP3   OH236595   4.259   0.421   2.111  0.2812 -0.4038  0.0239
 5035TIP3    H136596   4.232   0.411   2.203 -0.6538  0.8848 -0.0820
 5035TIP3    H236597   4.323   0.491   2.113 -1.2264  1.0564 -0.5160
 5036TIP3   OH236598   3.931   5.554   6.215  0.3010 -0.0115  0.2232
 5036TIP3    H136599   3.902   5.483   6.272 -0.3441 -0.5004 -0.7035
 5036TIP3    H236600   3.958   5.623   6.276 -1.1290 -0.2166  1.1396
 5037TIP3   OH236601   0.572   5.293  13.052  1.0215 -0.2363  0.1261
 5037TIP3    H136602   0.624   5.319  13.129  1.3505 -0.8812  0.1277
 5037TIP3    H236603   0.626   5.320  12.977  0.4816  0.8375  0.1025
 5038TIP3   OH236604   4.137   3.571   1.869  0.2943 -0.2682  0.3100
 5038TIP3    H136605   4.065   3.533   1.919 -1.2670  0.6735 -1.1084
 5038TIP3    H236606   4.098   3.647   1.824  2.4602  0.9661  0.3826
 5039TIP3   OH236607   6.758   4.841  11.964 -0.2361 -0.1689 -0.3331
 5039TIP3    H136608   6.665   4.820  11.968 -0.4663  0.3962 -2.0407
 5039TIP3    H236609   6.775   4.893  12.043 -1.5864  0.5011 -0.4667
 5040TIP3   OH236610   4.731   1.861  12.210 -0.3854  0.2976 -0.1122
 5040TIP3    H136611   4.755   1.952  12.190  0.4754  0.2877  0.8162
 5040TIP3    H236612   4.814   1.818  12.228 -0.5908 -1.1431 -2.2420
 5041TIP3   OH236613   2.975   3.769  16.256  0.4211  0.7873  0.5529
 5041TIP3    H136614   2.930   3.850  16.231 -1.5431  0.2891  2.2072
 5041TIP3    H236615   2.990   3.779  16.350  0.8834 -0.4476  0.6194
 5042TIP3   OH236616   5.410   6.673   2.369 -0.5255 -0.1399  0.0990
 5042TIP3    H136617   5.383   6.726   2.294  1.5565 -0.4665 -0.9467
 5042TIP3    H236618   5.378   6.585   2.350 -0.0042 -0.2207 -0.4251
 5043TIP3   OH236619   5.358   5.389   0.137 -0.1179 -0.2425  0.2113
 5043TIP3    H136620   5.421   5.344   0.192 -0.3493 -0.6330  0.1585
 5043TIP3    H236621   5.281   5.332   0.136 -0.4043  0.1380  0.1228
 5044TIP3   OH236622   4.872   1.989   1.566  0.5248  0.3562  0.0174
 5044TIP3    H136623   4.947   1.935   1.589 -0.1322 -0.0860  1.2139
 5044TIP3    H236624   4.888   2.015   1.476  1.9971  0.0911  0.1825
 5045TIP3   OH236625   2.652   0.891  13.477  0.1211 -0.1559 -0.4884
 5045TIP3    H136626   2.667   0.967  13.421  1.1336  0.2620  0.3140
 5045TIP3    H236627   2.571   0.852  13.444 -0.2351  1.0764 -1.1260
 5046TIP3   OH236628   3.905   4.179  11.973 -0.5006  0.1312  0.0636
 5046TIP3    H136629   3.979   4.121  11.960 -1.5777 -1.5200  0.9535
 5046TIP3    H236630   3.944   4.267  11.978  1.2177 -0.5364 -0.8061
 5047TIP3   OH236631   3.409   4.907  16.149  0.1095 -0.0684 -0.4607
 5047TIP3    H136632   3.399   4.926  16.055 -0.4507 -2.8328 -1.0639
 5047TIP3    H236633   3.326   4.935  16.188 -1.3867 -2.5413 -1.5876
 5048TIP3   OH236634   0.106   2.677  13.183  0.4177  0.0369  0.2189
 5048TIP3    H136635   0.013   2.690  13.196  0.1193 -0.6734 -1.0686
 5048TIP3    H236636   0.120   2.584  13.203  0.3896 -0.4563 -1.7880
 5049TIP3   OH236637   1.109   0.992  14.729 -0.3499  0.1011  0.4029
 5049TIP3    H136638   1.041   0.946  14.777 -0.4820 -1.2832 -1.0467
 5049TIP3    H236639   1.191   0.960  14.766 -0.4516  0.4238  0.9255
 5050TIP3   OH236640   5.804   2.219   1.170  0.7447 -0.3815  0.0579
 5050TIP3    H136641   5.832   2.307   1.194 -0.9890 -0.3594  2.4072
 5050TIP3    H236642   5.732   2.232   1.109  3.3908 -0.3827 -3.3421
 5051TIP3   OH236643   3.244   4.739  14.220 -0.5776  0.7302 -0.5781
 5051TIP3    H136644   3.248   4.724  14.314  0.1266 -2.3989 -1.0023
 5051TIP3    H236645   3.307   4.810  14.205  0.1975  0.4768  1.1968
 5052TIP3   OH236646   4.047   2.033  14.741  0.1172  0.2210 -0.2769
 5052TIP3    H136647   4.047   1.968  14.812 -1.3923 -0.5857 -0.9627
 5052TIP3    H236648   4.089   2.110  14.779 -0.3226 -0.3156  1.3880
 5053TIP3   OH236649   2.754   1.827  14.698 -0.0240 -0.8408 -0.1604
 5053TIP3    H136650   2.811   1.751  14.705  0.7953 -0.2533 -0.3570
 5053TIP3    H236651   2.719   1.824  14.609 -0.0636 -1.0339 -0.1379
 5054TIP3   OH236652   4.986   1.028  14.524 -0.8706  0.3942 -0.2068
 5054TIP3    H136653   5.006   1.024  14.431 -2.8075  0.7277 -0.6794
 5054TIP3    H236654   5.053   0.973  14.565  0.7837  1.2715 -1.6306
 5055TIP3   OH236655   2.483   1.799   0.505 -0.2020  0.4379 -0.3376
 5055TIP3    H136656   2.532   1.789   0.587 -1.9998  0.8901  0.8570
 5055TIP3    H236657   2.439   1.714   0.493 -4.3557  1.9395  2.2805
 5056TIP3   OH236658   5.620   0.470  13.171 -0.2724  0.4817 -0.0833
 5056TIP3    H136659   5.609   0.510  13.257  0.6834 -1.8981  1.2509
 5056TIP3    H236660   5.677   0.530  13.123  1.5297  0.5780  2.0057
 5057TIP3   OH236661   3.156   1.955   0.869  0.0261 -0.1864 -0.0286
 5057TIP3    H136662   3.244   1.983   0.896 -0.1520  1.0312 -0.6305
 5057TIP3    H236663   3.109   2.037   0.851 -1.0590 -0.8357 -0.2572
 5058TIP3   OH236664   3.371   5.850   1.146 -0.3372 -0.0516  0.3424
 5058TIP3    H136665   3.429   5.778   1.170 -0.1592  0.0186  0.1291
 5058TIP3    H236666   3.410   5.927   1.186 -0.3708 -0.0279  0.3300
 5059TIP3   OH236667   6.276   6.352   4.644 -0.4300 -0.1536  0.1831
 5059TIP3    H136668   6.200   6.317   4.598 -0.6413  0.4491  0.0653
 5059TIP3    H236669   6.351   6.314   4.600 -0.6267 -3.6919  2.5171
 5060TIP3   OH236670   2.859   2.906   1.729  0.2550 -0.0740 -0.2297
 5060TIP3    H136671   2.783   2.851   1.711  0.1503 -0.1154  0.3158
 5060TIP3    H236672   2.927   2.845   1.756  1.3930 -0.3657 -3.3124
 5061TIP3   OH236673   6.711   5.087  15.913 -0.0726 -0.3573 -0.2062
 5061TIP3    H136674   6.764   5.020  15.957 -0.9637 -0.7656  0.2601
 5061TIP3    H236675   6.640   5.106  15.974  0.2421  1.1432 -0.2617
 5062TIP3   OH236676   0.061   6.234   4.023 -0.0820 -0.3097 -0.0783
 5062TIP3    H136677   0.044   6.283   4.104  0.4255 -1.6612  0.8907
 5062TIP3    H236678   0.005   6.157   4.029 -1.4003  0.4286 -1.9182
 5063TIP3   OH236679   0.505   3.166  11.797 -0.1190  0.9286 -0.3688
 5063TIP3    H136680   0.560   3.176  11.719  0.1052  1.3302 -0.1664
 5063TIP3    H236681   0.445   3.094  11.776  0.9205  0.0339 -0.3384
 5064TIP3   OH236682   0.174   2.770  14.655 -0.2009 -0.5131 -0.1107
 5064TIP3    H136683   0.226   2.829  14.600  2.1491 -0.6084  1.8327
 5064TIP3    H236684   0.123   2.828  14.711 -0.4731 -0.3810 -0.4950
 5065TIP3   OH236685   0.829   1.769   2.277 -0.3912  0.2203 -0.5120
 5065TIP3    H136686   0.904   1.724   2.315 -1.0802 -0.1269  0.4972
 5065TIP3    H236687   0.798   1.709   2.209  1.1228  1.0502 -1.9967
 5066TIP3   OH236688   5.749   4.026  14.244  0.1205 -0.2301 -0.6815
 5066TIP3    H136689   5.797   4.000  14.165 -0.6924 -0.4703 -1.1106
 5066TIP3    H236690   5.764   3.955  14.306  2.8739  1.1213  0.3497
 5067TIP3   OH236691   0.615   0.542  11.116  0.1775 -0.0169 -0.2855
 5067TIP3    H136692   0.520   0.554  11.115  0.2668  1.1358  1.4486
 5067TIP3    H236693   0.646   0.598  11.044 -0.5807 -2.6512 -2.8635
 5068TIP3   OH236694   2.510   2.443  17.397  0.3323  0.4926  0.1118
 5068TIP3    H136695   2.524   2.446  17.492 -0.4473  0.4625  0.2353
 5068TIP3    H236696   2.596   2.463  17.360  1.1269 -1.4533  0.7982
 5069TIP3   OH236697   6.096   2.829   0.811  0.1603  0.0208  0.6718
 5069TIP3    H136698   6.109   2.749   0.862 -0.8249 -0.2075  0.5935
 5069TIP3    H236699   6.097   2.899   0.877  0.5152 -0.1020  0.8009
 5070TIP3   OH236700   1.868   5.092   1.934  0.2609 -0.1081 -0.7088
 5070TIP3    H136701   1.777   5.104   1.962  0.6738  2.5509 -0.2286
 5070TIP3    H236702   1.889   5.173   1.887  2.4298 -0.5956 -0.6686
 5071TIP3   OH236703   4.408   3.131  17.380 -0.4781 -0.1816 -0.3524
 5071TIP3    H136704   4.337   3.187  17.348  0.8140  1.6448 -0.1464
 5071TIP3    H236705   4.476   3.192  17.407  0.9413 -1.8761  0.0371
 5072TIP3   OH236706   0.517   0.230   2.156 -0.0454 -0.3555 -0.5135
 5072TIP3    H136707   0.534   0.317   2.193 -0.5072 -0.7767  0.7512
 5072TIP3    H236708   0.604   0.196   2.134  0.0726  0.8344 -2.0615
 5073TIP3   OH236709   2.683   4.546  13.002 -0.1843  0.5300 -0.1600
 5073TIP3    H136710   2.765   4.558  12.955  0.8562 -0.9499  1.1495
 5073TIP3    H236711   2.633   4.484  12.949 -1.0255  2.2866 -1.5442
 5074TIP3   OH236712   0.273   4.275  12.428  0.2582  0.6357  0.0624
 5074TIP3    H136713   0.225   4.345  12.473 -1.8397 -0.6208 -0.0903
 5074TIP3    H236714   0.308   4.221  12.499 -0.4065  0.3855  0.2126
 5075TIP3   OH236715   6.200   6.573  17.130  0.8639 -0.0998  0.3438
 5075TIP3    H136716   6.242   6.654  17.160  0.8083  0.3049 -0.6280
 5075TIP3    H236717   6.241   6.555  17.046  1.6754 -1.7240  1.0515
 5076TIP3   OH236718   0.150   1.193  12.349 -0.4682 -0.3110 -0.0304
 5076TIP3    H136719   0.229   1.152  12.385 -0.0432  0.9900  0.5901
 5076TIP3    H236720   0.183   1.260  12.290 -1.1251 -0.0841 -0.1504
 5077TIP3   OH236721   5.543   1.692  14.237  0.4586 -0.0317 -0.1992
 5077TIP3    H136722   5.533   1.787  14.236  1.3666  0.1251  1.2825
 5077TIP3    H236723   5.511   1.666  14.324  1.2064 -0.9296 -0.1794
 5078TIP3   OH236724   3.431   1.691  15.489 -0.4597 -0.2622 -0.4621
 5078TIP3    H136725   3.366   1.632  15.527  0.7859 -2.4912 -1.5596
 5078TIP3    H236726   3.462   1.645  15.411  3.7213 -0.2809  0.9446
 5079TIP3   OH236727   2.009   5.334  14.939  0.2729  0.1990 -0.8137
 5079TIP3    H136728   1.928   5.339  14.888  0.1024 -1.3188 -0.7465
 5079TIP3    H236729   2.039   5.425  14.945 -2.0160  0.9698  0.1241
 5080TIP3   OH236730   3.907   4.655   4.077  0.2477 -0.6736  0.5006
 5080TIP3    H136731   3.848   4.580   4.078 -1.6416  0.7363 -0.5141
 5080TIP3    H236732   3.880   4.707   4.002  3.5018 -0.4514 -0.6932
 5081TIP3   OH236733   2.787   3.662  13.867 -0.4150 -0.1622  0.0494
 5081TIP3    H136734   2.707   3.677  13.816 -0.4914 -1.7459 -0.3572
 5081TIP3    H236735   2.787   3.568  13.885  1.6991 -0.3471 -0.5734
 5082TIP3   OH236736   1.650   0.374  14.064  0.1908 -0.0243  0.1638
 5082TIP3    H136737   1.565   0.395  14.025 -0.7950 -0.1522  2.1335
 5082TIP3    H236738   1.662   0.281  14.045  1.1224  0.5195 -2.2644
 5083TIP3   OH236739   0.747   3.729  14.235 -0.4290  0.5115  0.1638
 5083TIP3    H136740   0.769   3.655  14.178 -0.9353  1.2910 -1.0864
 5083TIP3    H236741   0.669   3.701  14.283  1.1636 -0.9405  2.0592
 5084TIP3   OH236742   1.057   3.716  11.153  0.2928  0.4139 -0.5203
 5084TIP3    H136743   1.133   3.698  11.097 -0.9396 -1.2458 -1.7373
 5084TIP3    H236744   0.995   3.761  11.095 -0.4397 -0.0339 -0.0978
 5085TIP3   OH236745   4.925   0.051  14.456  0.5243 -0.6750 -0.2380
 5085TIP3    H136746   4.987  -0.021  14.469 -1.2248 -2.0158  1.0107
 5085TIP3    H236747   4.904   0.081  14.545  1.0307  1.2637 -0.7194
 5086TIP3   OH236748   1.680   6.259   0.166 -0.6405  0.0141  0.4945
 5086TIP3    H136749   1.685   6.202   0.242 -0.9272  1.9780  2.0685
 5086TIP3    H236750   1.626   6.211   0.103  1.2570 -2.5357  0.6408
 5087TIP3   OH236751   6.143   4.840  16.086  0.4430 -0.3286 -0.0460
 5087TIP3    H136752   6.072   4.887  16.130  1.7387  1.4560  0.2285
 5087TIP3    H236753   6.101   4.761  16.051 -1.4276  0.1172  1.0560
 5088TIP3   OH236754   0.193   1.894  12.556  0.2443 -0.0549 -0.2228
 5088TIP3    H136755   0.150   1.961  12.504 -0.5923 -1.6503 -1.6954
 5088TIP3    H236756   0.122   1.839  12.588  0.8555  0.1163  1.5506
 5089TIP3   OH236757   0.312   0.805  12.457  0.2902 -0.0949  0.2817
 5089TIP3    H136758   0.329   0.836  12.368  2.0532 -0.0452  0.5983
 5089TIP3    H236759   0.275   0.881  12.502 -1.2031 -0.2887 -0.5209
 5090TIP3   OH236760   4.422   3.703   3.529  0.1816 -0.5930 -0.1189
 5090TIP3    H136761   4.486   3.636   3.553  0.3760 -1.5005 -2.8328
 5090TIP3    H236762   4.475   3.780   3.506  0.2755 -0.9470 -1.1619
 5091TIP3   OH236763   0.640   2.555  12.884 -0.1353  0.1730 -0.3059
 5091TIP3    H136764   0.562   2.569  12.830 -0.5628 -1.2595 -0.0841
 5091TIP3    H236765   0.658   2.461  12.878 -0.7831 -0.2456  2.8162
 5092TIP3   OH236766   0.381   5.332   2.379  0.2029 -0.0302  0.0388
 5092TIP3    H136767   0.297   5.331   2.424  0.2653 -0.2133  0.1532
 5092TIP3    H236768   0.446   5.347   2.448  0.2283  0.5750 -0.1126
 5093TIP3   OH236769   0.394   5.927  12.426 -0.1734  0.3007  0.0131
 5093TIP3    H136770   0.393   5.909  12.332 -1.4409 -2.1567  0.3994
 5093TIP3    H236771   0.474   5.977  12.440 -0.1302  1.0513 -2.3922
 5094TIP3   OH236772   0.157   1.418   2.011  0.4028 -0.1306  0.1370
 5094TIP3    H136773   0.117   1.370   1.938  1.3326 -0.1581 -0.3670
 5094TIP3    H236774   0.094   1.409   2.083 -0.3763 -0.3759 -0.5595
 5095TIP3   OH236775   0.982   1.163  12.256  0.1486 -0.2428 -0.4188
 5095TIP3    H136776   0.942   1.106  12.322 -0.8612  0.8519 -0.0463
 5095TIP3    H236777   1.032   1.104  12.200  0.7173 -1.2499  1.0880
 5096TIP3   OH236778   6.195   0.922  11.586  0.4527  0.3500 -0.5869
 5096TIP3    H136779   6.286   0.900  11.566 -0.1135 -1.2664 -1.5639
 5096TIP3    H236780   6.200   0.973  11.667  2.2879  1.0840 -1.1252
 5097TIP3   OH236781   0.151   1.241  10.604 -0.2573 -0.4236 -0.6985
 5097TIP3    H136782   0.245   1.245  10.585  0.3948 -0.8942  2.0416
 5097TIP3    H236783   0.133   1.147  10.616 -0.6668 -0.1957  0.5414
 5098TIP3   OH236784   6.277   5.271   5.275 -0.5021  0.0465 -0.1657
 5098TIP3    H136785   6.271   5.292   5.368 -1.1364  2.9419 -0.7390
 5098TIP3    H236786   6.187   5.252   5.249 -0.4814  0.2092 -0.3595
 5099TIP3   OH236787   2.885   3.697   4.744 -0.7650  0.2816  0.2429
 5099TIP3    H136788   2.832   3.763   4.699 -0.0616 -0.0512 -1.1467
 5099TIP3    H236789   2.872   3.714   4.837 -1.5780  1.5814 -0.0898
 5100TIP3   OH236790   1.549   5.918   5.457 -0.2725  0.6740  0.2192
 5100TIP3    H136791   1.551   5.905   5.552 -0.9141  0.2885  0.1823
 5100TIP3    H236792   1.461   5.893   5.431  0.4508 -1.0098 -0.7455
 5101TIP3   OH236793   2.399   5.681  17.501 -0.1707  0.4933  0.0379
 5101TIP3    H136794   2.322   5.680  17.444  0.3103  1.0592 -0.6512
 5101TIP3    H236795   2.405   5.592  17.536 -2.3248  0.9637  1.7634
 5102TIP3   OH236796   1.057   0.917   1.370 -0.3055  0.3412 -0.2051
 5102TIP3    H136797   1.046   1.002   1.414  0.6727 -0.5814  1.9919
 5102TIP3    H236798   0.968   0.888   1.351 -0.8285  0.6187  1.6429
 5103TIP3   OH236799   6.430   1.726   4.192  0.9684  0.1735 -0.2262
 5103TIP3    H136800   6.411   1.818   4.212 -1.2784 -0.4387  0.8148
 5103TIP3    H236801   6.430   1.682   4.277 -1.8682 -1.3561 -0.8555
 5104TIP3   OH236802   4.064   3.500   3.331  0.1488 -0.1266  0.9533
 5104TIP3    H136803   4.151   3.473   3.304 -0.0599 -1.2841  1.3317
 5104TIP3    H236804   4.078   3.548   3.412  0.4928  0.3101  0.6347
 5105TIP3   OH236805   4.122   0.512   1.626  0.5849 -0.1332 -0.5802
 5105TIP3    H136806   4.174   0.460   1.687  0.8398  1.1861  0.3877
 5105TIP3    H236807   4.040   0.528   1.673  1.1697  1.7475 -0.1018
 5106TIP3   OH236808   0.713   0.121   4.726 -0.0548  0.0594 -0.3521
 5106TIP3    H136809   0.706   0.169   4.809 -0.0907 -1.4248  0.5513
 5106TIP3    H236810   0.799   0.144   4.692 -0.0606  0.7338  0.0794
 5107TIP3   OH236811   1.176   5.070   3.820 -0.1544 -0.1462 -0.1661
 5107TIP3    H136812   1.112   4.998   3.823  1.9079 -2.0558  1.3841
 5107TIP3    H236813   1.218   5.061   3.735 -0.3816 -0.3375 -0.2595
 5108TIP3   OH236814   0.951   5.105   4.429  0.3931  0.5346 -0.1673
 5108TIP3    H136815   0.918   5.022   4.395 -2.2075  0.4222  2.2612
 5108TIP3    H236816   1.017   5.079   4.494 -0.0111  0.3703  0.1832
 5109TIP3   OH236817   2.695   5.390   3.494 -0.7640  0.4487 -0.5746
 5109TIP3    H136818   2.714   5.436   3.413 -0.5389  0.8496 -0.2993
 5109TIP3    H236819   2.712   5.455   3.563  1.2661 -0.5349 -0.0650
 5110TIP3   OH236820   3.854   3.816  11.063 -0.0128  0.2556 -0.2127
 5110TIP3    H136821   3.941   3.838  11.028 -0.2491  1.8011  0.1064
 5110TIP3    H236822   3.867   3.812  11.158 -0.1992  0.0773 -0.1947
 5111TIP3   OH236823   5.191   2.361   2.244  0.6181  0.6062 -0.1042
 5111TIP3    H136824   5.223   2.417   2.173  1.1352 -0.4587 -0.7317
 5111TIP3    H236825   5.150   2.422   2.306  0.5986  1.6019 -1.0693
 5112TIP3   OH236826   0.822   6.695  11.271 -0.4417 -0.0497 -0.8366
 5112TIP3    H136827   0.865   6.765  11.320 -0.2228  0.6395 -1.9717
 5112TIP3    H236828   0.890   6.662  11.212 -0.3951 -1.5880  0.0289
 5113TIP3   OH236829   3.096   0.848   1.619 -0.2372 -0.4232 -0.2301
 5113TIP3    H136830   3.050   0.841   1.536 -0.0677 -3.6870 -0.1856
 5113TIP3    H236831   3.027   0.840   1.685 -0.0744 -0.7907 -0.1033
 5114TIP3   OH236832   2.434   6.742  12.803  0.4956 -0.3120  0.0638
 5114TIP3    H136833   2.507   6.688  12.772  0.6488  0.0157 -0.1511
 5114TIP3    H236834   2.436   6.733  12.899  0.2739 -1.0004  0.0036
 5115TIP3   OH236835   2.440   3.245  10.350  0.0935  0.2018  0.0604
 5115TIP3    H136836   2.518   3.198  10.379  0.3599 -0.1727 -1.2024
 5115TIP3    H236837   2.367   3.189  10.374  0.3816 -0.6680 -1.0198
 5116TIP3   OH236838   5.129   5.937   1.895  0.5525  0.1387  0.5159
 5116TIP3    H136839   5.077   5.979   1.827 -1.9322 -1.7166  1.0935
 5116TIP3    H236840   5.115   5.992   1.973 -0.3289 -0.1447  0.5741
 5117TIP3   OH236841   0.169   4.165   1.887 -0.0241 -0.8751 -0.2628
 5117TIP3    H136842   0.095   4.106   1.902 -0.1898 -0.4549  0.6152
 5117TIP3    H236843   0.162   4.190   1.795 -3.7092  2.7637  0.7396
 5118TIP3   OH236844   2.320   5.438   4.925  0.1621  0.4478  0.9094
 5118TIP3    H136845   2.249   5.411   4.867  0.2243  0.2559  0.9202
 5118TIP3    H236846   2.284   5.426   5.013 -0.1271  1.2735  0.9077
 5119TIP3   OH236847   3.101   6.693  14.118  0.5285  0.0580 -0.4191
 5119TIP3    H136848   3.122   6.670  14.209 -1.4492  0.4197  0.1768
 5119TIP3    H236849   3.011   6.664  14.106 -0.4380  2.9826 -1.1739
 5120TIP3   OH236850   1.798   5.204  16.361 -0.1739 -0.2889 -0.4107
 5120TIP3    H136851   1.803   5.206  16.456 -1.4232  1.3403 -0.3294
 5120TIP3    H236852   1.820   5.293  16.334  0.6701 -0.8630 -1.6868
 5121TIP3   OH236853   1.164   6.674   5.578  0.3087 -0.3903  0.3099
 5121TIP3    H136854   1.147   6.747   5.637  0.0773 -0.3568  0.2040
 5121TIP3    H236855   1.256   6.651   5.593  0.8157  0.8530 -0.6942
 5122TIP3   OH236856   4.923   5.217   3.603  0.0850  0.3506  0.7431
 5122TIP3    H136857   4.875   5.139   3.577  0.9103 -0.2511  0.9811
 5122TIP3    H236858   5.001   5.216   3.547 -0.3420  1.5242  0.0817
 5123TIP3   OH236859   4.866   6.465  13.178 -0.2675  0.6886 -0.1304
 5123TIP3    H136860   4.939   6.516  13.143 -0.7570  0.9724 -0.7468
 5123TIP3    H236861   4.822   6.525  13.238 -0.1790  0.6152  0.0092
 5124TIP3   OH236862   3.019   3.061   3.227  0.2204 -0.1569  0.1629
 5124TIP3    H136863   3.097   3.022   3.186 -0.4461 -2.9988  1.3224
 5124TIP3    H236864   2.989   2.993   3.288 -3.5312  0.5748 -0.6803
 5125TIP3   OH236865   0.126   3.665  15.868 -0.0132  0.3656  0.5248
 5125TIP3    H136866   0.062   3.728  15.903  0.3014  0.5747  0.7226
 5125TIP3    H236867   0.185   3.719  15.815 -0.6932  0.0086 -0.6225
 5126TIP3   OH236868   0.272   6.566   4.244 -0.4391  0.2671 -0.0036
 5126TIP3    H136869   0.208   6.587   4.176 -1.0871 -0.1495  0.4641
 5126TIP3    H236870   0.346   6.528   4.197  0.1829  2.2360 -0.7306
 5127TIP3   OH236871   1.567   3.242  11.932  0.7642  0.0705  0.0148
 5127TIP3    H136872   1.484   3.267  11.893  0.2070 -0.5412  0.7885
 5127TIP3    H236873   1.583   3.308  11.999  2.3595  1.8886 -1.9854
 5128TIP3   OH236874   1.905   4.704   3.325 -0.3454 -0.1211 -0.1077
 5128TIP3    H136875   1.881   4.618   3.288 -0.0268 -2.6533  4.7586
 5128TIP3    H236876   1.824   4.737   3.363  0.3724 -0.6322  2.0092
 5129TIP3   OH236877   1.400   6.508  11.412  0.7956 -0.2941  0.4884
 5129TIP3    H136878   1.321   6.560  11.393  0.3181 -0.8713  0.8702
 5129TIP3    H236879   1.457   6.568  11.460  0.1575 -0.1790  1.1182
 5130TIP3   OH236880   5.916   2.966   1.954  0.2472  0.0610 -0.4860
 5130TIP3    H136881   5.908   2.935   1.864  1.5949  1.0001 -0.9647
 5130TIP3    H236882   5.831   2.946   1.994 -0.1533 -0.9440 -1.7683
 5131TIP3   OH236883   6.138   0.922  17.197 -0.4645  0.3710 -0.3925
 5131TIP3    H136884   6.099   1.009  17.204  0.0165  0.7342 -1.9010
 5131TIP3    H236885   6.096   0.882  17.121  0.0532 -0.3098 -0.3315
 5132TIP3   OH236886   6.707   0.014  13.212  0.0509  0.7493 -0.0460
 5132TIP3    H136887   6.781  -0.006  13.269  0.6265  0.5815 -0.8353
 5132TIP3    H236888   6.745   0.062  13.139 -0.5268  0.2183 -0.7160
 5133TIP3   OH236889   0.891   3.824   5.188 -0.2726 -0.5549 -0.5393
 5133TIP3    H136890   0.839   3.825   5.108 -0.4554  1.6513 -0.4703
 5133TIP3    H236891   0.981   3.811   5.158 -0.5479 -1.6939 -0.9043
 5134TIP3   OH236892   2.648   6.708  16.363 -0.2931 -0.2500 -0.1082
 5134TIP3    H136893   2.597   6.712  16.444 -1.1596  0.4499 -0.6764
 5134TIP3    H236894   2.663   6.799  16.339  1.5696 -0.4216  0.2281
 5135TIP3   OH236895   2.875   4.363   0.692 -0.0150  0.0428  0.0794
 5135TIP3    H136896   2.895   4.282   0.740 -1.7352  0.6628  1.9691
 5135TIP3    H236897   2.788   4.348   0.655  1.0850 -0.2477 -2.6542
 5136TIP3   OH236898   4.193   2.045   4.045 -0.2162 -0.0148  0.3065
 5136TIP3    H136899   4.190   2.024   3.952 -1.1022 -1.1078  0.5709
 5136TIP3    H236900   4.285   2.034   4.069 -0.0115  0.1126 -0.3976
 5137TIP3   OH236901   3.804   0.855  13.070 -0.4432 -0.1852  0.0044
 5137TIP3    H136902   3.834   0.777  13.024  1.2284  0.0696  0.6022
 5137TIP3    H236903   3.714   0.835  13.097 -1.3686 -0.4894 -2.9723
 5138TIP3   OH236904   1.413   4.483   0.095  0.1158  0.0909  0.0364
 5138TIP3    H136905   1.375   4.397   0.074  0.5435  0.3612 -2.0177
 5138TIP3    H236906   1.497   4.484   0.050  1.3251  0.6487  2.1379
 5139TIP3   OH236907   5.391   5.189  12.003  0.0665 -0.3857  0.0278
 5139TIP3    H136908   5.317   5.250  11.998 -0.1153 -0.6442 -0.3991
 5139TIP3    H236909   5.428   5.189  11.915 -0.2845 -1.3278 -0.1281
 5140TIP3   OH236910   5.714   2.617   1.451 -0.4952 -0.5591 -0.7185
 5140TIP3    H136911   5.724   2.707   1.484  0.7471 -1.7615  2.5859
 5140TIP3    H236912   5.629   2.589   1.484 -1.4433 -0.3252 -2.7709
 5141TIP3   OH236913   2.818   4.528   1.859  0.0492  0.0014  0.4730
 5141TIP3    H136914   2.757   4.601   1.865  1.5971  1.2733  1.1317
 5141TIP3    H236915   2.791   4.468   1.929  0.0842  0.9636  1.3230
 5142TIP3   OH236916   3.134   5.594  12.084  0.1330  0.9424 -0.3766
 5142TIP3    H136917   3.054   5.578  12.033 -0.3850  0.3998  0.5923
 5142TIP3    H236918   3.147   5.514  12.135  0.1923  1.7664  0.9409
 5143TIP3   OH236919   1.682   0.778   5.124 -0.2476  0.4483  0.3002
 5143TIP3    H136920   1.595   0.768   5.163 -0.6919 -1.5208 -0.9842
 5143TIP3    H236921   1.684   0.710   5.056  2.2808  0.5012  0.2494
 5144TIP3   OH236922   3.749   3.001   2.221 -0.7299  0.1490  0.1360
 5144TIP3    H136923   3.822   3.054   2.253 -0.5458  0.2013 -0.3744
 5144TIP3    H236924   3.726   2.945   2.295  2.1687 -2.4922 -0.7583
 5145TIP3   OH236925   0.848   1.576  12.242  0.0384  0.2825 -0.3860
 5145TIP3    H136926   0.940   1.570  12.269 -0.1497  0.9902  0.4872
 5145TIP3    H236927   0.799   1.545  12.318 -0.4652  0.7500 -0.5139
 5146TIP3   OH236928   0.969   5.484   3.879 -0.5827 -0.1963  0.0714
 5146TIP3    H136929   0.901   5.476   3.947  0.7794  0.4496  1.5817
 5146TIP3    H236930   1.025   5.555   3.910  0.8511 -0.7876 -1.0749
 5147TIP3   OH236931   2.819   4.836   1.688  0.4641  0.4172  0.3748
 5147TIP3    H136932   2.740   4.805   1.732 -0.9725 -0.2955 -2.4315
 5147TIP3    H236933   2.833   4.924   1.724 -0.7552  0.0075  1.9624
 5148TIP3   OH236934   5.994   0.604  11.914 -0.1781  0.0457 -0.3805
 5148TIP3    H136935   5.909   0.565  11.930  0.5695 -0.9634  1.5641
 5148TIP3    H236936   6.054   0.529  11.906  0.7831  0.7258  0.1515
 5149TIP3   OH236937   2.044   5.228  10.797  0.2371  0.9983  0.2282
 5149TIP3    H136938   2.121   5.276  10.826  0.9706 -0.5814  1.0133
 5149TIP3    H236939   2.070   5.136  10.801 -1.1990  0.5028 -0.9739
 5150TIP3   OH236940   3.776   0.067   0.111 -0.1623 -0.7262  0.2624
 5150TIP3    H136941   3.826   0.015   0.175  0.7836 -0.1697 -0.0048
 5150TIP3    H236942   3.700   0.098   0.160  1.5969  1.4606  1.8313
 5151TIP3   OH236943   3.769   1.703   0.111 -0.4655 -0.1536 -0.1240
 5151TIP3    H136944   3.727   1.716   0.026 -0.8476  0.3402  0.1290
 5151TIP3    H236945   3.736   1.619   0.142  0.7722 -1.0284 -1.0771
 5152TIP3   OH236946   3.983   0.880   6.166  0.5344  0.2701  0.0193
 5152TIP3    H136947   4.022   0.903   6.082  1.7201 -0.3841  0.3512
 5152TIP3    H236948   4.043   0.918   6.231  0.1633 -0.0492  0.5600
 5153TIP3   OH236949   0.661   1.628   1.818  0.0590  0.6676 -0.1418
 5153TIP3    H136950   0.694   1.707   1.775 -1.1632  1.1738 -0.1925
 5153TIP3    H236951   0.618   1.578   1.748 -1.2447  1.1189  0.2994
 5154TIP3   OH236952   3.765   3.365   2.562 -0.0512  0.1760 -0.3240
 5154TIP3    H136953   3.721   3.291   2.604 -0.3037  0.8353  0.5870
 5154TIP3    H236954   3.857   3.339   2.558  0.3614  0.9056  2.5072
 5155TIP3   OH236955   4.922   2.449  12.716  0.3280 -0.5920 -0.4028
 5155TIP3    H136956   4.942   2.356  12.713  1.7766 -0.2738 -1.8954
 5155TIP3    H236957   4.968   2.486  12.641  0.0479  1.3863  0.3412
 5156TIP3   OH236958   6.664   1.523   2.516  0.1261  0.3053  0.9200
 5156TIP3    H136959   6.680   1.451   2.455  1.0856  0.2164  1.2617
 5156TIP3    H236960   6.570   1.542   2.507  0.6760  2.0942 -2.5453
 5157TIP3   OH236961   3.768   6.624  15.294  0.4556  0.0854 -0.5684
 5157TIP3    H136962   3.687   6.573  15.300 -0.7741  1.2514 -4.3512
 5157TIP3    H236963   3.829   6.568  15.247  0.6255  0.4731 -0.8163
 5158TIP3   OH236964   6.160   3.547  13.487 -0.1334 -0.1934  0.2001
 5158TIP3    H136965   6.114   3.463  13.474 -0.3508  0.1043 -1.1512
 5158TIP3    H236966   6.094   3.605  13.523 -0.8948  0.2341 -1.7387
 5159TIP3   OH236967   0.579   1.243   1.456 -0.1164 -0.1294  0.1951
 5159TIP3    H136968   0.669   1.242   1.422  0.3361 -3.0547  1.2079
 5159TIP3    H236969   0.525   1.221   1.381  0.2228 -0.2169 -0.0293
 5160TIP3   OH236970   3.929   0.871   3.521 -0.3440 -0.0590 -0.1429
 5160TIP3    H136971   4.004   0.853   3.465 -0.8699 -1.7269 -0.3539
 5160TIP3    H236972   3.862   0.907   3.463 -0.2683 -0.1087 -0.2591
 5161TIP3   OH236973   5.020   2.135   2.265 -0.0078  0.6632  0.2821
 5161TIP3    H136974   5.029   2.228   2.243  0.1835  0.3917 -0.8376
 5161TIP3    H236975   5.110   2.103   2.270 -0.0928  0.1247 -1.2309
 5162TIP3   OH236976   0.821   0.798   4.355 -0.0182  0.3255  0.6073
 5162TIP3    H136977   0.856   0.885   4.372 -2.4306  1.2758  1.1763
 5162TIP3    H236978   0.816   0.792   4.259  2.1885 -0.1250  0.4756
 5163TIP3   OH236979   2.448   1.123   2.951 -0.9151 -0.6860  0.0245
 5163TIP3    H136980   2.490   1.037   2.952 -0.0550 -0.2808 -0.0843
 5163TIP3    H236981   2.449   1.151   3.042  3.1737  1.2182 -0.3816
 5164TIP3   OH236982   3.885   6.514   5.462  0.6627  0.0251  0.4493
 5164TIP3    H136983   3.910   6.421   5.463  0.7102  0.0236 -0.4374
 5164TIP3    H236984   3.960   6.558   5.422  0.2244  0.3152 -0.0553
 5165TIP3   OH236985   3.626   5.684  14.333  0.0771 -0.0859  0.2177
 5165TIP3    H136986   3.664   5.658  14.249 -0.4386  1.2375 -0.4565
 5165TIP3    H236987   3.629   5.604  14.386  0.8237 -0.8365 -0.8962
 5166TIP3   OH236988   6.107   6.729   4.654  0.7230 -0.5596  0.5671
 5166TIP3    H136989   6.129   6.661   4.718  1.6984 -0.4156  0.3919
 5166TIP3    H236990   6.088   6.807   4.707  1.3650 -0.4872  0.7000
 5167TIP3   OH236991   3.959   3.790  12.916 -0.2797 -0.6072  0.4345
 5167TIP3    H136992   4.025   3.805  12.848  0.1546 -1.3214  0.6862
 5167TIP3    H236993   3.999   3.724  12.973 -0.4274  0.3310  1.6608
 5168TIP3   OH236994   1.947   0.816   1.720  0.2171 -0.2815  0.3269
 5168TIP3    H136995   1.865   0.772   1.742 -1.1197 -0.0500 -3.5815
 5168TIP3    H236996   1.932   0.855   1.634  3.6432  1.9407  0.5484
 5169TIP3   OH236997   0.592   3.912   6.446 -0.2055 -0.3885 -0.5584
 5169TIP3    H136998   0.616   3.985   6.504 -1.1378 -0.9949  0.6275
 5169TIP3    H236999   0.674   3.889   6.402  0.5186  0.1399  0.4655
 5170TIP3   OH237000   4.191   5.615  14.483  0.0886  0.6626  0.4358
 5170TIP3    H137001   4.282   5.614  14.515 -0.0149 -0.4509  0.7047
 5170TIP3    H237002   4.139   5.636  14.560  0.0503  0.5552  0.4381
 5171TIP3   OH237003   2.115   5.120   2.939  0.3025  0.0137 -0.2510
 5171TIP3    H137004   2.171   5.129   3.016 -0.0517 -0.6851  0.1013
 5171TIP3    H237005   2.122   5.204   2.893 -0.8277  1.1123  1.4461
 5172TIP3   OH237006   0.389   4.961   4.851 -0.5555 -0.6510 -0.2435
 5172TIP3    H137007   0.461   4.923   4.902 -1.0021 -1.4347 -0.1847
 5172TIP3    H237008   0.310   4.933   4.897 -0.9337 -0.6572 -0.8941
 5173TIP3   OH237009   0.645   6.263   5.566 -0.3018 -0.7237  0.0238
 5173TIP3    H137010   0.597   6.343   5.589 -0.0967 -0.5948  0.0017
 5173TIP3    H237011   0.730   6.273   5.608 -0.2105 -0.8485 -0.1327
 5174TIP3   OH237012   0.846   6.519  12.593  0.1429 -0.4763  0.1150
 5174TIP3    H137013   0.835   6.517  12.688 -1.0890 -3.5332  0.0169
 5174TIP3    H237014   0.782   6.584  12.564  0.4447  0.4072  1.3400
 5175TIP3   OH237015   1.292   3.773  17.012 -0.5468 -0.1052  0.6533
 5175TIP3    H137016   1.206   3.799  16.978 -0.8838 -0.5081  1.1755
 5175TIP3    H237017   1.352   3.841  16.981 -0.6757 -0.8625 -1.3914
 5176TIP3   OH237018   5.706   1.860  16.150  0.5555  0.5680  0.3197
 5176TIP3    H137019   5.661   1.779  16.128  0.3400  0.6621  0.4120
 5176TIP3    H237020   5.773   1.834  16.214 -0.8154  0.7568  1.9061
 5177TIP3   OH237021   1.712   5.623   5.499 -0.2230  0.0091  0.3069
 5177TIP3    H137022   1.711   5.643   5.406  1.2488  0.0318  0.2780
 5177TIP3    H237023   1.680   5.702   5.541  0.5570  0.5508 -0.1032
 5178TIP3   OH237024   1.403   3.847  14.420 -0.1144  0.2439 -0.2755
 5178TIP3    H137025   1.426   3.878  14.333  1.2351 -1.1751 -0.4772
 5178TIP3    H237026   1.312   3.871  14.431 -0.2849  0.5444 -2.0434
 5179TIP3   OH237027   0.902   6.172  10.409  0.7151 -0.2288 -0.0593
 5179TIP3    H137028   0.862   6.216  10.335  0.4058 -0.2812  0.0731
 5179TIP3    H237029   0.936   6.090  10.373  0.8189 -0.1239 -0.1995
 5180TIP3   OH237030   3.554   0.279   1.616  0.1741 -0.2277  0.0520
 5180TIP3    H137031   3.470   0.258   1.657 -0.2727  1.4524  0.0808
 5180TIP3    H237032   3.591   0.348   1.671  0.8360  0.1430 -0.8346
 5181TIP3   OH237033   4.212   0.936   1.289  0.1361  0.0569  0.6299
 5181TIP3    H137034   4.140   0.925   1.352 -0.5932  0.0829 -0.1755
 5181TIP3    H237035   4.169   0.930   1.203  1.4619 -2.5443  0.0523
 5182TIP3   OH237036   1.213   5.289   0.672  0.6077  0.4215  0.0868
 5182TIP3    H137037   1.304   5.270   0.652  1.2726  2.5034  0.8617
 5182TIP3    H237038   1.173   5.311   0.588  0.4300 -1.7748 -0.4536
 5183TIP3   OH237039   0.068   4.467   0.991  0.4122  0.1304 -0.6412
 5183TIP3    H137040  -0.006   4.410   1.012  1.5612 -1.5217 -0.8136
 5183TIP3    H237041   0.029   4.550   0.966 -1.3316 -0.3944  0.1788
 5184TIP3   OH237042   0.342   2.308   0.013  0.2442 -0.1025 -0.1204
 5184TIP3    H137043   0.434   2.282   0.008  0.1269 -0.4619 -0.4132
 5184TIP3    H237044   0.332   2.344   0.101  0.7845  0.3920 -0.2546
 5185TIP3   OH237045   4.153   4.148  11.362 -0.1477  0.0774 -0.4538
 5185TIP3    H137046   4.138   4.076  11.423 -0.1581 -0.2389 -0.8303
 5185TIP3    H237047   4.183   4.106  11.281 -1.5964  0.3689 -1.1680
 5186TIP3   OH237048   6.143   5.154   1.343  0.7483 -0.1606  0.7463
 5186TIP3    H137049   6.099   5.150   1.428  1.0815 -1.5307  0.8800
 5186TIP3    H237050   6.199   5.231   1.348 -0.4988  0.7503  1.1216
 5187TIP3   OH237051   3.584   4.920  11.878  0.3574  0.1624  0.1307
 5187TIP3    H137052   3.546   4.934  11.791 -0.6505 -1.0126  0.3613
 5187TIP3    H237053   3.512   4.936  11.939  0.8131  0.0828  0.7021
 5188TIP3   OH237054   6.640   1.081  11.370  0.6536  0.1135  0.0210
 5188TIP3    H137055   6.705   1.064  11.438  2.6791 -0.1505 -1.8630
 5188TIP3    H237056   6.692   1.111  11.295 -1.3217 -0.9643 -1.8671
 5189TIP3   OH237057   1.420   6.648   5.669 -0.2783 -0.3254 -0.5162
 5189TIP3    H137058   1.509   6.683   5.664 -0.5525  0.1573 -2.7748
 5189TIP3    H237059   1.432   6.554   5.679  0.5066 -0.3596 -1.6694
 5190TIP3   OH237060   3.013   1.795   6.336  0.2269 -0.2910  0.3166
 5190TIP3    H137061   3.076   1.865   6.321 -1.1359  0.9937  0.3336
 5190TIP3    H237062   3.061   1.730   6.388  1.8763  0.0460 -0.7257
 5191TIP3   OH237063   1.595   4.013   3.637 -0.5382 -0.8172  0.0056
 5191TIP3    H137064   1.649   3.969   3.703  1.3504 -0.2315 -1.0643
 5191TIP3    H237065   1.583   4.102   3.671 -0.7942 -0.9366  0.2277
 5192TIP3   OH237066   0.394   3.345  15.029 -0.1219 -0.1700  0.2057
 5192TIP3    H137067   0.379   3.273  14.967  0.0777  0.0228 -0.0707
 5192TIP3    H237068   0.443   3.410  14.978 -0.9376  0.4844  0.2384
 5193TIP3   OH237069   1.731   6.198   4.513 -0.0634 -0.0052 -0.1374
 5193TIP3    H137070   1.735   6.226   4.422  0.2700 -0.3385 -0.2291
 5193TIP3    H237071   1.777   6.114   4.515 -1.0076 -0.5262  0.1411
 5194TIP3   OH237072   3.041   5.837  12.251  0.3430  0.1571  0.1034
 5194TIP3    H137073   3.109   5.829  12.318  0.1812  1.4131  0.4416
 5194TIP3    H237074   3.045   5.754  12.203  0.6782 -0.6335  1.4479
 5195TIP3   OH237075   3.019   2.641   2.975 -0.0373 -0.9791 -0.1168
 5195TIP3    H137076   2.935   2.600   2.956  0.6777 -1.3372 -3.0087
 5195TIP3    H237077   2.997   2.722   3.020 -1.9116 -1.2655 -0.4454
 5196TIP3   OH237078   5.839   2.825   2.450  0.3160  0.9892  0.3758
 5196TIP3    H137079   5.919   2.851   2.404  1.4931 -2.7866 -0.1030
 5196TIP3    H237080   5.870   2.771   2.523 -1.6962 -1.1469 -0.2087
 5197TIP3   OH237081   6.265   3.578   2.526  0.0626 -0.0276  0.2575
 5197TIP3    H137082   6.222   3.629   2.594  0.7599  1.0499 -0.0614
 5197TIP3    H237083   6.228   3.611   2.444  0.5764  0.0357  0.0411
 5198TIP3   OH237084   0.063   5.080   3.145 -0.1012 -0.2645  0.1234
 5198TIP3    H137085   0.148   5.057   3.182  0.0324 -1.9942 -1.1700
 5198TIP3    H237086   0.049   5.170   3.173  1.9510 -0.0793  0.7274
 5199TIP3   OH237087   3.456   4.936  14.149 -0.2451 -0.1096  0.6103
 5199TIP3    H137088   3.518   4.869  14.121 -0.4225 -0.0129 -0.0430
 5199TIP3    H237089   3.414   4.964  14.068  0.0847  1.0525  0.8294
 5200TIP3   OH237090   3.454   5.884   4.633  0.2068  0.4937 -0.0354
 5200TIP3    H137091   3.504   5.965   4.634  1.3620 -0.1937  0.5811
 5200TIP3    H237092   3.464   5.850   4.545 -0.5475  1.1584 -0.3928
 5201TIP3   OH237093   3.574   3.397   0.837  0.3327 -0.2511 -0.3506
 5201TIP3    H137094   3.554   3.459   0.906 -1.3239  1.2476 -2.0704
 5201TIP3    H237095   3.546   3.312   0.871  0.7726  0.2279  1.2630
 5202TIP3   OH237096   0.582   4.888  12.733  0.3124 -0.4365  0.3302
 5202TIP3    H137097   0.518   4.900  12.804  0.2079  3.0881 -0.1774
 5202TIP3    H237098   0.528   4.876  12.655  0.3607 -1.1533  0.4044
 5203TIP3   OH237099   0.980   4.389   5.715  0.3628  0.6713  0.2694
 5203TIP3    H137100   1.008   4.398   5.806  1.6218  1.0581 -0.1311
 5203TIP3    H237101   0.972   4.479   5.683 -2.9395  0.6849  0.7642
 5204TIP3   OH237102   2.407   5.599  16.831 -0.0539 -0.8521  0.9361
 5204TIP3    H137103   2.374   5.688  16.827 -0.4549 -0.9270  2.1368
 5204TIP3    H237104   2.492   5.607  16.874 -0.1720 -1.0618  1.2145
 5205TIP3   OH237105   3.831   1.308   5.471 -0.0304  0.6810  0.1647
 5205TIP3    H137106   3.890   1.273   5.538  0.5448  0.2830 -0.5390
 5205TIP3    H237107   3.813   1.398   5.500 -1.1368 -0.0013  1.7301
 5206TIP3   OH237108   3.482   0.820  14.700  0.1389 -0.0918  0.1412
 5206TIP3    H137109   3.548   0.756  14.726  1.2470  0.6412 -0.7834
 5206TIP3    H237110   3.423   0.826  14.776  0.9804 -0.9448  0.8802
 5207TIP3   OH237111   1.430   6.457  14.052  0.6183  0.0271 -0.7469
 5207TIP3    H137112   1.461   6.405  13.978 -2.5527 -1.5056 -1.1570
 5207TIP3    H237113   1.338   6.432  14.063  0.7905  0.4654  3.4708
 5208TIP3   OH237114   5.891   3.194  14.698 -0.4684  0.4459 -0.0540
 5208TIP3    H137115   5.887   3.283  14.732 -0.5223  0.3294  0.2487
 5208TIP3    H237116   5.954   3.198  14.626  0.9385  0.3317  1.1432
 5209TIP3   OH237117   2.416   5.406  12.299  0.6248  0.1730  0.3257
 5209TIP3    H137118   2.330   5.449  12.294 -0.5581 -2.0713 -0.6269
 5209TIP3    H237119   2.422   5.375  12.389 -0.3274 -0.9856  0.0214
 5210TIP3   OH237120   3.315   1.191  16.043 -0.0817 -0.2099  0.2070
 5210TIP3    H137121   3.292   1.220  15.954  3.4372  1.4185 -0.3230
 5210TIP3    H237122   3.379   1.121  16.030 -0.4125 -0.7849  1.5138
 5211TIP3   OH237123   0.292   4.413   5.195  0.1012  0.1260  0.4669
 5211TIP3    H137124   0.290   4.479   5.126 -1.5743 -0.2087  0.1467
 5211TIP3    H237125   0.359   4.351   5.167 -0.2955  0.1974 -0.6813
 5212TIP3   OH237126   6.429   2.898  12.233 -0.1677  0.5113 -0.5325
 5212TIP3    H137127   6.444   2.959  12.161  0.0397  1.2931  0.1487
 5212TIP3    H237128   6.453   2.948  12.311  1.7320 -1.0168 -0.0641
 5213TIP3   OH237129   6.416   2.599   4.883  0.4434 -0.0250  0.0145
 5213TIP3    H137130   6.425   2.587   4.978 -2.9317  3.2190  1.0059
 5213TIP3    H237131   6.494   2.649   4.858 -0.6774  3.1900  2.2345
 5214TIP3   OH237132   1.468   0.802  12.617 -0.2870  0.4554 -0.1758
 5214TIP3    H137133   1.470   0.716  12.660 -1.9053  0.7065  0.4909
 5214TIP3    H237134   1.507   0.861  12.681 -0.2159  0.4043 -0.1707
 5215TIP3   OH237135   6.077   4.215  16.117 -0.2500 -0.2179  0.7123
 5215TIP3    H137136   6.011   4.217  16.186 -0.5486 -0.7566  0.4496
 5215TIP3    H237137   6.158   4.193  16.163 -0.6790 -1.8719  0.7431
 5216TIP3   OH237138   2.150   2.544  13.923  0.4223 -0.1594  0.3074
 5216TIP3    H137139   2.095   2.608  13.969 -0.3809 -1.1924  0.8448
 5216TIP3    H237140   2.137   2.563  13.830  1.0660  1.1476  0.4697
 5217TIP3   OH237141   0.814   1.032  12.406 -0.1576 -0.1345 -0.8686
 5217TIP3    H137142   0.753   0.998  12.340 -0.7386  1.0209 -0.9428
 5217TIP3    H237143   0.768   1.105  12.447  0.5316 -0.2974  0.2413
 5218TIP3   OH237144   2.359   1.311   4.906 -0.7619 -0.0002  0.2561
 5218TIP3    H137145   2.358   1.327   5.001 -0.6968  1.9818 -0.0456
 5218TIP3    H237146   2.268   1.322   4.879 -0.5301  1.0454 -0.1361
 5219TIP3   OH237147   4.136   3.683   4.937  0.1146  0.2241 -0.0141
 5219TIP3    H137148   4.118   3.590   4.947 -1.2828  0.4926  0.1314
 5219TIP3    H237149   4.176   3.709   5.020  0.0702 -0.1507  0.1272
 5220TIP3   OH237150   2.835   1.228  16.387  0.8250 -0.0656 -0.0343
 5220TIP3    H137151   2.888   1.160  16.343  0.8918 -0.7447  1.0548
 5220TIP3    H237152   2.900   1.290  16.420  0.8978 -0.4609  0.5798
 5221TIP3   OH237153   3.997   3.878  17.260  0.0388  0.4122  0.2879
 5221TIP3    H137154   3.917   3.846  17.219  0.5007 -0.5713  0.1321
 5221TIP3    H237155   3.973   3.895  17.351  0.2564 -2.3871  0.9357
 5222TIP3   OH237156   6.427   6.500   3.787  0.1614  0.0603 -0.1394
 5222TIP3    H137157   6.490   6.446   3.741 -0.0515  0.6353 -1.1562
 5222TIP3    H237158   6.355   6.511   3.724 -0.6820 -0.1017  0.7746
 5223TIP3   OH237159   4.964   5.724  16.841  0.5735  0.2131 -0.0709
 5223TIP3    H137160   5.058   5.742  16.855  0.6622 -0.8053  0.7741
 5223TIP3    H237161   4.962   5.655  16.775  0.5028 -0.8426  1.0043
 5224TIP3   OH237162   0.975   5.880  12.264 -0.4463 -0.3081 -0.4080
 5224TIP3    H137163   0.992   5.830  12.345  2.6674 -0.0113 -0.7536
 5224TIP3    H237164   1.034   5.841  12.200 -0.2184  1.8141 -1.5522
 5225TIP3   OH237165   6.072   2.502   6.464  0.0543 -0.1950 -0.3050
 5225TIP3    H137166   6.106   2.573   6.519  1.1087 -0.0753 -1.0897
 5225TIP3    H237167   5.978   2.500   6.484 -0.0203  1.4813 -0.3298
 5226TIP3   OH237168   6.242   5.750  16.250  0.5789  0.7223  0.3618
 5226TIP3    H137169   6.171   5.760  16.186  1.0704  0.0609 -0.3005
 5226TIP3    H237170   6.211   5.681  16.309  1.0123 -0.2010 -0.4477
 5227TIP3   OH237171   5.502   4.888  14.584  0.3765 -0.4100  0.1407
 5227TIP3    H137172   5.572   4.823  14.578  1.4074  0.3986  2.4010
 5227TIP3    H237173   5.437   4.847  14.641  0.1208 -0.2108 -0.0074
 5228TIP3   OH237174   6.187   2.204   1.051  0.2317  0.1542 -0.3590
 5228TIP3    H137175   6.148   2.125   1.089  0.2436  1.0434  1.6085
 5228TIP3    H237176   6.279   2.180   1.034 -0.1979 -0.7796 -1.4809
 5229TIP3   OH237177   6.231   6.206   0.329  0.0794 -0.3230 -0.3427
 5229TIP3    H137178   6.243   6.119   0.368 -0.7349  0.1159  0.9752
 5229TIP3    H237179   6.137   6.220   0.331  0.3236  1.5668  1.8312
 5230TIP3   OH237180   2.311   6.677   0.854  0.1024 -0.4558  0.7990
 5230TIP3    H137181   2.381   6.614   0.835 -0.3395 -0.2816 -1.7639
 5230TIP3    H237182   2.345   6.760   0.821 -0.7136 -0.0750  0.8988
 5231TIP3   OH237183   1.765   1.016   4.023  0.5787 -0.4706  0.0017
 5231TIP3    H137184   1.684   1.064   4.041  0.4053 -0.1820 -1.3989
 5231TIP3    H237185   1.835   1.080   4.039  0.4789 -0.4291  0.2774
 5232TIP3   OH237186   4.453   4.795   1.992  0.2293  0.0156 -0.4513
 5232TIP3    H137187   4.519   4.746   2.042  0.0959  1.7354  1.5774
 5232TIP3    H237188   4.404   4.728   1.944  0.1898 -1.8347  1.9642
 5233TIP3   OH237189   4.894   5.223   2.132  0.3275 -0.5471 -0.1408
 5233TIP3    H137190   4.858   5.213   2.043  1.1876 -1.6775 -0.3792
 5233TIP3    H237191   4.904   5.318   2.143 -0.5851 -0.3439 -0.9213
 5234TIP3   OH237192   3.088   1.313   0.091 -0.0284  0.4348 -0.2401
 5234TIP3    H137193   3.078   1.248   0.161  1.1849 -2.4388 -2.5382
 5234TIP3    H237194   3.049   1.271   0.014  2.7278  1.4340 -2.3357
 5235TIP3   OH237195   2.957   3.845   3.218  0.0513  0.6445 -0.4549
 5235TIP3    H137196   2.913   3.827   3.135 -2.1605 -0.8527  0.9392
 5235TIP3    H237197   2.890   3.831   3.285  1.3106  3.2792  1.5530
 5236TIP3   OH237198   3.078   6.172  16.222 -0.3686 -0.5815 -0.1978
 5236TIP3    H137199   3.043   6.128  16.300 -1.5868  2.4816  1.1654
 5236TIP3    H237200   3.172   6.180  16.240 -0.5028 -0.6435  0.5773
 5237TIP3   OH237201   2.820   2.545   5.425  0.2340 -0.1288 -0.7194
 5237TIP3    H137202   2.755   2.494   5.379  0.3934 -0.0674 -1.0149
 5237TIP3    H237203   2.885   2.481   5.454 -0.5506 -0.3573  0.6164
 5238TIP3   OH237204   1.120   3.314  15.416 -0.0015  0.2148 -0.3607
 5238TIP3    H137205   1.195   3.255  15.412  0.1087  0.3913 -1.0638
 5238TIP3    H237206   1.137   3.379  15.348 -0.0480  1.1433  0.4926
 5239TIP3   OH237207   5.787   0.559   4.669 -0.7773  0.3502  0.3241
 5239TIP3    H137208   5.697   0.567   4.637 -0.6260  0.8752  0.0219
 5239TIP3    H237209   5.809   0.647   4.700 -0.0526  0.4651 -0.4673
 5240TIP3   OH237210   2.551   4.033   0.915  0.1512 -0.2920  0.0275
 5240TIP3    H137211   2.616   3.978   0.870  0.9623  1.0179 -0.4622
 5240TIP3    H237212   2.495   3.971   0.961  1.5989 -1.4853  0.2566
 5241TIP3   OH237213   3.216   3.230   0.660 -0.8266 -0.0800 -0.6885
 5241TIP3    H137214   3.149   3.272   0.605 -0.6985  0.6264 -0.3173
 5241TIP3    H237215   3.297   3.275   0.636 -0.7263  0.0449 -0.1223
 5242TIP3   OH237216   6.095   6.493  14.209 -0.1882  0.0255  0.4162
 5242TIP3    H137217   6.185   6.510  14.181 -0.0894 -1.0079  0.0489
 5242TIP3    H237218   6.103   6.473  14.302 -0.0148 -0.1957  0.3565
 5243TIP3   OH237219   3.366   3.795   4.017 -0.0879  0.1585 -0.1286
 5243TIP3    H137220   3.451   3.839   4.005 -0.3814  0.7239 -0.1472
 5243TIP3    H237221   3.347   3.757   3.931  1.0180 -1.5678  0.3356
 5244TIP3   OH237222   0.889   3.230   3.986 -0.5123  0.1459 -0.0989
 5244TIP3    H137223   0.881   3.143   3.948  0.9567 -0.7484  1.4614
 5244TIP3    H237224   0.959   3.272   3.936  0.5485 -0.5638  0.7240
 5245TIP3   OH237225   2.362   5.157   2.536 -0.3580  0.0332  0.8715
 5245TIP3    H137226   2.449   5.191   2.556 -0.6102  1.3568 -0.1417
 5245TIP3    H237227   2.304   5.201   2.598 -0.4501  0.0180  0.7973
 5246TIP3   OH237228   2.746   1.073  12.253  0.1803  0.5081 -0.0079
 5246TIP3    H137229   2.668   1.116  12.288 -0.6958  0.1184 -1.4056
 5246TIP3    H237230   2.817   1.136  12.266 -0.1518  0.5398  2.0639
 5247TIP3   OH237231   2.171   3.284   1.220  0.2508  0.3927 -0.2484
 5247TIP3    H137232   2.208   3.298   1.307 -1.8018 -0.1951  0.7876
 5247TIP3    H237233   2.186   3.191   1.203 -1.9094 -0.2151  0.8311
 5248TIP3   OH237234   4.772   0.476  14.685  0.0953 -0.1426 -0.9280
 5248TIP3    H137235   4.866   0.465  14.702  0.6718  3.1433 -1.4079
 5248TIP3    H237236   4.734   0.494  14.771  0.8742  3.6053 -1.2104
 5249TIP3   OH237237   6.648   6.548  13.902 -0.2693  0.2131 -0.0343
 5249TIP3    H137238   6.649   6.534  13.807 -0.2310  0.0365 -0.0080
 5249TIP3    H237239   6.732   6.590  13.921 -0.2328  0.1530 -0.0631
 5250TIP3   OH237240   3.455   1.339   5.837  0.3560 -0.6513  0.3763
 5250TIP3    H137241   3.543   1.302   5.833  0.5434 -0.1567 -0.2884
 5250TIP3    H237242   3.463   1.418   5.891  0.0397 -1.3219  1.4422
 5251TIP3   OH237243   6.021   2.363  13.042  0.1065  0.2470  0.1843
 5251TIP3    H137244   6.019   2.303  13.117  1.1720  0.1101  0.1113
 5251TIP3    H237245   5.930   2.390  13.031 -0.2570 -0.7173  0.7333
 5252TIP3   OH237246   0.266   0.944  16.828  0.1992 -0.3766 -0.9872
 5252TIP3    H137247   0.296   0.856  16.803  0.3034 -0.1103 -1.8505
 5252TIP3    H237248   0.178   0.950  16.790 -0.3206 -0.5646  0.1581
 5253TIP3   OH237249   0.146   3.663  13.087 -0.3705 -0.0015  0.2770
 5253TIP3    H137250   0.190   3.587  13.126 -0.8256  0.8314  2.5300
 5253TIP3    H237251   0.053   3.646  13.100 -0.5023  0.6418  0.1949
 5254TIP3   OH237252   3.334   6.285   1.625 -0.0184  0.6944 -0.3800
 5254TIP3    H137253   3.245   6.318   1.611 -0.6072 -0.9448 -0.6892
 5254TIP3    H237254   3.335   6.255   1.716 -0.0987 -0.2067 -0.6709
 5255TIP3   OH237255   5.846   5.951   1.897 -0.0046  0.7093 -0.5274
 5255TIP3    H137256   5.752   5.949   1.915  0.3160  2.1836  1.6765
 5255TIP3    H237257   5.858   6.028   1.841  0.1080  1.9819  1.1622
 5256TIP3   OH237258   5.742   0.965   3.871 -0.1977 -0.0113  0.4187
 5256TIP3    H137259   5.830   0.942   3.898 -0.0394 -0.8358 -0.7139
 5256TIP3    H237260   5.753   1.038   3.810 -0.4571  1.0749  1.6396
 5257TIP3   OH237261   6.334   1.610   6.077 -0.0514  1.1860  0.3917
 5257TIP3    H137262   6.405   1.647   6.129 -0.6041  3.7192 -0.4828
 5257TIP3    H237263   6.260   1.669   6.094 -2.0515 -1.4364  1.3891
 5258TIP3   OH237264   2.563   4.341  11.053 -0.2151  0.3166  0.0313
 5258TIP3    H137265   2.597   4.428  11.029  1.7242 -0.7917 -1.6052
 5258TIP3    H237266   2.632   4.303  11.107 -0.4559 -0.6742 -0.3400
 5259TIP3   OH237267   3.502   6.156  16.561  0.3777  0.6840 -0.1502
 5259TIP3    H137268   3.586   6.112  16.575  0.0109 -1.5210 -3.6865
 5259TIP3    H237269   3.523   6.249  16.560  3.0089  0.1675 -1.7986
 5260TIP3   OH237270   3.292   2.910   3.691  0.1141  0.1732 -0.2323
 5260TIP3    H137271   3.298   2.926   3.597 -0.4750 -0.4251 -0.3768
 5260TIP3    H237272   3.226   2.841   3.700 -0.8807  1.1909  0.7079
 5261TIP3   OH237273   5.447   5.838   1.020 -0.0229 -0.5352 -0.0813
 5261TIP3    H137274   5.471   5.797   1.103 -0.8642  1.8342  1.4319
 5261TIP3    H237275   5.351   5.837   1.019 -0.1034  1.7849  0.3007
 5262TIP3   OH237276   5.450   5.034   1.619 -0.7073 -0.0579 -0.0607
 5262TIP3    H137277   5.412   5.078   1.543 -1.2942 -0.0707  0.2160
 5262TIP3    H237278   5.470   5.104   1.681 -0.5015 -0.0711 -0.1134
 5263TIP3   OH237279   1.927   5.985  13.909  0.1391 -0.0876 -0.0571
 5263TIP3    H137280   1.977   6.045  13.964  0.6517  0.0651 -0.6806
 5263TIP3    H237281   1.851   6.035  13.880 -0.6469 -0.4641  1.2738
 5264TIP3   OH237282   0.878   0.290   4.571  0.0096  0.1974 -0.0871
 5264TIP3    H137283   0.895   0.301   4.665 -0.9913  0.6203  0.0525
 5264TIP3    H237284   0.855   0.377   4.540 -0.6726 -0.1253 -0.5127
 5265TIP3   OH237285   0.888   2.311  12.573  0.1181 -0.2508 -0.1701
 5265TIP3    H137286   0.796   2.333  12.559  0.1646  0.5171  0.6810
 5265TIP3    H237287   0.886   2.243  12.641  0.2315  0.7430  0.8574
 5266TIP3   OH237288   3.293   1.859   6.055  0.3544  0.1518  0.1081
 5266TIP3    H137289   3.289   1.871   6.150  0.0346 -0.3483  0.1627
 5266TIP3    H237290   3.353   1.927   6.024 -0.6498  1.2528  0.4944
 5267TIP3   OH237291   6.326   3.387   0.679  0.6455 -0.0754  0.6283
 5267TIP3    H137292   6.285   3.302   0.662 -1.8365  1.0760  0.4371
 5267TIP3    H237293   6.325   3.395   0.774 -1.9108  0.9236  0.5907
 5268TIP3   OH237294   5.275   6.764  12.383  0.8596 -0.5655  0.0594
 5268TIP3    H137295   5.275   6.803  12.296 -0.6743 -0.2975  0.1538
 5268TIP3    H237296   5.363   6.781  12.417  0.0566  3.9160  0.5556
 5269TIP3   OH237297   3.994   0.453   4.393  0.5536 -0.1359  0.0399
 5269TIP3    H137298   3.923   0.437   4.455 -0.2635 -0.0143 -0.8403
 5269TIP3    H237299   4.056   0.508   4.440 -0.9210  1.4506  0.1880
 5270TIP3   OH237300   5.463   2.164   0.496  0.2529  0.7694 -0.2041
 5270TIP3    H137301   5.535   2.189   0.554  0.7525 -0.8047 -0.0889
 5270TIP3    H237302   5.484   2.074   0.470 -0.5133  1.0623 -1.9810
 5271TIP3   OH237303   0.925   6.645  17.077 -0.0855  0.1627  0.2798
 5271TIP3    H137304   0.991   6.701  17.037 -0.4711  1.1377  0.9597
 5271TIP3    H237305   0.843   6.692  17.063 -0.7475 -1.2896 -1.0491
 5272TIP3   OH237306   5.004   6.004  16.180 -0.0550  0.0745 -0.7897
 5272TIP3    H137307   5.058   5.995  16.259  0.1082  0.6360 -0.8322
 5272TIP3    H237308   5.031   6.088  16.142  0.0032 -0.2826 -1.5491
 5273TIP3   OH237309   1.064   1.668  13.103 -0.1918 -0.1435 -0.2794
 5273TIP3    H137310   1.068   1.573  13.087  0.1658 -0.1331 -0.2574
 5273TIP3    H237311   1.156   1.695  13.108 -0.2965  0.1491  0.0488
 5274TIP3   OH237312   5.493   4.836  11.734 -0.4495  0.2909  0.2894
 5274TIP3    H137313   5.519   4.928  11.739  2.0686 -0.3735  0.9844
 5274TIP3    H237314   5.560   4.790  11.785 -0.0710 -2.2187 -2.2641
 5275TIP3   OH237315   2.289   0.269   5.489 -0.7616  0.0617  0.1328
 5275TIP3    H137316   2.339   0.318   5.424 -1.3581 -0.8977 -1.0815
 5275TIP3    H237317   2.225   0.332   5.522 -0.2259  0.6548  0.0674
 5276TIP3   OH237318   2.968   5.481  15.839  0.3977 -0.0467  0.4549
 5276TIP3    H137319   2.991   5.390  15.818  0.1925 -0.1043  0.4822
 5276TIP3    H237320   3.045   5.515  15.885  1.2433  0.3648 -1.1887
 5277TIP3   OH237321   6.329   5.588  15.536 -0.2798 -0.1872 -0.1062
 5277TIP3    H137322   6.380   5.644  15.594 -1.0451 -0.0917  0.4829
 5277TIP3    H237323   6.330   5.633  15.451  2.1169 -1.0634 -0.6203
 5278TIP3   OH237324   5.968   5.585  15.986 -0.0614 -0.2666  0.0368
 5278TIP3    H137325   5.894   5.638  15.956 -0.2009 -0.5590 -0.1425
 5278TIP3    H237326   5.930   5.499  16.001  0.0616 -0.1869  0.8173
 5279TIP3   OH237327   6.517   1.704   0.311 -0.3491 -0.1987  0.0136
 5279TIP3    H137328   6.423   1.718   0.324 -0.2994  1.2957 -1.1148
 5279TIP3    H237329   6.559   1.756   0.380 -0.3190 -0.9587  0.5917
 5280TIP3   OH237330   2.791   3.244  13.686 -0.1374 -0.2175  0.4606
 5280TIP3    H137331   2.788   3.188  13.764  0.0133  0.1784  0.7535
 5280TIP3    H237332   2.745   3.324  13.712 -1.0509 -0.5015 -0.2034
 5281TIP3   OH237333   0.456   0.536   4.397  0.1046  0.1318 -0.1691
 5281TIP3    H137334   0.494   0.546   4.309  0.5748 -1.3445 -0.1642
 5281TIP3    H237335   0.381   0.478   4.383 -0.0089  0.1524  0.3600
 5282TIP3   OH237336   4.044   3.474  10.688  0.1007 -0.0008 -0.6491
 5282TIP3    H137337   4.048   3.570  10.686  0.9991 -0.0289 -0.4591
 5282TIP3    H237338   3.974   3.452  10.627 -0.2896  0.7872 -0.4967
 5283TIP3   OH237339   6.193   1.836  15.447 -0.0958 -1.2011  0.0904
 5283TIP3    H137340   6.235   1.902  15.502 -2.4056  1.5205 -1.1942
 5283TIP3    H237341   6.266   1.787  15.409  1.7207  0.4383  1.2862
 5284TIP3   OH237342   2.237   1.459   5.449 -0.2888 -0.8049 -0.6238
 5284TIP3    H137343   2.327   1.492   5.450 -0.0633 -1.4082  0.3431
 5284TIP3    H237344   2.186   1.525   5.497 -0.1443 -1.0299 -0.1556
 5285TIP3   OH237345   0.427   2.350   3.873 -0.2846 -0.1791  0.0901
 5285TIP3    H137346   0.522   2.360   3.878 -0.5059  1.3939  2.5844
 5285TIP3    H237347   0.392   2.426   3.919 -2.8062 -0.3933 -1.3041
 5286TIP3   OH237348   4.061   6.366  14.762  0.2096 -0.0017 -0.6983
 5286TIP3    H137349   4.129   6.341  14.700 -0.0334  0.3079 -1.0918
 5286TIP3    H237350   3.987   6.392  14.707  0.4309  1.5298 -0.2927
 5287TIP3   OH237351   5.806   4.864  12.199 -0.4329 -0.2151 -0.5174
 5287TIP3    H137352   5.718   4.877  12.166 -0.5445  1.8363  0.4747
 5287TIP3    H237353   5.863   4.884  12.125 -0.7565 -0.2691 -0.7832
 5288TIP3   OH237354   0.505   4.020  15.656  0.2489 -0.2169  0.4177
 5288TIP3    H137355   0.428   3.973  15.622  0.1395  1.1382 -1.3490
 5288TIP3    H237356   0.481   4.112  15.650  0.8471  0.1685  2.8841
 5289TIP3   OH237357   5.424   3.717  11.761 -0.1847  1.1135 -0.3957
 5289TIP3    H137358   5.362   3.769  11.711 -0.4838 -0.9837 -2.3747
 5289TIP3    H237359   5.474   3.669  11.695  1.2496  0.2089  1.2550
 5290TIP3   OH237360   4.198   0.416   2.377  0.4284  0.2400  0.3242
 5290TIP3    H137361   4.209   0.511   2.381 -0.4576  0.2945  1.6779
 5290TIP3    H237362   4.118   0.398   2.425  1.3776 -1.3360  1.4303
 5291TIP3   OH237363   2.361   0.097   2.409 -0.1569 -0.0807 -0.1287
 5291TIP3    H137364   2.367   0.059   2.497 -1.1498  1.7500  0.7918
 5291TIP3    H237365   2.272   0.076   2.380 -0.5181  1.0160  0.1571
 5292TIP3   OH237366   2.899   0.383  11.169 -0.7023 -0.0115 -0.3355
 5292TIP3    H137367   2.948   0.447  11.220  0.3859 -0.1125 -1.1995
 5292TIP3    H237368   2.808   0.397  11.193 -0.2156 -0.4151  2.0016
 5293TIP3   OH237369   6.700   3.861   6.463  0.2941 -0.5113 -0.0755
 5293TIP3    H137370   6.779   3.827   6.506  0.5479 -0.0786 -0.1962
 5293TIP3    H237371   6.630   3.845   6.526  0.4390 -1.0876 -0.0537
 5294TIP3   OH237372   6.238   0.158   3.841 -0.1379 -0.7776  0.4106
 5294TIP3    H137373   6.161   0.136   3.893  0.3423 -0.9851  1.0566
 5294TIP3    H237374   6.300   0.193   3.906 -0.8288  2.5247 -0.4855
 5295TIP3   OH237375   0.687   5.991  15.286  0.0924  0.6029 -0.3745
 5295TIP3    H137376   0.781   6.009  15.287  0.5288 -1.4287  0.2386
 5295TIP3    H237377   0.676   5.928  15.215 -0.3774 -0.9882  1.0417
 5296TIP3   OH237378   2.683   3.783  16.764  0.1111 -0.4192 -0.5318
 5296TIP3    H137379   2.688   3.876  16.785 -0.5687 -0.2477 -1.1188
 5296TIP3    H237380   2.703   3.739  16.847 -0.8049  0.2405  0.0608
 5297TIP3   OH237381   3.242   2.591   4.853 -0.0253 -0.3452 -0.3380
 5297TIP3    H137382   3.178   2.634   4.909 -0.3590  0.3353 -1.2152
 5297TIP3    H237383   3.302   2.546   4.913 -1.1534 -0.7535  0.4946
 5298TIP3   OH237384   6.557   3.969  13.383  0.4779 -0.0995 -0.4456
 5298TIP3    H137385   6.589   4.057  13.403  0.1974  0.0328 -0.5713
 5298TIP3    H237386   6.462   3.978  13.383  0.4370 -0.4805 -0.1160
 5299TIP3   OH237387   0.472   0.212   0.477  0.8206 -0.3159 -0.3504
 5299TIP3    H137388   0.526   0.250   0.546  0.7473 -1.0374  0.1174
 5299TIP3    H237389   0.426   0.140   0.520  0.1000 -0.2228 -0.9391
 5300TIP3   OH237390   1.756   4.308  12.979  0.3698 -0.0843  0.4607
 5300TIP3    H137391   1.747   4.217  12.952  1.5325  0.2135 -1.1708
 5300TIP3    H237392   1.696   4.356  12.922 -0.2940  0.1788  1.3620
 5301TIP3   OH237393   0.658   6.127   0.084  0.2826  0.1236  0.1510
 5301TIP3    H137394   0.578   6.142   0.133  0.7897  0.6425  0.8284
 5301TIP3    H237395   0.663   6.201   0.023 -0.7055 -0.8755 -1.2048
 5302TIP3   OH237396   1.342   4.643  12.148  0.5885  0.1101 -0.0733
 5302TIP3    H137397   1.374   4.709  12.210  0.2771  0.8269 -0.6576
 5302TIP3    H237398   1.282   4.590  12.199 -0.3356  1.2276  0.0525
 5303TIP3   OH237399   0.130   1.238  14.200  0.3414 -0.6304 -0.1329
 5303TIP3    H137400   0.179   1.220  14.280  0.0979  0.1909  0.2041
 5303TIP3    H237401   0.092   1.325  14.213 -0.2436 -0.7610 -0.8681
 5304TIP3   OH237402   1.235   3.423   3.580 -0.0147 -0.2302 -1.0883
 5304TIP3    H137403   1.276   3.472   3.509 -0.6786  1.0666 -0.6238
 5304TIP3    H237404   1.141   3.438   3.568 -0.1860 -0.7303 -0.4462
 5305TIP3   OH237405   0.940   4.057   0.727  0.7291  0.3680 -0.2825
 5305TIP3    H137406   0.895   4.097   0.652  0.1645  0.3147  0.0270
 5305TIP3    H237407   0.871   4.040   0.791  0.9622 -1.0465 -0.3792
 5306TIP3   OH237408   5.318   0.302  15.673 -0.4875  0.1954 -0.1892
 5306TIP3    H137409   5.333   0.355  15.751 -0.9362 -1.4882  1.1050
 5306TIP3    H237410   5.406   0.273  15.647 -0.3407  0.7257 -0.3079
 5307TIP3   OH237411   2.873   1.278   5.271  0.2089  0.0196  0.0611
 5307TIP3    H137412   2.788   1.237   5.288  0.2740  0.2297  0.9110
 5307TIP3    H237413   2.860   1.371   5.293 -0.2596  0.7706 -2.8721
 5308TIP3   OH237414   0.582   0.499  15.906 -0.5040 -0.2032 -0.3804
 5308TIP3    H137415   0.650   0.565  15.921 -1.4384  0.1988  2.7409
 5308TIP3    H237416   0.631   0.417  15.896  0.5346  0.5034 -1.3418
 5309TIP3   OH237417   0.144   1.571  13.871  0.3148 -0.0143  0.3336
 5309TIP3    H137418   0.168   1.648  13.923 -1.0527  1.4317 -1.0939
 5309TIP3    H237419   0.052   1.555  13.891 -0.1155  0.3033 -1.2890
 5310TIP3   OH237420   1.546   3.710   0.312 -0.1044 -0.1317  0.1103
 5310TIP3    H137421   1.617   3.774   0.318 -0.1248 -0.0486 -0.4485
 5310TIP3    H237422   1.579   3.642   0.253 -0.5627  0.0179 -0.3361
 5311TIP3   OH237423   1.211   1.448  13.696  0.2514  0.3773 -0.2040
 5311TIP3    H137424   1.229   1.510  13.767 -0.5971  0.0080  0.3597
 5311TIP3    H237425   1.263   1.479  13.623  0.6883  1.1189  0.4049
 5312TIP3   OH237426   0.884   4.793   4.716  0.1916 -0.1107  0.3304
 5312TIP3    H137427   0.980   4.786   4.717  0.3282  1.3805  1.1481
 5312TIP3    H237428   0.854   4.705   4.695  1.7690 -0.2508 -1.7807
 5313TIP3   OH237429   3.652   0.386   1.866  0.4721  0.0168  0.5016
 5313TIP3    H137430   3.660   0.477   1.838 -0.2181 -0.1215 -0.1697
 5313TIP3    H237431   3.587   0.388   1.936  1.3425  0.1987  1.3231
 5314TIP3   OH237432   6.443   5.365  13.623 -0.3418 -1.2047 -0.2885
 5314TIP3    H137433   6.381   5.384  13.553  0.4039 -1.7942 -1.1287
 5314TIP3    H237434   6.474   5.451  13.652  0.1116 -0.9759 -1.4053
 5315TIP3   OH237435   1.098   0.000   6.048 -0.1879 -0.0321 -0.1578
 5315TIP3    H137436   1.019  -0.015   6.099  0.5093 -0.7702  0.7459
 5315TIP3    H237437   1.136   0.080   6.086  0.9608 -1.2309  1.3696
 5316TIP3   OH237438   4.214   0.919  11.097  0.1801  0.1984  0.7562
 5316TIP3    H137439   4.280   0.879  11.041  0.3412  0.6401  0.6353
 5316TIP3    H237440   4.139   0.933  11.040 -0.0185 -0.2780  0.8869
 5317TIP3   OH237441   4.778   3.851  16.864  0.1634  0.2539 -0.0747
 5317TIP3    H137442   4.709   3.822  16.804  0.5817  0.0339 -0.4562
 5317TIP3    H237443   4.734   3.860  16.949 -0.4682  0.7201 -0.4414
 5318TIP3   OH237444   3.751   4.427   4.000 -0.0825 -0.2451  0.3578
 5318TIP3    H137445   3.785   4.349   4.045  0.4215  0.2193  0.7935
 5318TIP3    H237446   3.780   4.417   3.909  0.2590 -0.4075  0.4814
 5319TIP3   OH237447   6.059   6.507  15.772  0.5921 -0.1032  0.1870
 5319TIP3    H137448   6.025   6.453  15.843  0.6356 -0.7690 -0.2961
 5319TIP3    H237449   6.029   6.596  15.793  0.8874 -0.2399  1.2027
 5320TIP3   OH237450   0.125   5.873  15.405  0.2229 -0.1333 -0.2421
 5320TIP3    H137451   0.219   5.865  15.385  0.0259 -1.4300 -0.7686
 5320TIP3    H237452   0.119   5.950  15.461  1.3087  1.2843 -1.9605
 5321TIP3   OH237453   0.822   1.479   4.151  0.3465 -0.4392 -0.6831
 5321TIP3    H137454   0.917   1.485   4.163  0.2497 -0.6750  0.2762
 5321TIP3    H237455   0.804   1.539   4.079  0.9790  1.1518  0.4230
 5322TIP3   OH237456   1.961   6.584  14.095  0.6215  0.2744 -0.3524
 5322TIP3    H137457   2.043   6.554  14.057  1.0450  0.9669 -0.0008
 5322TIP3    H237458   1.978   6.673  14.123 -0.7196  0.9850 -1.6691
 5323TIP3   OH237459   0.180   3.877  13.251  0.1256  0.4337  0.0655
 5323TIP3    H137460   0.267   3.903  13.284  0.1625  0.2679  0.0996
 5323TIP3    H237461   0.197   3.799  13.199  0.0260  0.5309 -0.1109
 5324TIP3   OH237462   3.254   0.834   6.780  0.3369 -0.1945  0.0334
 5324TIP3    H137463   3.161   0.821   6.798 -0.0108  0.7237 -0.9963
 5324TIP3    H237464   3.295   0.752   6.807 -0.9050 -0.9881 -0.3736
 5325TIP3   OH237465   1.982   4.880   5.926 -0.0773 -0.5302 -0.2440
 5325TIP3    H137466   1.936   4.945   5.980 -0.6658 -1.9967  1.0933
 5325TIP3    H237467   2.059   4.856   5.978 -0.6706 -1.9998 -0.0014
 5326TIP3   OH237468   1.388   3.783   3.662 -0.6843  0.2749 -0.3770
 5326TIP3    H137469   1.299   3.794   3.695 -0.2701 -1.5240  1.5765
 5326TIP3    H237470   1.381   3.797   3.567 -3.2221 -0.7354 -0.4079
 5327TIP3   OH237471   1.924   0.147  13.274 -0.1345  0.2007  0.3076
 5327TIP3    H137472   1.938   0.181  13.363 -2.3919  1.4412  0.2805
 5327TIP3    H237473   1.874   0.066  13.287  1.8546 -1.1204  0.2049
 5328TIP3   OH237474   0.652   5.026  14.516 -0.7492  0.0080 -0.4487
 5328TIP3    H137475   0.576   4.989  14.560 -0.0922 -2.1002 -0.9698
 5328TIP3    H237476   0.728   4.981  14.555  0.1257  1.0271 -0.9135
 5329TIP3   OH237477   4.301   2.644  14.489  0.1204 -0.4835 -0.3062
 5329TIP3    H137478   4.288   2.554  14.520 -1.1243 -0.1103  0.2962
 5329TIP3    H237479   4.214   2.682  14.488  0.5448  0.5040 -1.2749
 5330TIP3   OH237480   0.290   6.219   5.665  0.1915 -0.5474  0.4506
 5330TIP3    H137481   0.219   6.230   5.728 -0.4321  0.2868 -0.3783
 5330TIP3    H237482   0.270   6.281   5.594  1.0048 -1.2743 -0.4489
 5331TIP3   OH237483   5.484   5.067  14.384 -0.5940  0.3799  0.6056
 5331TIP3    H137484   5.580   5.076  14.379 -0.4809 -0.6972  0.6139
 5331TIP3    H237485   5.469   5.016  14.464 -1.1419  0.0553  0.3007
 5332TIP3   OH237486   4.763   5.592  12.687  0.1860  0.1194  0.6868
 5332TIP3    H137487   4.841   5.584  12.633  1.0275 -1.1229  2.0086
 5332TIP3    H237488   4.787   5.657  12.753 -0.6468  1.2409 -0.0809
 5333TIP3   OH237489   4.577   5.606  13.512 -0.3333  0.5156  0.2488
 5333TIP3    H137490   4.541   5.555  13.439 -0.4351  3.5955 -2.0128
 5333TIP3    H237491   4.522   5.581  13.586 -2.6087 -0.1254 -1.5125
 5334TIP3   OH237492   6.189   3.655   4.056  0.4812 -0.2643  0.2549
 5334TIP3    H137493   6.259   3.720   4.059 -0.4650  0.9460 -1.6766
 5334TIP3    H237494   6.231   3.573   4.078  2.9700  0.1166 -2.4955
 5335TIP3   OH237495   4.606   6.507  13.598 -0.2858 -0.5106  0.3532
 5335TIP3    H137496   4.674   6.564  13.635  0.4788  0.2728 -2.0624
 5335TIP3    H237497   4.624   6.506  13.505 -1.8839 -2.6754 -0.0024
 5336TIP3   OH237498   2.865   4.265   6.791  0.6409  0.6284  1.1391
 5336TIP3    H137499   2.880   4.178   6.829  3.4126  0.3318 -0.3922
 5336TIP3    H237500   2.782   4.256   6.743  1.0936 -1.3035  0.6534
 5337TIP3   OH237501   5.579   2.691   1.802 -0.2787 -0.3491 -0.4636
 5337TIP3    H137502   5.650   2.747   1.769  0.3021 -0.3731  0.6855
 5337TIP3    H237503   5.562   2.630   1.731  0.9501 -0.4216 -0.7233
 5338TIP3   OH237504   0.749   6.491   5.232 -0.2192 -0.0362  0.3435
 5338TIP3    H137505   0.653   6.487   5.224 -0.1334 -1.9393 -0.3941
 5338TIP3    H237506   0.766   6.574   5.276 -2.2849 -0.2000  1.5931
 5339TIP3   OH237507   6.233   0.163   0.214 -0.0449  0.8027  0.1216
 5339TIP3    H137508   6.229   0.164   0.310  0.6170 -1.2588  0.2222
 5339TIP3    H237509   6.326   0.167   0.193 -0.1581  0.7526 -0.4090
 5340TIP3   OH237510   0.080   2.698  15.520 -0.4882 -0.2954  0.2419
 5340TIP3    H137511   0.093   2.749  15.600  0.9433 -1.4819  0.8124
 5340TIP3    H237512   0.158   2.718  15.467 -0.5396 -0.9134 -0.0666
 5341TIP3   OH237513   5.798   5.044   5.300 -0.5452  0.0066  0.5255
 5341TIP3    H137514   5.723   5.103   5.305 -0.5626 -0.0703  1.2927
 5341TIP3    H237515   5.778   4.987   5.226  0.0826  1.7598 -1.0665
 5342TIP3   OH237516   2.026   5.083   2.552 -0.0181 -0.3909  0.0840
 5342TIP3    H137517   1.956   5.117   2.495  0.1367  0.3717  0.3375
 5342TIP3    H237518   2.050   5.158   2.607  0.5682 -0.8278  0.4272
 5343TIP3   OH237519   2.535   3.320   2.222 -0.5349 -0.0277  0.1295
 5343TIP3    H137520   2.551   3.233   2.261 -0.8596 -0.2770 -0.2884
 5343TIP3    H237521   2.613   3.337   2.170 -0.6623 -0.2651 -0.1403
 5344TIP3   OH237522   4.823   0.253  12.054 -0.0638  0.7509 -0.3128
 5344TIP3    H137523   4.857   0.336  12.088  2.7562 -0.3156 -0.2199
 5344TIP3    H237524   4.797   0.204  12.132  0.8355  0.5463 -0.1292
 5345TIP3   OH237525   5.836   3.641   2.893 -0.3860  0.2273  0.5999
 5345TIP3    H137526   5.903   3.611   2.833 -0.8141 -0.5224  0.4878
 5345TIP3    H237527   5.778   3.566   2.905 -2.5696  1.4790 -1.1568
 5346TIP3   OH237528   5.393   2.334   5.035 -0.2689  0.1086  0.1014
 5346TIP3    H137529   5.338   2.263   5.000  0.1398 -0.7353  1.1108
 5346TIP3    H237530   5.480   2.315   5.001 -0.3176  0.6206 -0.3146
 5347TIP3   OH237531   0.405   5.826  15.308 -0.3813 -0.0144 -0.1312
 5347TIP3    H137532   0.479   5.867  15.353 -1.2830  1.5881 -0.0342
 5347TIP3    H237533   0.420   5.732  15.318  0.9294  0.2866  1.0440
 5348TIP3   OH237534   1.844   0.434  15.315  0.1433 -0.5650  0.3412
 5348TIP3    H137535   1.915   0.428  15.379 -0.5348 -1.9604  1.0292
 5348TIP3    H237536   1.766   0.454  15.367  0.0845  1.6564 -0.4818
 5349TIP3   OH237537   6.010   6.290   3.815  0.0873 -0.6317 -0.3922
 5349TIP3    H137538   5.969   6.374   3.794  2.3291  0.4066 -0.9064
 5349TIP3    H237539   6.060   6.308   3.895  0.2860 -1.5910 -0.2901
 5350TIP3   OH237540   3.684   5.384   4.755 -0.0483  0.2790 -0.1428
 5350TIP3    H137541   3.589   5.375   4.761  0.1943 -2.5413  0.5276
 5350TIP3    H237542   3.708   5.339   4.674  0.8340 -0.2388  0.3940
 5351TIP3   OH237543   1.747   4.870   3.556 -0.9584 -0.0773 -0.8957
 5351TIP3    H137544   1.825   4.924   3.571 -1.2522  0.0244  0.4012
 5351TIP3    H237545   1.674   4.924   3.586 -1.3951 -0.6833 -0.8400
 5352TIP3   OH237546   5.937   0.513   3.025  0.0211 -0.5091  0.3294
 5352TIP3    H137547   5.896   0.593   2.990 -1.7080 -2.0542 -1.3860
 5352TIP3    H237548   5.904   0.505   3.114 -0.5995  0.1524  0.1664
 5353TIP3   OH237549   3.177   3.715  13.371  0.0993  0.5924  0.6412
 5353TIP3    H137550   3.119   3.644  13.343  1.5197 -0.2754 -0.2469
 5353TIP3    H237551   3.199   3.761  13.290  0.3295  1.1741  1.0277
 5354TIP3   OH237552   1.500   3.055  14.402  0.8598  0.1330 -0.1164
 5354TIP3    H137553   1.472   3.042  14.312 -0.2469 -0.5987  0.3038
 5354TIP3    H237554   1.473   3.144  14.423  1.8705  0.6023 -0.7500
 5355TIP3   OH237555   3.978   4.533  16.252  0.4341 -0.3393  0.9227
 5355TIP3    H137556   4.006   4.476  16.180  2.4847  1.5961  0.0877
 5355TIP3    H237557   4.040   4.515  16.322 -1.4066 -2.0363  2.2323
 5356TIP3   OH237558   1.598   2.745  17.035 -0.2564 -0.1997 -0.8930
 5356TIP3    H137559   1.511   2.769  17.006  0.6773  1.1580 -2.7700
 5356TIP3    H237560   1.656   2.812  16.998  1.6471 -1.3587 -0.1953
 5357TIP3   OH237561   2.076   2.048  14.042 -0.3335 -0.5276 -0.5669
 5357TIP3    H137562   2.160   2.035  14.086 -1.0081 -1.9087  0.4311
 5357TIP3    H237563   2.056   2.140  14.055  0.1454 -0.6004  0.8702
 5358TIP3   OH237564   2.588   5.935   4.123 -0.4062 -0.0748  0.0877
 5358TIP3    H137565   2.608   5.906   4.212  2.2861 -0.8759 -0.6944
 5358TIP3    H237566   2.576   6.030   4.131  0.5546 -0.0267  1.2241
 5359TIP3   OH237567   1.375   4.644   0.824 -0.2592  0.0946  0.4533
 5359TIP3    H137568   1.316   4.667   0.896  1.5634  0.1930  2.0012
 5359TIP3    H237569   1.426   4.723   0.808  0.6348 -0.4777  0.3629
 5360TIP3   OH237570   4.294   1.121   3.749 -0.0530 -0.0352  0.3163
 5360TIP3    H137571   4.343   1.103   3.669 -1.2863  0.9970 -0.7171
 5360TIP3    H237572   4.210   1.154   3.718 -0.0404  1.7885  2.0329
 5361TIP3   OH237573   6.546   5.625   2.008  0.3493  0.2006 -0.0334
 5361TIP3    H137574   6.617   5.681   2.042  0.6203  0.1353 -0.4864
 5361TIP3    H237575   6.583   5.585   1.930 -0.0242 -0.2231  0.0052
 5362TIP3   OH237576   2.333   6.611   1.105  0.7548  0.2002 -0.1396
 5362TIP3    H137577   2.326   6.517   1.118 -0.7078  0.4885  1.5299
 5362TIP3    H237578   2.305   6.626   1.014 -0.1797 -0.8466 -0.0315
 5363TIP3   OH237579   0.281   3.150  11.551 -0.2450 -0.2740  0.1253
 5363TIP3    H137580   0.300   3.082  11.616  0.0816 -0.8220 -0.5298
 5363TIP3    H237581   0.286   3.104  11.467  0.4327  0.6619 -0.3584
 5364TIP3   OH237582   1.626   5.080   6.806 -0.3920 -0.0179 -0.4388
 5364TIP3    H137583   1.712   5.115   6.784  0.1012 -0.1510  1.1157
 5364TIP3    H237584   1.581   5.152   6.851 -1.3172  0.2260 -1.7216
 5365TIP3   OH237585   5.631   2.047   4.754 -0.0677 -0.1172 -0.3641
 5365TIP3    H137586   5.652   2.135   4.786 -2.0935  1.3104 -2.6779
 5365TIP3    H237587   5.713   1.998   4.765  0.6023  1.4462  2.7151
 5366TIP3   OH237588   3.792   2.938   3.932  0.5790 -0.3515 -0.9102
 5366TIP3    H137589   3.865   2.877   3.918  2.4730  1.3698  0.7854
 5366TIP3    H237590   3.830   3.009   3.984 -2.4156  0.4742  0.3645
 5367TIP3   OH237591   0.440   3.702  12.937 -0.0734 -0.6015  0.0084
 5367TIP3    H137592   0.491   3.697  13.018 -1.5882 -2.1818  0.9355
 5367TIP3    H237593   0.350   3.687  12.964 -0.9355  1.1139 -1.7184
 5368TIP3   OH237594   4.385   0.652  13.161  0.0942  0.0468  0.2052
 5368TIP3    H137595   4.395   0.566  13.200  1.2627  0.2466  0.3704
 5368TIP3    H237596   4.431   0.711  13.221  1.1843  0.4759 -1.0171
 5369TIP3   OH237597   6.247   6.180   5.294 -0.2759  0.2037  0.0570
 5369TIP3    H137598   6.184   6.107   5.287  0.3296 -0.2935 -0.3363
 5369TIP3    H237599   6.324   6.141   5.336 -0.8680  1.2427  2.2440
 5370TIP3   OH237600   5.323   6.287   0.550  0.1374 -0.4622 -0.2722
 5370TIP3    H137601   5.274   6.242   0.619 -0.0642  1.3066  0.7923
 5370TIP3    H237602   5.256   6.334   0.499  0.5458  0.8175  0.3242
 5371TIP3   OH237603   5.346   4.689  16.143 -0.7582 -0.0443 -0.0837
 5371TIP3    H137604   5.280   4.649  16.087  0.4100 -0.5662 -1.1471
 5371TIP3    H237605   5.408   4.619  16.162 -0.4142  0.4678  0.7680
 5372TIP3   OH237606   5.251   2.449   1.146  0.1044  0.1770  0.3162
 5372TIP3    H137607   5.311   2.419   1.078 -0.7959 -0.0525 -0.4004
 5372TIP3    H237608   5.301   2.513   1.196  1.3984 -1.0081  0.6048
 5373TIP3   OH237609   0.720   2.953   0.188 -0.0501 -0.1663 -0.7951
 5373TIP3    H137610   0.722   2.886   0.256  0.4229 -0.5298 -1.1580
 5373TIP3    H237611   0.747   3.033   0.233 -0.4992 -0.2453 -0.3858
 5374TIP3   OH237612   1.581   4.710  14.766  0.3437  0.6882 -0.0266
 5374TIP3    H137613   1.599   4.616  14.758 -1.0251  0.4072 -0.0565
 5374TIP3    H237614   1.554   4.720  14.857  0.4155  1.0520 -0.0459
 5375TIP3   OH237615   2.188   4.976   0.050 -0.1244 -0.4654  0.2025
 5375TIP3    H137616   2.242   5.017   0.118 -0.7205  2.1693 -0.7963
 5375TIP3    H237617   2.132   5.047   0.018 -0.4005 -1.8015 -2.5208
 5376TIP3   OH237618   2.993   2.644  15.868 -0.2908  0.0850  0.1231
 5376TIP3    H137619   2.955   2.595  15.941 -0.2513 -1.1739 -0.6789
 5376TIP3    H237620   2.918   2.689  15.828 -0.0791  2.2828  1.9729
 5377TIP3   OH237621   1.886   1.994  17.478  0.0543  0.0634  0.0261
 5377TIP3    H137622   1.950   2.019  17.411  0.3110  1.0878  0.6374
 5377TIP3    H237623   1.822   1.940  17.432  0.0432  1.0282 -1.1216
 5378TIP3   OH237624   5.381   1.361   6.030  0.1127 -0.3816 -0.3104
 5378TIP3    H137625   5.374   1.456   6.040 -1.3997 -0.7016  2.7602
 5378TIP3    H237626   5.474   1.345   6.013  0.9067  1.5193  1.7724
 5379TIP3   OH237627   0.439   0.031  16.836 -0.1197  0.9152  0.2205
 5379TIP3    H137628   0.411   0.107  16.786 -0.6545  0.8210  0.3606
 5379TIP3    H237629   0.358  -0.020  16.848  0.4384 -0.3220 -0.9770
 5380TIP3   OH237630   2.075   0.313  15.051 -0.5075 -0.5340 -0.3435
 5380TIP3    H137631   2.112   0.337  14.966 -2.4638  2.4445 -0.5367
 5380TIP3    H237632   2.133   0.353  15.115 -0.7851  0.0445 -0.4461
 5381TIP3   OH237633   5.003   1.656   0.404  0.4383  0.1403 -0.1260
 5381TIP3    H137634   4.963   1.704   0.477  1.9902  0.5619  0.5118
 5381TIP3    H237635   4.930   1.633   0.347 -0.9235 -0.6904  1.8188
 5382TIP3   OH237636   2.185   5.279  12.530 -0.5030  0.0868  0.4758
 5382TIP3    H137637   2.098   5.284  12.569 -0.8745  0.7169 -0.4143
 5382TIP3    H237638   2.170   5.256  12.439  0.2522  0.3774  0.2671
 5383TIP3   OH237639   0.765   3.866   3.483  0.1702  0.3650 -0.1527
 5383TIP3    H137640   0.748   3.860   3.389 -1.3283 -0.2427  0.1310
 5383TIP3    H237641   0.698   3.925   3.516 -0.2571 -0.6037  0.7512
 5384TIP3   OH237642   2.100   5.839  13.516 -0.0484  0.9238 -0.5443
 5384TIP3    H137643   2.013   5.807  13.491  0.7059 -1.0034 -0.8644
 5384TIP3    H237644   2.123   5.787  13.593  0.2558  2.4315  0.4226
 5385TIP3   OH237645   4.188   5.589  16.379  0.1397 -0.3921 -0.3780
 5385TIP3    H137646   4.154   5.514  16.330 -0.5058 -0.3156 -0.0572
 5385TIP3    H237647   4.278   5.599  16.349 -0.3104 -0.2020 -1.7276
 5386TIP3   OH237648   5.399   2.445  13.796  0.1359  0.0333 -0.4719
 5386TIP3    H137649   5.319   2.432  13.743  0.2535 -0.7905 -0.4657
 5386TIP3    H237650   5.367   2.454  13.885  0.0574 -0.4764 -0.4461
 5387TIP3   OH237651   0.068   5.341  15.229  0.1292  0.1021  0.5938
 5387TIP3    H137652   0.063   5.352  15.324  1.1067 -0.3809  0.7103
 5387TIP3    H237653   0.012   5.265  15.211  2.1920 -1.6416  1.1669
 5388TIP3   OH237654   3.350   3.602  14.352 -0.9657 -0.1995 -0.5149
 5388TIP3    H137655   3.273   3.631  14.303  0.0901  0.9738 -1.5528
 5388TIP3    H237656   3.340   3.643  14.438 -3.5920 -3.4687  0.9484
 5389TIP3   OH237657   3.606   1.745   2.351 -0.2223  0.0731  0.4677
 5389TIP3    H137658   3.699   1.743   2.328  0.1687  1.8592  1.6726
 5389TIP3    H237659   3.561   1.738   2.267  1.0428  0.7976 -0.3171
 5390TIP3   OH237660   2.849   3.277  14.994 -0.5572  0.2518 -0.5031
 5390TIP3    H137661   2.817   3.320  14.915  0.1456 -1.3852 -1.7170
 5390TIP3    H237662   2.944   3.284  14.989 -0.5181  0.7287  0.5687
 5391TIP3   OH237663   3.808   1.616   1.269 -0.3155  0.1360 -0.9374
 5391TIP3    H137664   3.878   1.642   1.210 -1.1104  2.5534 -0.9456
 5391TIP3    H237665   3.849   1.614   1.356 -0.0608  0.8186 -1.0368
 5392TIP3   OH237666   4.150   1.550  16.031  0.3841  0.4854 -0.0645
 5392TIP3    H137667   4.055   1.539  16.022  0.2457  0.3563  1.3371
 5392TIP3    H237668   4.168   1.531  16.123  1.7081  1.0255 -0.1869
 5393TIP3   OH237669   5.442   5.029  15.461 -0.3777  0.6376 -0.3630
 5393TIP3    H137670   5.483   4.979  15.391  1.7274  1.1987  0.4086
 5393TIP3    H237671   5.509   5.090  15.491 -1.7288  1.5238  1.0816
 5394TIP3   OH237672   5.975   0.238  15.459 -0.0234 -0.0368  0.2212
 5394TIP3    H137673   6.060   0.214  15.497  1.1719  0.5639 -1.8950
 5394TIP3    H237674   5.982   0.333  15.444 -1.1279  0.0399  0.1489
 5395TIP3   OH237675   4.595   5.025   1.929 -0.2558  0.1673  0.1413
 5395TIP3    H137676   4.550   4.963   1.987 -1.2086  0.7303  0.0380
 5395TIP3    H237677   4.567   5.000   1.841 -0.1120  0.3225  0.0526
 5396TIP3   OH237678   3.971   4.331   4.657  0.1843  0.6856  0.1687
 5396TIP3    H137679   4.032   4.257   4.665 -0.5142 -0.3123 -2.6548
 5396TIP3    H237680   4.027   4.405   4.633  0.4546 -0.0396 -1.5905
 5397TIP3   OH237681   0.440   3.409  13.743 -1.2189  0.1841  0.5959
 5397TIP3    H137682   0.531   3.432  13.722 -1.4012 -1.2601 -2.2741
 5397TIP3    H237683   0.447   3.325  13.788 -1.1026  1.1069  2.4305
 5398TIP3   OH237684   4.810   5.123  11.395  0.6566 -0.6135  0.5680
 5398TIP3    H137685   4.883   5.079  11.350  0.3117  0.1789 -0.8066
 5398TIP3    H237686   4.735   5.066  11.379  0.4087 -0.0271 -0.3930
 5399TIP3   OH237687   1.752   1.079  14.670 -0.4511  0.1619 -0.1100
 5399TIP3    H137688   1.701   1.003  14.698 -1.4117  1.0626  0.6326
 5399TIP3    H237689   1.699   1.119  14.601 -1.5950  2.0110  1.7455
 5400TIP3   OH237690   4.400   3.558  12.855 -0.2816 -0.0423 -0.5174
 5400TIP3    H137691   4.449   3.489  12.899 -0.6194  0.0666  0.0416
 5400TIP3    H237692   4.408   3.634  12.914 -1.3187 -0.0944 -0.2859
 5401TIP3   OH237693   5.493   6.327  17.294  0.2953  0.3874  0.0403
 5401TIP3    H137694   5.555   6.375  17.348  1.1702 -0.1974 -0.4293
 5401TIP3    H237695   5.484   6.242  17.337 -2.0042  1.2267  1.4314
 5402TIP3   OH237696   1.015   2.501  11.362  0.0053 -0.2231  0.1003
 5402TIP3    H137697   0.967   2.419  11.364  1.8481 -1.3549 -0.0724
 5402TIP3    H237698   1.053   2.505  11.274  1.7263 -0.3146  0.7859
 5403TIP3   OH237699   5.818   4.481   5.672  0.1744  0.3385 -0.7208
 5403TIP3    H137700   5.795   4.460   5.582  0.0506 -0.0705 -0.5961
 5403TIP3    H237701   5.795   4.403   5.722 -0.1073  0.7024 -0.2749
 5404TIP3   OH237702   6.135   0.983  14.043 -0.0162 -0.0659 -0.7516
 5404TIP3    H137703   6.125   1.078  14.049 -0.2639 -0.1811  1.3173
 5404TIP3    H237704   6.224   0.966  14.073  0.1701 -0.4780 -1.5136
 5405TIP3   OH237705   3.545   5.145   0.993  0.1123  0.1049  0.0730
 5405TIP3    H137706   3.505   5.154   0.907  0.7290  1.1465 -0.1275
 5405TIP3    H237707   3.478   5.102   1.047 -1.2257  1.6432 -0.2820
 5406TIP3   OH237708   5.258   4.521  16.512 -0.2090 -0.1149  0.4535
 5406TIP3    H137709   5.215   4.537  16.596 -1.4702 -1.3188  0.0637
 5406TIP3    H237710   5.231   4.594  16.457  0.6194  0.6765  1.0616
 5407TIP3   OH237711   5.819   2.913   1.341 -0.4907  0.2714  0.5588
 5407TIP3    H137712   5.844   2.934   1.431  1.3808 -0.7282  0.3424
 5407TIP3    H237713   5.818   2.997   1.295 -1.4897  0.7891  1.4936
 5408TIP3   OH237714   5.385   0.474   5.325  0.1573 -0.2797 -0.2868
 5408TIP3    H137715   5.387   0.548   5.264 -1.9670 -2.8473 -3.8258
 5408TIP3    H237716   5.294   0.472   5.356  1.0347  0.5744  2.7292
 5409TIP3   OH237717   3.139   4.128  12.392  0.6442 -0.1184 -0.1710
 5409TIP3    H137718   3.201   4.197  12.367 -1.5657  0.9362 -3.4814
 5409TIP3    H237719   3.068   4.174  12.435  1.0049 -0.9907  1.4273
 5410TIP3   OH237720   0.286   4.254  10.608 -0.1741 -0.0609  0.0325
 5410TIP3    H137721   0.276   4.190  10.679 -0.0218 -0.7405 -0.5465
 5410TIP3    H237722   0.218   4.319  10.625 -2.4292 -1.9623 -1.0595
 5411TIP3   OH237723   5.869   2.465  17.160  0.3436  0.2113 -0.2891
 5411TIP3    H137724   5.906   2.420  17.236 -0.9536 -0.0845  0.1819
 5411TIP3    H237725   5.784   2.424  17.146 -0.1493  1.3835 -0.8833
 5412TIP3   OH237726   2.983   3.535  14.395 -0.1298  0.2609  0.1039
 5412TIP3    H137727   3.058   3.483  14.366  0.3732  1.4948 -0.8932
 5412TIP3    H237728   3.018   3.589  14.466 -0.7042 -0.8642  1.2831
 5413TIP3   OH237729   6.402   1.878  14.883 -0.3245 -0.0436 -0.0881
 5413TIP3    H137730   6.388   1.852  14.974 -0.4095 -1.3595 -0.4519
 5413TIP3    H237731   6.495   1.904  14.879  0.6229 -3.0549 -0.2582
 5414TIP3   OH237732   4.552   4.351   0.559 -0.2563 -0.6420  0.5133
 5414TIP3    H137733   4.526   4.405   0.484  1.1785 -0.5204  0.0659
 5414TIP3    H237734   4.492   4.376   0.629 -0.5011  0.5178 -0.0863
 5415TIP3   OH237735   5.072   5.967   4.793  0.3094 -0.1154  0.7761
 5415TIP3    H137736   4.977   5.965   4.791  0.0932  1.5987  3.5622
 5415TIP3    H237737   5.099   5.892   4.740 -2.6072 -1.6580  1.2628
 5416TIP3   OH237738   6.389   5.614  16.771 -0.1992  0.1549 -0.5349
 5416TIP3    H137739   6.335   5.677  16.722 -1.2200 -0.3992 -0.1527
 5416TIP3    H237740   6.372   5.634  16.863  0.4967  0.1683 -0.4053
 5417TIP3   OH237741   5.609   2.629   3.871 -0.1539 -0.3807 -0.0964
 5417TIP3    H137742   5.577   2.574   3.943  0.4621 -0.3104  0.2438
 5417TIP3    H237743   5.653   2.568   3.812  2.1963 -0.0851  1.2139
 5418TIP3   OH237744   2.907   0.463  11.583 -0.1875  0.7062  0.3075
 5418TIP3    H137745   2.830   0.521  11.587  0.9050  2.2307  0.0852
 5418TIP3    H237746   2.946   0.482  11.498  0.7265  0.3376  0.6401
 5419TIP3   OH237747   4.020   0.753  16.635 -0.2945  0.2848  0.0679
 5419TIP3    H137748   3.950   0.755  16.570 -1.4239 -0.3672  1.2172
 5419TIP3    H237749   3.976   0.768  16.719  0.7464 -1.3305  0.9710
 5420TIP3   OH237750   2.472   4.987   1.859  0.0912  0.9171  0.6054
 5420TIP3    H137751   2.448   4.987   1.766  0.3469 -1.7344  0.4818
 5420TIP3    H237752   2.563   5.017   1.859  0.5187 -0.3219 -0.1582
 5421TIP3   OH237753   0.815   0.167  11.985  0.5189  0.0530 -0.0449
 5421TIP3    H137754   0.740   0.226  11.989 -0.0679 -0.4730 -1.9592
 5421TIP3    H237755   0.845   0.160  12.075 -2.3260 -0.4864  0.9545
 5422TIP3   OH237756   4.120   1.043   3.199  0.2190  0.1026  0.7190
 5422TIP3    H137757   4.144   0.967   3.252  0.7359 -1.3992 -1.5443
 5422TIP3    H237758   4.192   1.104   3.211  2.9336 -2.2451 -1.9609
 5423TIP3   OH237759   6.357   6.151   5.626  0.7124 -0.0564 -0.0256
 5423TIP3    H137760   6.313   6.114   5.703 -2.7627  0.8152 -1.4079
 5423TIP3    H237761   6.362   6.245   5.644  1.4118 -0.0662 -0.1650
 5424TIP3   OH237762   2.410   1.292  12.618 -0.1954 -0.1999 -0.2891
 5424TIP3    H137763   2.490   1.301  12.566 -0.6040 -0.4043 -0.9657
 5424TIP3    H237764   2.373   1.380  12.621  0.6323  0.1382  1.0019
 5425TIP3   OH237765   3.462   4.620  16.133 -0.5896  0.3353 -0.0022
 5425TIP3    H137766   3.426   4.596  16.218  1.8688  0.2792  1.0899
 5425TIP3    H237767   3.448   4.715  16.127 -1.2130  0.2635  0.2295
 5426TIP3   OH237768   6.387   4.909  11.023 -0.2009  0.1013  0.0493
 5426TIP3    H137769   6.408   5.000  11.003 -1.9704  0.9476  1.7619
 5426TIP3    H237770   6.292   4.905  11.026 -0.1653 -1.1720  2.4610
 5427TIP3   OH237771   0.818   4.670   3.969 -0.1541 -0.4308  0.1107
 5427TIP3    H137772   0.829   4.576   3.951  0.0672 -0.6167  1.1591
 5427TIP3    H237773   0.759   4.672   4.045 -0.8378  0.3151 -0.4234
 5428TIP3   OH237774   6.042   0.260   3.325  0.3200 -0.0893 -0.1646
 5428TIP3    H137775   6.027   0.257   3.420 -1.3639 -1.9870 -0.4254
 5428TIP3    H237776   5.979   0.324   3.293 -0.5842 -0.9659 -0.1919
 5429TIP3   OH237777   4.735   2.630   6.364  0.5014 -0.2868 -0.0961
 5429TIP3    H137778   4.764   2.634   6.455  1.8158  0.1544 -0.5195
 5429TIP3    H237779   4.696   2.716   6.347  2.6076  0.6075 -0.6822
 5430TIP3   OH237780   3.269   3.188  14.869  0.5530 -0.2012 -0.2734
 5430TIP3    H137781   3.341   3.125  14.881 -0.6310 -1.5644  0.0426
 5430TIP3    H237782   3.209   3.168  14.941 -1.5165 -1.0769 -2.1406
 5431TIP3   OH237783   0.236   4.853  14.584  0.1170  0.1279 -0.3416
 5431TIP3    H137784   0.184   4.825  14.509  1.6853 -0.9558 -1.0860
 5431TIP3    H237785   0.322   4.814  14.570  1.3881  2.4260  0.4702
 5432TIP3   OH237786   6.760   5.225   4.029 -0.1131  0.5381  0.0696
 5432TIP3    H137787   6.802   5.185   3.953 -0.9968  0.7640 -0.5604
 5432TIP3    H237788   6.742   5.315   4.001  0.8676  1.0678  1.0749
 5433TIP3   OH237789   4.345   1.630  11.620 -0.0197 -0.0314 -0.4351
 5433TIP3    H137790   4.396   1.647  11.542 -0.8878  1.0075 -0.7957
 5433TIP3    H237791   4.276   1.696  11.619  0.2311  0.3119  1.4640
 5434TIP3   OH237792   4.233   0.362  16.262 -0.4257 -0.6687  0.0291
 5434TIP3    H137793   4.248   0.282  16.313 -1.6842 -0.0546  1.4320
 5434TIP3    H237794   4.222   0.331  16.172  0.1035 -1.9718  0.3861
 5435TIP3   OH237795   5.746   2.415   3.714 -0.2104 -0.3180 -0.6979
 5435TIP3    H137796   5.731   2.435   3.621 -0.4529 -0.9705 -0.8070
 5435TIP3    H237797   5.764   2.321   3.715 -1.9190 -0.6792  0.0978
 5436TIP3   OH237798   1.528   5.267   1.356 -0.4826  0.0380 -0.2399
 5436TIP3    H137799   1.491   5.279   1.268  1.3870 -0.9656 -1.2165
 5436TIP3    H237800   1.478   5.327   1.411 -0.8138  1.7079 -2.2300
 5437TIP3   OH237801   6.454   4.201  14.118 -0.4296 -0.2139  0.5146
 5437TIP3    H137802   6.533   4.248  14.091 -0.3599 -0.0093  1.0729
 5437TIP3    H237803   6.472   4.109  14.095 -0.4131 -0.0372 -0.2169
 5438TIP3   OH237804   1.586   1.594  15.198 -0.2928 -0.2397 -0.1462
 5438TIP3    H137805   1.567   1.619  15.108 -1.2326 -1.7416 -0.3919
 5438TIP3    H237806   1.587   1.677  15.246 -0.6461  0.5017 -1.3685
 5439TIP3   OH237807   0.751   0.075  17.497 -0.0850  0.2657 -0.7831
 5439TIP3    H137808   0.793   0.014  17.557  0.2548  2.7534  1.7521
 5439TIP3    H237809   0.723   0.022  17.423 -0.8455 -3.1156  1.7157
 5440TIP3   OH237810   3.163   5.020   3.900 -0.2821  0.6645  0.0981
 5440TIP3    H137811   3.249   4.983   3.881 -1.4058 -2.0043 -0.2951
 5440TIP3    H237812   3.141   5.070   3.821  0.0973 -0.3021 -0.6498
 5441TIP3   OH237813   4.404   4.303   5.264  0.1667  0.3268  0.2446
 5441TIP3    H137814   4.361   4.352   5.194 -0.7380 -1.9763 -0.9441
 5441TIP3    H237815   4.342   4.306   5.336 -1.1747 -1.2256 -0.7544
 5442TIP3   OH237816   4.417   2.292  16.480  0.2365 -0.3792 -0.2624
 5442TIP3    H137817   4.398   2.250  16.564 -0.8856  0.4455 -0.0793
 5442TIP3    H237818   4.498   2.340  16.495 -0.5007  0.6127  0.6892
 5443TIP3   OH237819   3.037   6.051   1.881  0.3160  0.0799  0.2216
 5443TIP3    H137820   3.052   5.968   1.834  0.3232  0.1175  0.1576
 5443TIP3    H237821   3.078   6.038   1.966  0.3262  0.0211  0.2076
 5444TIP3   OH237822   3.044   1.491  12.174  0.0324 -0.0533  0.2200
 5444TIP3    H137823   2.961   1.478  12.220  0.1097  0.9805  0.6694
 5444TIP3    H237824   3.081   1.570  12.212  1.1550 -0.4023 -0.0945
 5445TIP3   OH237825   2.592   3.076   6.258  0.9164 -0.0736  0.2628
 5445TIP3    H137826   2.548   2.991   6.257  1.6150 -0.4356 -0.1289
 5445TIP3    H237827   2.605   3.095   6.350  1.5922 -0.8362  0.3350
 5446TIP3   OH237828   4.794   0.888   5.172 -0.6151 -0.9831  1.3113
 5446TIP3    H137829   4.754   0.844   5.097 -0.8397  1.8110 -0.3429
 5446TIP3    H237830   4.795   0.822   5.241 -2.1199 -3.1105 -0.5686
 5447TIP3   OH237831   6.170   6.499   2.005 -0.3029  0.1785 -0.0513
 5447TIP3    H137832   6.222   6.429   2.045 -0.7183  0.0336  0.2505
 5447TIP3    H237833   6.185   6.489   1.911  3.4559  2.6471  0.0698
 5448TIP3   OH237834   1.659   0.343   0.447  0.1397 -1.0141  0.0752
 5448TIP3    H137835   1.644   0.332   0.353  0.3491 -2.3294  0.1815
 5448TIP3    H237836   1.597   0.412   0.473  0.3800 -0.3367 -1.0923
 5449TIP3   OH237837   2.523   3.320  15.042 -0.2698  0.0620 -0.5304
 5449TIP3    H137838   2.569   3.236  15.050 -1.7090 -0.9111 -1.8438
 5449TIP3    H237839   2.574   3.380  15.096  0.5447 -1.7612  0.8528
 5450TIP3   OH237840   2.470   3.891   4.712  0.1887 -0.2016  0.3176
 5450TIP3    H137841   2.414   3.964   4.740  2.6244  3.0392 -2.3828
 5450TIP3    H237842   2.439   3.870   4.624  1.2713 -0.5196  0.0044
 5451TIP3   OH237843   1.423   3.343  12.846 -0.1669  0.3474  1.2255
 5451TIP3    H137844   1.332   3.363  12.866 -0.4482  0.3082  0.0463
 5451TIP3    H237845   1.458   3.425  12.810 -0.2723 -0.1717 -0.0897
 5452TIP3   OH237846   0.049   5.331   2.222 -0.0181  0.0058  0.2746
 5452TIP3    H137847   0.123   5.391   2.221 -1.0398  1.3044  0.3660
 5452TIP3    H237848  -0.025   5.383   2.254 -0.6920 -1.5997  1.5521
 5453TIP3   OH237849   2.488   6.387  11.940  0.1188  0.4417 -0.8522
 5453TIP3    H137850   2.548   6.456  11.912 -0.2001  0.0559 -2.5830
 5453TIP3    H237851   2.514   6.310  11.889 -0.7154 -0.2191 -0.3122
 5454TIP3   OH237852   4.733   1.239   4.676  0.0031 -0.2139 -0.1004
 5454TIP3    H137853   4.760   1.277   4.759 -0.1649  1.0793 -0.6269
 5454TIP3    H237854   4.782   1.288   4.609 -0.4917 -0.6698 -0.8166
 5455TIP3   OH237855   1.593   3.756  13.813  0.2263  0.2912 -0.8277
 5455TIP3    H137856   1.683   3.731  13.833  0.8184  3.1367  0.5273
 5455TIP3    H237857   1.548   3.755  13.898 -1.3253 -1.7898 -1.5580
 5456TIP3   OH237858   0.831   1.397   6.238  0.3004 -0.1563  0.3807
 5456TIP3    H137859   0.880   1.353   6.308  1.2518 -0.4045 -0.4298
 5456TIP3    H237860   0.755   1.435   6.283  0.9136 -0.2672  1.5552
 5457TIP3   OH237861   5.525   3.443   6.409  0.0122 -0.1725  0.2503
 5457TIP3    H137862   5.546   3.438   6.503 -0.7717  0.0420  0.4434
 5457TIP3    H237863   5.560   3.528   6.382  0.0898 -0.1581  0.3916
 5458TIP3   OH237864   0.482   4.758  15.951  0.1964 -0.1877  0.3767
 5458TIP3    H137865   0.555   4.715  15.996  0.6457  0.0862 -0.0789
 5458TIP3    H237866   0.461   4.833  16.006  0.6576  0.0717  0.2067
 5459TIP3   OH237867   6.721   0.535   3.658 -0.4233  0.1808  0.1443
 5459TIP3    H137868   6.638   0.493   3.634 -0.5011 -0.9240  2.0998
 5459TIP3    H237869   6.750   0.487   3.736  1.2329  1.6092  0.4611
 5460TIP3   OH237870   4.674   1.645  13.771  0.2423 -0.0738  0.5291
 5460TIP3    H137871   4.659   1.583  13.700  0.7506 -0.1005  0.4379
 5460TIP3    H237872   4.753   1.612  13.814  0.7816  0.7580  0.2022
 5461TIP3   OH237873   0.368   5.771   0.593 -0.6815 -0.0925  0.0447
 5461TIP3    H137874   0.274   5.785   0.580 -0.9651 -2.3550 -0.7639
 5461TIP3    H237875   0.404   5.760   0.505  0.2703  0.2277  0.3762
 5462TIP3   OH237876   6.499   5.408  11.290  0.1392  0.5320  0.2791
 5462TIP3    H137877   6.460   5.353  11.358 -0.4928  1.6306  0.8356
 5462TIP3    H237878   6.424   5.440  11.240  0.3613  1.8971  0.7603
 5463TIP3   OH237879   0.411   2.602   2.404  0.4691  0.3676 -0.4692
 5463TIP3    H137880   0.326   2.639   2.380  0.1973  0.8867  1.1870
 5463TIP3    H237881   0.417   2.521   2.353 -0.8854  0.4747 -0.8358
 5464TIP3   OH237882   3.583   0.818   4.025 -0.0611 -0.5040  0.0693
 5464TIP3    H137883   3.614   0.810   3.935  0.7206 -1.4760  0.3998
 5464TIP3    H237884   3.550   0.908   4.031  1.6538  0.2377 -0.6621
 5465TIP3   OH237885   2.562   1.372   3.715 -0.0053  0.4293 -0.2163
 5465TIP3    H137886   2.641   1.419   3.690  0.3582 -0.6615 -1.1309
 5465TIP3    H237887   2.491   1.426   3.679  0.2105  1.9582  1.4691
 5466TIP3   OH237888   0.044   4.817   5.275  0.5499 -0.1433 -0.3293
 5466TIP3    H137889  -0.050   4.838   5.281  0.3121 -1.4065  0.5718
 5466TIP3    H237890   0.081   4.849   5.357  1.0108  0.7700 -0.8794
 5467TIP3   OH237891   5.533   5.250   5.488  0.2151  0.2033 -0.6237
 5467TIP3    H137892   5.540   5.266   5.583  0.9747 -0.5221 -0.5464
 5467TIP3    H237893   5.506   5.159   5.482  1.6431 -0.2102 -1.1127
 5468TIP3   OH237894   3.766   5.290  15.814 -0.8544  0.0220 -0.7150
 5468TIP3    H137895   3.755   5.230  15.888 -0.2810  0.0318 -0.6147
 5468TIP3    H237896   3.773   5.377  15.855 -0.2519 -0.0015 -0.7498
 5469TIP3   OH237897   6.208   0.679   2.380 -0.1314 -0.4217  0.7035
 5469TIP3    H137898   6.185   0.697   2.289  0.3884  1.7018  0.9264
 5469TIP3    H237899   6.225   0.585   2.383 -0.7669 -0.6452 -1.2349
 5470TIP3   OH237900   3.032   3.579   0.672  0.2147  0.6714 -0.4395
 5470TIP3    H137901   2.968   3.509   0.660  0.0452  0.6662  0.4303
 5470TIP3    H237902   3.100   3.541   0.728  0.8614  0.7506 -1.1656
 5471TIP3   OH237903   3.368   1.879  14.548  0.0151 -0.1175 -0.6345
 5471TIP3    H137904   3.334   1.795  14.519 -0.6309  0.1211 -0.5891
 5471TIP3    H237905   3.444   1.858  14.603 -1.5106 -0.7752  1.3013
 5472TIP3   OH237906   4.412   6.620   2.977  0.7590  0.0850 -0.1727
 5472TIP3    H137907   4.356   6.545   2.956  0.2773  0.4327 -0.1437
 5472TIP3    H237908   4.427   6.663   2.893 -2.0217  2.0775  0.2069
 5473TIP3   OH237909   0.782   5.225  16.482 -0.1500 -0.0189  0.3620
 5473TIP3    H137910   0.849   5.293  16.486 -0.3124  0.0990  1.1072
 5473TIP3    H237911   0.699   5.271  16.490 -0.4026 -0.0463 -1.6340
 5474TIP3   OH237912   4.598   3.978   3.113 -0.8721 -0.1102  0.0473
 5474TIP3    H137913   4.573   3.943   3.028  0.4837  0.7897 -0.7564
 5474TIP3    H237914   4.545   4.057   3.123 -1.8171 -0.7791  0.5618
 5475TIP3   OH237915   5.743   3.644  14.020 -0.4284  0.0338 -0.0848
 5475TIP3    H137916   5.661   3.599  14.037 -2.0726  1.4280 -3.4967
 5475TIP3    H237917   5.799   3.578  13.979 -1.2702 -0.0216 -1.1852
 5476TIP3   OH237918   0.603   4.641   1.696  0.1095  0.1295  0.3095
 5476TIP3    H137919   0.522   4.653   1.745 -0.4018 -1.2500 -0.1377
 5476TIP3    H237920   0.575   4.626   1.606  0.8340 -0.5058  0.1727
 5477TIP3   OH237921   4.334   5.008   4.693  0.4361  0.5338 -0.7555
 5477TIP3    H137922   4.276   5.071   4.651 -2.3881  0.3429  2.4193
 5477TIP3    H237923   4.283   4.927   4.697  1.4329 -0.0810  0.9063
 5478TIP3   OH237924   4.302   4.470  15.618  0.6498 -0.4788  0.2744
 5478TIP3    H137925   4.357   4.395  15.597  0.9220 -0.3617  0.5618
 5478TIP3    H237926   4.323   4.490  15.710  0.6781  0.0269  0.1603
 5479TIP3   OH237927   4.505   4.699  17.502 -0.0025  0.5285 -0.1701
 5479TIP3    H137928   4.419   4.656  17.503 -0.6126  1.6855 -0.4531
 5479TIP3    H237929   4.566   4.631  17.475 -1.0939  0.1150 -1.7198
 5480TIP3   OH237930   3.885   2.993  13.540 -0.3262  0.2893 -0.2210
 5480TIP3    H137931   3.934   2.912  13.559 -0.1383  0.5256  0.3262
 5480TIP3    H237932   3.945   3.044  13.485  0.0186  0.5426  0.3793
 5481TIP3   OH237933   1.368   5.021   1.355 -0.2054  0.2564  0.3178
 5481TIP3    H137934   1.414   5.105   1.362 -0.1694  0.1317  1.8848
 5481TIP3    H237935   1.291   5.031   1.410 -0.1089 -0.7873  0.6675
 5482TIP3   OH237936   1.611   1.842   1.762 -0.0017 -0.0485 -0.3994
 5482TIP3    H137937   1.621   1.848   1.666 -1.6768  0.7896 -0.5555
 5482TIP3    H237938   1.608   1.933   1.791  1.8996 -0.2745  0.6618
 5483TIP3   OH237939   2.628   1.400  16.297 -0.0376 -0.2447 -0.4742
 5483TIP3    H137940   2.607   1.395  16.204 -0.8689 -1.8696 -0.2454
 5483TIP3    H237941   2.706   1.345  16.307  0.4144  0.4146 -0.2907
 5484TIP3   OH237942   5.101   2.958  15.393 -0.3469 -0.7215  0.0549
 5484TIP3    H137943   5.020   2.909  15.385 -1.9032  1.3739  1.7088
 5484TIP3    H237944   5.138   2.930  15.477 -0.1083 -0.6575 -0.0284
 5485TIP3   OH237945   5.302   2.617   3.417 -0.0729 -0.3092  0.3725
 5485TIP3    H137946   5.385   2.642   3.457  0.6694 -0.1870 -1.1575
 5485TIP3    H237947   5.269   2.697   3.377  0.4113 -0.8834 -1.2665
 5486TIP3   OH237948   4.648   2.016  11.505  0.2270 -0.0838  0.1883
 5486TIP3    H137949   4.673   2.011  11.597  2.8222 -0.1080 -0.4471
 5486TIP3    H237950   4.623   1.926  11.483  0.3389 -0.2420  0.6842
 5487TIP3   OH237951   2.245   2.625  16.143  0.0891 -0.0689  0.1153
 5487TIP3    H137952   2.179   2.617  16.212  1.1126  0.6914  1.2330
 5487TIP3    H237953   2.285   2.539  16.137 -0.7459 -0.4375 -0.3222
 5488TIP3   OH237954   2.469   0.148  14.829 -0.5498  0.4885  0.2120
 5488TIP3    H137955   2.545   0.098  14.800 -1.8874 -1.0517 -0.7800
 5488TIP3    H237956   2.425   0.090  14.892 -1.1869  1.1316  0.3727
 5489TIP3   OH237957   4.886   3.959   4.531  0.3429 -0.1245 -0.0580
 5489TIP3    H137958   4.791   3.947   4.542 -0.0914  1.8824 -1.1013
 5489TIP3    H237959   4.908   4.027   4.596  0.0811  2.8348 -2.8067
 5490TIP3   OH237960   1.974   4.222   4.036 -0.4816  0.0780  0.4543
 5490TIP3    H137961   2.012   4.192   3.954  0.6766 -0.0325  1.0218
 5490TIP3    H237962   1.924   4.147   4.069  0.8334 -0.6075  0.9224
 5491TIP3   OH237963   4.656   1.488  11.742  0.0953 -0.2373 -0.4897
 5491TIP3    H137964   4.692   1.570  11.706 -1.0642 -0.3636 -2.0511
 5491TIP3    H237965   4.724   1.456  11.802  0.5900  1.8435  0.1459
 5492TIP3   OH237966   2.160   1.028   4.719 -0.1614  0.5173  0.3400
 5492TIP3    H137967   2.164   1.013   4.625  0.3956 -0.4027  0.4902
 5492TIP3    H237968   2.070   1.007   4.743 -0.6828  2.0661 -0.1742
 5493TIP3   OH237969   2.836   6.482  11.162 -0.8855 -0.2091 -0.3961
 5493TIP3    H137970   2.913   6.451  11.114 -0.0955  1.2102 -0.1100
 5493TIP3    H237971   2.833   6.576  11.145 -2.6140 -0.2324 -0.4412
 5494TIP3   OH237972   3.439   1.867   2.614 -0.1760 -0.3581 -0.4189
 5494TIP3    H137973   3.446   1.840   2.523 -2.1452 -0.0946 -0.6937
 5494TIP3    H237974   3.417   1.787   2.662  0.7057 -0.4687 -0.1936
 5495TIP3   OH237975   3.432   0.259  14.820  0.2509  0.3046  0.6051
 5495TIP3    H137976   3.389   0.193  14.873  0.4236  1.3698  2.1239
 5495TIP3    H237977   3.449   0.332  14.880  0.6505  1.4752 -0.8566
 5496TIP3   OH237978   5.209   0.098  15.489 -0.4226 -0.7217  0.4701
 5496TIP3    H137979   5.230   0.189  15.469  1.7829 -1.7201 -2.3673
 5496TIP3    H237980   5.267   0.076  15.561  0.2444 -0.3285  0.0663
 5497TIP3   OH237981   4.828   1.601   2.021 -0.1046  0.5589  0.0827
 5497TIP3    H137982   4.743   1.619   1.981 -0.4055 -0.5634  0.1736
 5497TIP3    H237983   4.811   1.605   2.115 -0.1240  0.1271  0.1038
 5498TIP3   OH237984   4.681   6.510   4.205  0.7624 -0.3956  0.0819
 5498TIP3    H137985   4.671   6.604   4.192 -0.1247 -0.0885  2.5451
 5498TIP3    H237986   4.775   6.498   4.218  1.0190 -0.0450 -1.2906
 5499TIP3   OH237987   2.152   2.003   3.724 -0.0441 -0.7157  0.2551
 5499TIP3    H137988   2.090   1.942   3.763 -2.9204  0.2648 -2.3527
 5499TIP3    H237989   2.097   2.070   3.683  2.7638  0.3531 -2.1097
 5500TIP3   OH237990   2.532   5.536   3.994 -0.1229  0.6327 -0.2681
 5500TIP3    H137991   2.585   5.560   4.069  0.3993 -1.9626  0.2980
 5500TIP3    H237992   2.448   5.509   4.031  0.3057 -1.1561 -0.4810
 5501TIP3   OH237993   4.490   2.532  12.560 -0.2646  0.0327 -0.0814
 5501TIP3    H137994   4.543   2.462  12.600 -2.2219 -1.0850  0.6724
 5501TIP3    H237995   4.425   2.486  12.508 -1.5686  1.2928  0.3788
 5502TIP3   OH237996   2.865   0.510   1.591 -0.1566  0.3751  0.2511
 5502TIP3    H137997   2.897   0.580   1.648  0.0254  1.8905 -1.6099
 5502TIP3    H237998   2.939   0.492   1.533 -0.7480 -0.2242 -0.3219
 5503TIP3   OH237999   3.662   3.432  12.711 -0.1851  0.2359  0.4692
 5503TIP3    H138000   3.597   3.480  12.661  0.2700 -0.5084 -0.8825
 5503TIP3    H238001   3.729   3.497  12.732 -0.1906  0.4757 -0.2286
 5504TIP3   OH238002   1.523   1.612  17.284  0.2062 -0.0122  0.1082
 5504TIP3    H138003   1.513   1.646  17.195  1.9398  0.9219  0.2130
 5504TIP3    H238004   1.437   1.621  17.323  0.1106  2.5637 -0.4985
 5505TIP3   OH238005   5.866   3.039   5.138  0.0771 -0.0291  0.3144
 5505TIP3    H138006   5.838   3.128   5.161 -0.1799  0.0524 -0.3012
 5505TIP3    H238007   5.813   2.982   5.193 -1.3442  0.1215 -0.8590
 5506TIP3   OH238008   3.661   2.636  15.101 -0.0505  0.2381  0.4382
 5506TIP3    H138009   3.738   2.582  15.119 -0.0434  0.1253  0.0883
 5506TIP3    H238010   3.693   2.726  15.106 -0.3893  0.2919  2.5627
 5507TIP3   OH238011   1.056   6.374  11.783  0.6091 -0.8671  0.7368
 5507TIP3    H138012   1.081   6.461  11.811 -0.5593 -0.2439 -0.0689
 5507TIP3    H238013   0.962   6.380  11.767  0.2476 -2.6313  1.9609
 5508TIP3   OH238014   5.838   4.564  14.643  0.5749 -0.1148 -0.1459
 5508TIP3    H138015   5.861   4.489  14.697  0.5980 -0.3569 -0.4903
 5508TIP3    H238016   5.815   4.633  14.706  1.8028 -0.0030  0.1975
 5509TIP3   OH238017   6.367   2.620  13.830 -0.2091 -0.3642  0.3204
 5509TIP3    H138018   6.293   2.677  13.811  0.5121  0.2271 -0.8603
 5509TIP3    H238019   6.403   2.653  13.912 -0.3237  0.3557  0.0915
 5510TIP3   OH238020   6.326   4.384  12.191 -0.1936  0.4940  0.3490
 5510TIP3    H138021   6.317   4.353  12.281  0.7314 -0.8106  0.0118
 5510TIP3    H238022   6.393   4.328  12.152 -0.1288  1.4405 -0.9800
 5511TIP3   OH238023   0.134   2.461   4.811  0.9936  0.5085  0.8519
 5511TIP3    H138024   0.134   2.529   4.743  0.5903 -0.6398 -0.3356
 5511TIP3    H238025   0.226   2.438   4.822  1.0541  0.6369  0.6271
 5512TIP3   OH238026   2.522   1.998  16.250 -0.1365  1.0288  0.0407
 5512TIP3    H138027   2.482   2.080  16.279 -0.8956  0.4490  0.6793
 5512TIP3    H238028   2.470   1.929  16.291 -0.4777  0.1739 -1.7138
 5513TIP3   OH238029   2.186   5.445   4.636 -0.2487  0.2702  0.3967
 5513TIP3    H138030   2.233   5.435   4.554 -0.6133  0.5001  0.1559
 5513TIP3    H238031   2.097   5.415   4.617  0.1448 -1.5198  1.2246
 5514TIP3   OH238032   5.204   2.163   4.958  0.4021  0.5384 -0.0834
 5514TIP3    H138033   5.214   2.070   4.937 -1.2746  0.3272 -0.0371
 5514TIP3    H238034   5.180   2.203   4.874  0.6602  0.8605 -0.0036
 5515TIP3   OH238035   0.116   5.948   3.708 -0.2080 -0.3336 -0.6325
 5515TIP3    H138036   0.138   5.947   3.801  1.6690  2.6556 -0.9203
 5515TIP3    H238037   0.169   5.879   3.669 -1.8602 -2.3983  0.5698
 5516TIP3   OH238038   2.350   6.147  16.845 -0.1358 -0.2443 -0.2442
 5516TIP3    H138039   2.395   6.228  16.823 -0.3196 -0.2498 -0.6445
 5516TIP3    H238040   2.345   6.098  16.763 -2.2876  0.4497 -0.6038
 5517TIP3   OH238041   6.597   6.151  15.690  0.0422  0.6962  0.8153
 5517TIP3    H138042   6.557   6.200  15.618 -1.1431 -1.5700 -0.1864
 5517TIP3    H238043   6.528   6.146  15.756 -1.1864 -2.4635 -0.5441
 5518TIP3   OH238044   3.650   5.216  13.516 -0.2819  0.0574  0.0634
 5518TIP3    H138045   3.619   5.250  13.600 -0.3673  0.2378 -0.0421
 5518TIP3    H238046   3.723   5.272  13.492 -0.5937  0.3321 -0.2415
 5519TIP3   OH238047   2.952   1.955   2.459 -0.4182 -0.3260 -0.0181
 5519TIP3    H138048   2.934   1.890   2.527 -0.3981 -0.3009  0.0116
 5519TIP3    H238049   2.871   1.962   2.410 -1.1892  1.3044  1.3796
 5520TIP3   OH238050   4.196   4.345  14.474  0.2993 -0.7802  0.0766
 5520TIP3    H138051   4.174   4.395  14.396  2.1454  1.0802  0.6526
 5520TIP3    H238052   4.147   4.387  14.545  0.5182 -0.9008  0.3032
 5521TIP3   OH238053   2.302   4.274  16.213 -0.0677  0.6764  0.0970
 5521TIP3    H138054   2.333   4.259  16.124  0.6016  0.2563  0.3840
 5521TIP3    H238055   2.207   4.276  16.206 -0.0531 -0.1554 -0.5173
 5522TIP3   OH238056   3.488   6.348   4.954  0.0662 -0.2464 -0.6308
 5522TIP3    H138057   3.545   6.286   5.000  0.1068  0.3870  0.1877
 5522TIP3    H238058   3.417   6.293   4.920  1.2351 -1.0657 -1.8142
 5523TIP3   OH238059   0.624   1.700  15.112  0.0402  0.3519  0.1332
 5523TIP3    H138060   0.588   1.748  15.037  0.0865  0.1384 -0.0283
 5523TIP3    H238061   0.680   1.632  15.072  1.1204  1.0627  0.3858
 5524TIP3   OH238062   5.206   5.649  13.792 -0.1533 -0.0436 -0.0390
 5524TIP3    H138063   5.113   5.634  13.772 -0.6476  0.5227  1.6407
 5524TIP3    H238064   5.249   5.566  13.772 -1.1381 -0.5252 -0.2241
 5525TIP3   OH238065   3.253   2.792   5.473 -0.8053 -0.0408 -0.2466
 5525TIP3    H138066   3.205   2.726   5.422 -0.5972 -0.3047 -0.0999
 5525TIP3    H238067   3.185   2.853   5.501 -1.3581 -1.3375  1.4222
 5526TIP3   OH238068   5.440   2.299  13.286 -0.6446 -0.3461  0.2397
 5526TIP3    H138069   5.445   2.394  13.293  0.1906 -0.2701 -1.0558
 5526TIP3    H238070   5.387   2.272  13.361 -2.3060  1.2661 -0.2787
 5527TIP3   OH238071   1.872   5.572  13.590 -0.0712 -0.1010  0.2071
 5527TIP3    H138072   1.861   5.624  13.511  3.1852  1.0822  0.3612
 5527TIP3    H238073   1.887   5.636  13.659 -0.0955 -1.1617  1.2405
 5528TIP3   OH238074   4.376   2.656   6.214  0.1459  0.4442 -0.1579
 5528TIP3    H138075   4.466   2.625   6.215  0.0014 -0.0201 -0.7868
 5528TIP3    H238076   4.334   2.606   6.144 -0.5181  0.8844 -0.0868
 5529TIP3   OH238077   0.441   1.328  12.106 -0.3042 -0.5975 -0.4644
 5529TIP3    H138078   0.531   1.361  12.106 -0.1155 -1.0032  1.6621
 5529TIP3    H238079   0.412   1.338  12.196 -1.6945 -2.3775 -0.6618
 5530TIP3   OH238080   2.894   2.361  16.516  0.2675  0.1476  0.6543
 5530TIP3    H138081   2.803   2.331  16.522  0.1852 -0.2626 -1.6452
 5530TIP3    H238082   2.946   2.284  16.535  0.0771 -0.2932 -0.5008
 5531TIP3   OH238083   3.205   6.514   0.572 -0.2374 -0.0123 -0.6265
 5531TIP3    H138084   3.136   6.577   0.553  0.3224  0.5870 -0.7158
 5531TIP3    H238085   3.209   6.459   0.494 -1.5890 -1.0003 -0.0520
 5532TIP3   OH238086   0.573   5.281  14.036  0.0213  0.2487 -0.5137
 5532TIP3    H138087   0.498   5.311  14.087  0.7174  0.7383  0.2573
 5532TIP3    H238088   0.648   5.328  14.073  0.3885  1.7714 -2.9896
 5533TIP3   OH238089   6.099   4.768  13.089 -0.4236  0.2071 -0.3212
 5533TIP3    H138090   6.087   4.857  13.056  0.9995  0.3863 -0.4086
 5533TIP3    H238091   6.017   4.723  13.068 -1.7101  1.8576  0.9591
 5534TIP3   OH238092   3.514   4.873   4.858  0.5172 -0.1061  0.4212
 5534TIP3    H138093   3.460   4.943   4.822  0.6585 -1.1374 -2.0070
 5534TIP3    H238094   3.602   4.890   4.824  0.5976 -1.3120 -0.0251
 5535TIP3   OH238095   5.477   1.401  17.488 -0.9889 -0.3861 -0.8220
 5535TIP3    H138096   5.475   1.464  17.560  4.1722  1.0990 -1.5423
 5535TIP3    H238097   5.534   1.331  17.520  1.0775  0.1037 -3.1467
 5536TIP3   OH238098   0.499   6.460   2.194 -0.6264 -0.0042  0.2429
 5536TIP3    H138099   0.404   6.448   2.196 -0.8231  1.4487  0.2780
 5536TIP3    H238100   0.523   6.481   2.284 -0.4357  0.7629  0.0171
 5537TIP3   OH238101   3.817   3.033   4.523 -0.3835  0.3998  0.1522
 5537TIP3    H138102   3.823   3.108   4.582 -0.0116 -1.6150  2.8851
 5537TIP3    H238103   3.729   2.998   4.536 -0.2207 -0.2189 -0.3305
 5538TIP3   OH238104   0.297   1.934   4.807  0.3297  0.4785  0.3674
 5538TIP3    H138105   0.288   1.864   4.872 -0.0646  0.6389  0.4853
 5538TIP3    H238106   0.208   1.959   4.785  0.4377  2.0193  1.4898
 5539TIP3   OH238107   3.925   5.895   6.691 -0.4316  0.1415 -0.0589
 5539TIP3    H138108   3.885   5.913   6.776  0.4944 -0.9725  0.6537
 5539TIP3    H238109   4.006   5.946   6.692 -0.8650  0.8643 -0.6829
 5540TIP3   OH238110   5.892   0.005   0.281  0.1970 -0.0058 -0.6949
 5540TIP3    H138111   5.944  -0.074   0.291  0.3919 -0.0579 -1.8775
 5540TIP3    H238112   5.883   0.015   0.186 -1.1112  0.5528 -0.5285
 5541TIP3   OH238113   6.225   0.586   5.654  0.0348 -0.2526 -0.2694
 5541TIP3    H138114   6.166   0.612   5.583 -1.4229 -1.5173  0.4290
 5541TIP3    H238115   6.168   0.546   5.720  1.6511 -1.3496  0.5368
 5542TIP3   OH238116   0.367   3.141  10.802  0.3661  0.4919 -0.5043
 5542TIP3    H138117   0.425   3.066  10.787  0.9062  0.4684  1.4130
 5542TIP3    H238118   0.295   3.128  10.740 -0.5216 -2.6682  0.9808
 5543TIP3   OH238119   3.632   0.881   2.823  0.0149  0.0030  0.3867
 5543TIP3    H138120   3.580   0.933   2.884  0.2051  0.2737  0.3164
 5543TIP3    H238121   3.567   0.828   2.775 -0.3428  1.3877 -0.7219
 5544TIP3   OH238122   4.807   0.997  13.252 -0.5001 -0.1688  0.3586
 5544TIP3    H138123   4.872   0.997  13.322 -0.1036  1.1189  0.0285
 5544TIP3    H238124   4.768   1.085  13.256 -1.7032 -0.6811  0.0859
 5545TIP3   OH238125   5.407   4.334   3.564  0.3402  0.5229 -0.3371
 5545TIP3    H138126   5.425   4.428   3.555  2.9945  0.0510 -0.5189
 5545TIP3    H238127   5.478   4.301   3.619 -0.7998 -1.3282  0.0969
 5546TIP3   OH238128   2.115   4.819  14.082 -0.1461  0.2252 -0.1417
 5546TIP3    H138129   2.109   4.810  13.987  0.9605  2.0333 -0.4288
 5546TIP3    H238130   2.191   4.766  14.107 -0.3401 -0.1186 -0.2828
 5547TIP3   OH238131   2.554   5.819  11.301 -0.3961  0.7874  0.3115
 5547TIP3    H138132   2.578   5.907  11.270 -0.0450  1.4207  2.2671
 5547TIP3    H238133   2.478   5.795  11.248 -0.2613  2.0875 -0.5308
 5548TIP3   OH238134   0.356   1.638   6.522 -0.5949 -0.0919 -0.2766
 5548TIP3    H138135   0.440   1.593   6.526 -0.3930  0.0294 -2.1159
 5548TIP3    H238136   0.337   1.664   6.612  0.6440 -1.3626  0.3787
 5549TIP3   OH238137   0.917   4.709  16.793  0.0673  0.1476 -0.5171
 5549TIP3    H138138   0.943   4.674  16.879  0.2407 -1.1835 -1.0833
 5549TIP3    H238139   0.828   4.675  16.780  0.7808 -1.3698 -1.7216
 5550TIP3   OH238140   0.996   1.410   5.391 -0.2876  0.4612  0.1678
 5550TIP3    H138141   1.076   1.373   5.353  0.6130  0.4480  1.9833
 5550TIP3    H238142   0.995   1.501   5.360 -0.3897  0.0663 -1.0626
 5551TIP3   OH238143   4.493   4.900   0.151 -0.1690  0.1806  0.2149
 5551TIP3    H138144   4.539   4.847   0.086 -1.6363  1.3473 -1.8829
 5551TIP3    H238145   4.471   4.981   0.105 -2.5437  0.4768  1.6954
 5552TIP3   OH238146   1.146   4.983  14.705  0.3572 -0.0140 -0.2093
 5552TIP3    H138147   1.225   5.015  14.662  0.5317  0.3546  0.3624
 5552TIP3    H238148   1.153   5.017  14.795  1.0666 -2.4990  0.7704
 5553TIP3   OH238149   2.996   5.217  11.858 -0.0890  0.1217 -0.0252
 5553TIP3    H138150   2.937   5.284  11.894 -1.6004  0.6396 -3.1336
 5553TIP3    H238151   3.062   5.267  11.810  2.1831 -0.5301  2.1780
 5554TIP3   OH238152   5.726   5.024  15.561 -0.2191 -0.2628 -0.3228
 5554TIP3    H138153   5.655   4.989  15.615 -1.1283  0.3011 -1.1291
 5554TIP3    H238154   5.802   5.025  15.619 -0.9396 -0.5908  0.6464
 5555TIP3   OH238155   1.910   5.234  11.095 -0.2533 -0.0332 -0.2266
 5555TIP3    H138156   1.868   5.152  11.122  0.7745 -1.2314 -2.0443
 5555TIP3    H238157   1.847   5.274  11.035 -2.5858  2.6830  3.6081
 5556TIP3   OH238158   6.389   5.745   5.975  0.3629 -0.2685 -0.0031
 5556TIP3    H138159   6.438   5.719   6.053  0.6283 -0.5990 -0.2763
 5556TIP3    H238160   6.307   5.780   6.009  0.6673  0.0160  0.4458
 5557TIP3   OH238161   2.386   2.663   6.301 -0.4173 -0.5526  0.6178
 5557TIP3    H138162   2.297   2.680   6.331  0.1185  1.9978  0.9769
 5557TIP3    H238163   2.419   2.595   6.360 -2.3697 -2.2388 -0.1098
 5558TIP3   OH238164   6.132   5.632   1.973 -0.1261 -0.5127 -0.5365
 5558TIP3    H138165   6.091   5.545   1.980 -0.8990 -0.1830 -0.8552
 5558TIP3    H238166   6.129   5.652   1.880  0.5083 -0.3501 -0.5270
 5559TIP3   OH238167   1.952   5.759  17.461  0.0111  0.3016  0.2468
 5559TIP3    H138168   1.872   5.781  17.509  0.6434  0.7942  1.0979
 5559TIP3    H238169   1.923   5.701  17.391 -1.2148  1.1818  0.0010
 5560TIP3   OH238170   1.948   0.692   5.420  0.7144  0.6895 -0.1767
 5560TIP3    H138171   1.914   0.602   5.415  0.0931  0.9196 -0.1683
 5560TIP3    H238172   1.892   0.736   5.483  2.0124  0.6720  1.0509
 5561TIP3   OH238173   1.809   4.826  15.375 -0.2174 -0.0862 -0.2859
 5561TIP3    H138174   1.903   4.819  15.396  0.0363  0.2195 -1.3008
 5561TIP3    H238175   1.767   4.770  15.440  0.7496 -1.0145 -0.4290
 5562TIP3   OH238176   3.177   6.765   5.378 -0.3363 -0.1740 -0.1829
 5562TIP3    H138177   3.185   6.694   5.315 -1.5463 -0.4801 -0.0137
 5562TIP3    H238178   3.137   6.724   5.455 -0.3261  0.5237  0.2012
 5563TIP3   OH238179   5.342   1.871  13.308  0.0256  0.5934 -0.6729
 5563TIP3    H138180   5.369   1.948  13.356 -2.1856  1.1544 -0.2042
 5563TIP3    H238181   5.249   1.885  13.290  0.1606 -0.7753 -2.8635
 5564TIP3   OH238182   6.011   2.148   0.491 -0.6972 -0.2397  0.1258
 5564TIP3    H138183   6.095   2.139   0.445  0.3762  1.1207  1.7343
 5564TIP3    H238184   5.946   2.124   0.425  0.9695 -3.2965 -0.6476
 5565TIP3   OH238185   3.326   0.118   2.269  0.1872 -0.5661 -0.6292
 5565TIP3    H138186   3.363   0.190   2.319  0.7070 -0.7795 -0.6975
 5565TIP3    H238187   3.364   0.039   2.308 -1.1189 -0.8862  0.0801
 5566TIP3   OH238188   2.819   5.852  12.408 -0.3631  0.8610  0.5590
 5566TIP3    H138189   2.833   5.848  12.502 -0.6366 -2.9334  0.5942
 5566TIP3    H238190   2.907   5.851  12.370 -0.2596  0.4820  0.8007
 5567TIP3   OH238191   3.602   0.666   3.069  0.5400  0.3414 -0.0377
 5567TIP3    H138192   3.587   0.747   3.117  1.9156  0.7992 -0.3319
 5567TIP3    H238193   3.692   0.675   3.035  0.5539 -1.1158 -0.4318
 5568TIP3   OH238194   1.974   5.389  16.135  0.2209 -0.3051  0.4502
 5568TIP3    H138195   2.006   5.342  16.059  1.6410  0.0441  0.7960
 5568TIP3    H238196   1.887   5.420  16.110  0.0032 -1.5611 -0.4248
 5569TIP3   OH238197   0.072   6.337   2.508  0.0306 -0.3609  0.0981
 5569TIP3    H138198   0.010   6.398   2.547  0.3974  1.1239 -1.4979
 5569TIP3    H238199   0.150   6.342   2.564  1.2455  3.1391 -1.6452
 5570TIP3   OH238200   1.209   3.058  15.903  0.0557 -0.4991 -0.4016
 5570TIP3    H138201   1.216   3.152  15.915  0.8094 -0.1497 -2.9674
 5570TIP3    H238202   1.282   3.021  15.952  1.3509  0.5152 -1.5032
 5571TIP3   OH238203   0.126   4.664  14.761 -0.9040 -0.1151  0.7875
 5571TIP3    H138204   0.091   4.669  14.672 -1.3864 -3.6103  0.6597
 5571TIP3    H238205   0.192   4.734  14.765 -1.0819  0.3307 -2.1902
 5572TIP3   OH238206   3.744   0.047   3.715 -0.1556  0.3125  0.0956
 5572TIP3    H138207   3.800  -0.030   3.716  0.3637  0.6530  2.7911
 5572TIP3    H238208   3.709   0.054   3.804 -0.5630  2.9063 -0.1736
 5573TIP3   OH238209   5.142   4.669   5.035  0.1201 -0.1379  0.0391
 5573TIP3    H138210   5.093   4.659   5.116  0.6829  0.5928  0.4756
 5573TIP3    H238211   5.113   4.753   4.999 -0.4817 -0.6728 -0.7734
 5574TIP3   OH238212   6.069   1.879  11.855  0.6159  0.6014 -1.1323
 5574TIP3    H138213   5.980   1.847  11.838  0.9636 -1.1424  0.1400
 5574TIP3    H238214   6.126   1.805  11.835  1.5592  0.7900  0.6414
 5575TIP3   OH238215   6.094   3.770  11.455  0.0634 -0.3452 -0.1583
 5575TIP3    H138216   6.139   3.742  11.375 -0.1221 -0.3419 -0.2629
 5575TIP3    H238217   6.057   3.855  11.433 -0.3120 -0.5157 -0.1923
 5576TIP3   OH238218   0.619   0.038  13.719  0.2530  0.5989  0.4025
 5576TIP3    H138219   0.549   0.031  13.784  0.1850 -0.6400  0.2110
 5576TIP3    H238220   0.655  -0.050  13.712  1.6807  1.1622  0.3103
 5577TIP3   OH238221   2.673   3.647  11.786 -0.4408 -0.0287  0.1976
 5577TIP3    H138222   2.713   3.725  11.748  0.5188 -0.7072 -0.2093
 5577TIP3    H238223   2.737   3.616  11.851 -0.3668 -1.0213 -0.3322
 5578TIP3   OH238224   3.401   1.158   3.001 -0.2452 -0.2142 -0.2068
 5578TIP3    H138225   3.473   1.206   3.043 -0.3044 -0.6606  0.4261
 5578TIP3    H238226   3.357   1.113   3.074 -0.9253 -0.2607 -0.6397
 5579TIP3   OH238227   2.460   6.379  14.445 -0.0898  0.8667 -0.0152
 5579TIP3    H138228   2.534   6.345  14.495 -0.2658  0.3984 -0.0665
 5579TIP3    H238229   2.452   6.471  14.472  2.2401  1.7859 -2.0232
 5580TIP3   OH238230   1.109   1.139  14.339 -0.1749 -0.5201 -0.0406
 5580TIP3    H138231   1.058   1.177  14.268  1.3281  1.7028 -0.0067
 5580TIP3    H238232   1.172   1.082  14.296  0.0817  0.0454 -0.4202
 5581TIP3   OH238233   4.834   5.248   5.379 -0.3707 -0.7110  0.3032
 5581TIP3    H138234   4.743   5.235   5.404 -0.6003 -0.4402 -0.3787
 5581TIP3    H238235   4.842   5.343   5.365  0.6732 -0.3496  2.8768
 5582TIP3   OH238236   2.448   1.762  12.088  0.4633 -0.2657  0.2037
 5582TIP3    H138237   2.381   1.804  12.141  1.3996 -0.3549  1.5030
 5582TIP3    H238238   2.423   1.669  12.087  0.5859 -0.3066  0.7269
 5583TIP3   OH238239   6.569   6.736  12.396 -0.3381  0.1241  0.7273
 5583TIP3    H138240   6.487   6.727  12.347  0.7906 -0.0771 -1.2230
 5583TIP3    H238241   6.575   6.829  12.415 -1.0066  0.1399  0.9048
 5584TIP3   OH238242   6.625   2.896  14.206  0.4282  0.0106  0.5555
 5584TIP3    H138243   6.709   2.862  14.238  0.2732  0.2173  1.1966
 5584TIP3    H238244   6.646   2.934  14.121  1.0437  0.2704  0.8120
 5585TIP3   OH238245   4.909   1.858   1.862  0.6225  0.3859  0.0162
 5585TIP3    H138246   4.961   1.938   1.856  0.1221  0.7832  0.7667
 5585TIP3    H238247   4.963   1.798   1.913  0.4893  0.6858  0.5198
 5586TIP3   OH238248   4.863   0.553   4.162  0.0323  0.0290  0.4449
 5586TIP3    H138249   4.777   0.596   4.160  0.4353  0.8631 -1.0586
 5586TIP3    H238250   4.843   0.460   4.166 -0.9392  0.2297  0.4871
 5587TIP3   OH238251   3.398   6.068   5.713 -0.0979  0.4839 -0.1952
 5587TIP3    H138252   3.403   6.164   5.717 -0.0412  0.4633  0.3262
 5587TIP3    H238253   3.313   6.047   5.752 -0.9477  0.4115 -1.9966
 5588TIP3   OH238254   3.979   4.068  15.324 -1.1019  0.2881 -0.5654
 5588TIP3    H138255   4.059   4.118  15.311 -0.4023 -0.5417  0.3727
 5588TIP3    H238256   3.969   4.016  15.245  0.6223 -1.3801  0.2476
 5589TIP3   OH238257   4.004   0.898  16.187 -0.1303 -0.9454 -0.2992
 5589TIP3    H138258   3.999   0.899  16.283 -2.0764 -0.1891 -0.3680
 5589TIP3    H238259   4.086   0.942  16.166  0.8370 -2.0387  1.0202
 5590TIP3   OH238260   1.052   6.454  13.510  0.4898  0.1389  0.7038
 5590TIP3    H138261   0.993   6.408  13.568  0.7397 -0.9425  0.1277
 5590TIP3    H238262   1.003   6.531  13.481 -0.0134  0.1273  1.5034
 5591TIP3   OH238263   4.711   5.432   3.152 -0.0522 -0.2274  0.1371
 5591TIP3    H138264   4.727   5.410   3.244 -2.6228 -1.7728  0.3158
 5591TIP3    H238265   4.727   5.350   3.105  0.5719  0.3750 -0.7301
 5592TIP3   OH238266   1.795   3.619   4.228  0.3737  0.3465  0.2354
 5592TIP3    H138267   1.710   3.590   4.262  0.9614 -2.2194 -0.2725
 5592TIP3    H238268   1.789   3.606   4.134  1.1925  0.6077  0.1393
 5593TIP3   OH238269   6.627   3.228  15.287  0.1760 -0.2626  0.2417
 5593TIP3    H138270   6.672   3.153  15.325  1.4019 -0.6165 -1.7561
 5593TIP3    H238271   6.697   3.291  15.269 -0.7486  1.1018  1.2583
 5594TIP3   OH238272   3.458   3.950   4.460 -0.3584 -0.2559 -0.3112
 5594TIP3    H138273   3.509   3.920   4.536  1.3032  0.7181 -0.9794
 5594TIP3    H238274   3.372   3.910   4.471  1.2525 -4.2093 -0.4571
 5595TIP3   OH238275   1.868   3.623   1.420 -0.0045 -0.7915 -0.1349
 5595TIP3    H138276   1.932   3.552   1.422  1.2582  0.2284 -1.6482
 5595TIP3    H238277   1.837   3.630   1.511  0.3001 -2.8079  0.1782
 5596TIP3   OH238278   5.784   5.366   1.944 -0.2976  0.2098 -0.4564
 5596TIP3    H138279   5.768   5.460   1.941  0.2011  0.2633 -2.4427
 5596TIP3    H238280   5.709   5.331   1.994 -0.0987  1.6923  0.9676
 5597TIP3   OH238281   2.520   6.454   0.905 -0.3277  0.1358  0.3350
 5597TIP3    H138282   2.471   6.425   0.982  1.0602 -0.8097  0.8931
 5597TIP3    H238283   2.543   6.373   0.859 -0.9158  0.6755 -0.9601
 5598TIP3   OH238284   4.205   4.991  13.567  0.4199 -0.1295 -0.4507
 5598TIP3    H138285   4.115   4.975  13.539  0.6776 -0.7688 -0.9341
 5598TIP3    H238286   4.259   4.959  13.495  1.0136  1.9449 -1.0040
 5599TIP3   OH238287   4.814   1.362  13.066 -0.2674  0.0113  0.1613
 5599TIP3    H138288   4.728   1.319  13.067 -0.0983 -0.3548 -0.5848
 5599TIP3    H238289   4.816   1.410  12.983  1.1452 -1.8520 -0.9529
 5600TIP3   OH238290   3.966   0.245  15.701  0.2078 -0.1314  0.5824
 5600TIP3    H138291   4.025   0.246  15.626  1.3074  1.7555  1.4110
 5600TIP3    H238292   3.880   0.268  15.665  0.8120  1.1985 -0.0816
 5601TIP3   OH238293   1.146   6.102  12.549 -0.2106  0.5541 -0.0822
 5601TIP3    H138294   1.164   6.067  12.637 -0.5903 -0.8151 -0.5348
 5601TIP3    H238295   1.076   6.047  12.515 -1.4592  2.3243 -0.5089
 5602TIP3   OH238296   6.618   0.982   4.780  0.0278 -0.6030 -0.0153
 5602TIP3    H138297   6.567   0.982   4.861  0.6781  1.4981  0.4665
 5602TIP3    H238298   6.707   0.959   4.807  0.6600  1.8347  0.2716
 5603TIP3   OH238299   2.385   3.141   6.616 -0.2772 -0.4092  0.2192
 5603TIP3    H138300   2.357   3.212   6.674 -2.5160  0.5622 -1.8737
 5603TIP3    H238301   2.349   3.062   6.656 -0.0295 -0.0343  1.2068
 5604TIP3   OH238302   5.016   4.908  16.612  0.0102  0.2005  0.1658
 5604TIP3    H138303   4.964   4.857  16.675  1.9721 -0.3756  1.4293
 5604TIP3    H238304   4.986   4.998  16.625 -0.3087 -0.0365  1.2546
 5605TIP3   OH238305   1.049   2.578  14.366  0.0340 -0.5536 -0.1404
 5605TIP3    H138306   0.965   2.568  14.410  1.0278  0.7654  2.2358
 5605TIP3    H238307   1.028   2.625  14.285 -1.3950  1.0515  1.0934
 5606TIP3   OH238308   1.515   2.533   4.994 -0.1118 -0.4286 -0.2370
 5606TIP3    H138309   1.534   2.440   4.979  0.3998 -0.4030  0.2288
 5606TIP3    H238310   1.548   2.576   4.915 -0.2894 -0.6339 -0.4263
 5607TIP3   OH238311   1.786   0.937   1.886  0.8561 -0.0013  0.2201
 5607TIP3    H138312   1.732   0.989   1.826 -1.2827 -2.4638 -0.1383
 5607TIP3    H238313   1.865   0.918   1.835  0.4735  0.5885 -0.6289
 5608TIP3   OH238314   3.345   5.227  11.994 -0.0931  0.1148  0.5202
 5608TIP3    H138315   3.361   5.264  11.907 -1.2909  0.0336  0.2380
 5608TIP3    H238316   3.344   5.132  11.979 -1.1869  0.1237  0.4286
 5609TIP3   OH238317   3.562   1.628  16.658 -0.2666  0.4946  0.2187
 5609TIP3    H138318   3.520   1.688  16.595 -0.4424 -1.1824 -1.3567
 5609TIP3    H238319   3.532   1.541  16.631  1.0768 -0.4238  1.5568
 5610TIP3   OH238320   1.905   3.451  14.000 -0.3245 -0.1862 -0.3341
 5610TIP3    H138321   1.847   3.432  14.074  0.6236 -1.3844  0.1513
 5610TIP3    H238322   1.974   3.384  14.007  1.6086  1.7090 -0.3555
 5611TIP3   OH238323   1.660   2.837  15.769  0.4446 -0.3310 -0.5218
 5611TIP3    H138324   1.654   2.816  15.863  0.9712 -0.9046 -0.6090
 5611TIP3    H238325   1.569   2.837  15.739  0.2457  0.1397  0.0455
 5612TIP3   OH238326   6.453   2.957  17.477  0.3732 -0.2690 -0.1319
 5612TIP3    H138327   6.392   2.946  17.404  0.1788  1.2190 -0.2267
 5612TIP3    H238328   6.536   2.980  17.437  0.8991 -1.7427  0.0285
 5613TIP3   OH238329   3.219   4.032  14.751  0.0595  0.0164  0.3399
 5613TIP3    H138330   3.226   4.120  14.786  1.9360  0.4003 -0.9024
 5613TIP3    H238331   3.248   4.039  14.660  1.0575 -2.0081  0.4398
 5614TIP3   OH238332   2.001   6.267  16.456 -0.1778  0.3712 -0.5711
 5614TIP3    H138333   2.024   6.174  16.456 -1.8887 -0.1012  0.6605
 5614TIP3    H238334   1.996   6.291  16.364  0.5708 -0.6802 -0.8961
 5615TIP3   OH238335   3.573   2.493   2.768 -0.2090  0.2249 -0.0659
 5615TIP3    H138336   3.563   2.400   2.750  1.4940 -0.2261  1.1781
 5615TIP3    H238337   3.559   2.502   2.862  1.2786  0.9444  0.1192
 5616TIP3   OH238338   4.009   4.561  11.438  0.4353 -0.0137  0.1319
 5616TIP3    H138339   3.940   4.548  11.374 -0.6233  3.4139  0.3802
 5616TIP3    H238340   3.993   4.494  11.505 -2.3047  0.2718 -0.1340
 5617TIP3   OH238341   0.159   2.481  14.239  0.2268 -0.2036 -0.3942
 5617TIP3    H138342   0.221   2.465  14.310  1.4173  2.2932 -0.7580
 5617TIP3    H238343   0.181   2.415  14.173  0.7926 -0.9495  0.5193
 5618TIP3   OH238344   1.665   3.378  12.379  0.1862  0.1316  0.3665
 5618TIP3    H138345   1.637   3.457  12.426 -1.1648 -0.9018  1.3407
 5618TIP3    H238346   1.676   3.312  12.447  0.3002 -0.8206 -0.5551
 5619TIP3   OH238347   5.296   2.445  16.153  0.1768  0.5345 -0.0684
 5619TIP3    H138348   5.387   2.434  16.124 -0.1089 -1.4588 -0.3374
 5619TIP3    H238349   5.301   2.509  16.224  1.5874  1.5065 -0.9831
 5620TIP3   OH238350   3.605   1.565   0.498  0.0379 -0.0831 -0.6705
 5620TIP3    H138351   3.548   1.585   0.423 -1.4574 -0.2578  0.3709
 5620TIP3    H238352   3.544   1.542   0.569  1.3891  0.5426  0.7498
 5621TIP3   OH238353   4.073   0.643   4.148  0.6408  0.0698 -0.1821
 5621TIP3    H138354   3.999   0.658   4.089 -0.2131 -1.2641  0.5018
 5621TIP3    H238355   4.035   0.600   4.224  1.5144  2.7881  1.9339
 5622TIP3   OH238356   4.732   3.760  15.013 -0.4738  0.1006  0.0671
 5622TIP3    H138357   4.665   3.693  15.002 -0.7180  0.6845 -2.8088
 5622TIP3    H238358   4.768   3.744  15.100 -2.5392 -1.8539  0.6662
 5623TIP3   OH238359   0.378   3.306  12.429 -0.5606 -1.1501 -0.7151
 5623TIP3    H138360   0.311   3.242  12.452  0.6793 -1.5914  2.2325
 5623TIP3    H238361   0.456   3.276  12.476  0.7613  1.1433 -1.2854
 5624TIP3   OH238362   2.894   1.255  16.072  0.1189 -0.0866 -0.0579
 5624TIP3    H138363   2.919   1.179  16.125 -2.6576  0.3602  2.0809
 5624TIP3    H238364   2.876   1.218  15.985  2.1530 -1.2515 -0.0535
 5625TIP3   OH238365   6.730   1.699  15.354 -0.2603 -0.1174  0.7283
 5625TIP3    H138366   6.768   1.787  15.359 -0.5622  0.2479 -1.9642
 5625TIP3    H238367   6.787   1.652  15.294 -0.8557 -1.3661  1.1177
 5626TIP3   OH238368   4.439   1.979   4.825  0.2450  0.2207 -0.0779
 5626TIP3    H138369   4.358   2.011   4.865  2.4326  1.9361  3.5663
 5626TIP3    H238370   4.447   1.889   4.856 -0.3243 -0.0049 -0.5761
 5627TIP3   OH238371   6.564   5.211   1.427 -0.0810  0.5773  0.2573
 5627TIP3    H138372   6.626   5.245   1.492 -1.2079  1.2458  1.0191
 5627TIP3    H238373   6.482   5.202   1.475 -0.5416 -0.4691 -0.6841
 5628TIP3   OH238374   2.663   3.117  10.440 -0.1535 -0.3028 -0.2078
 5628TIP3    H138375   2.727   3.163  10.493  0.2780 -0.9583 -0.1515
 5628TIP3    H238376   2.690   3.025  10.443 -1.3455 -0.6611  0.1852
 5629TIP3   OH238377   2.807   3.797  15.821  0.3379  0.5736 -0.0697
 5629TIP3    H138378   2.877   3.806  15.756  2.6845  0.2432  2.2693
 5629TIP3    H238379   2.766   3.713  15.800  1.3152  0.2854 -0.9030
 5630TIP3   OH238380   1.938   0.245   5.153 -0.3698  0.0500  0.0058
 5630TIP3    H138381   1.924   0.192   5.074 -0.3411  1.2241 -0.8216
 5630TIP3    H238382   2.012   0.204   5.197 -2.3138 -2.5106  1.1223
 5631TIP3   OH238383   5.864   3.136   3.309  0.4009  0.0977  0.4108
 5631TIP3    H138384   5.783   3.145   3.260  0.8926 -0.5528 -0.5363
 5631TIP3    H238385   5.854   3.197   3.383 -0.5367  0.7282 -0.2209
 5632TIP3   OH238386   6.558   4.865   3.220  0.1020 -0.2617  0.1835
 5632TIP3    H138387   6.515   4.907   3.294 -0.1244  2.5985 -1.4419
 5632TIP3    H238388   6.486   4.828   3.169 -0.3387  2.4505 -1.3001
 5633TIP3   OH238389   6.397   4.296   6.180 -0.6005  0.0040 -0.3884
 5633TIP3    H138390   6.471   4.310   6.121  0.7363 -0.3928  1.1406
 5633TIP3    H238391   6.350   4.379   6.179  0.4160  0.5929 -0.6537
 5634TIP3   OH238392   4.690   6.630  17.008  0.1919  0.5481 -0.3495
 5634TIP3    H138393   4.642   6.632  17.091  1.0065  1.6687  0.1179
 5634TIP3    H238394   4.779   6.607  17.031  0.5196  1.2640 -0.8563
 5635TIP3   OH238395   3.736   2.661  10.713 -0.4804 -0.0201  0.4416
 5635TIP3    H138396   3.817   2.692  10.753  0.2401 -0.5028 -0.6080
 5635TIP3    H238397   3.707   2.589  10.770  1.2860 -1.6391 -0.6274
 5636TIP3   OH238398   5.081   6.415   5.306 -0.3206  0.5328  0.4337
 5636TIP3    H138399   5.109   6.501   5.339  0.7763  0.7698 -1.0219
 5636TIP3    H238400   5.130   6.403   5.225  0.1480 -1.8361  0.9954
 5637TIP3   OH238401   6.040   3.713   6.135 -0.3594  0.0902 -0.2673
 5637TIP3    H138402   5.982   3.755   6.199 -0.7223  0.3677 -0.7712
 5637TIP3    H238403   5.990   3.637   6.104  0.9532 -1.8167  1.9083
 5638TIP3   OH238404   1.389   2.220   2.192  0.0085  0.2486 -0.1426
 5638TIP3    H138405   1.454   2.222   2.121 -0.5580 -1.2223 -0.7344
 5638TIP3    H238406   1.305   2.212   2.147 -0.6015  1.8984  0.6245
 5639TIP3   OH238407   1.509   3.910   4.747 -0.2866  0.1865 -0.0280
 5639TIP3    H138408   1.433   3.942   4.796 -0.6323 -0.5373 -0.0859
 5639TIP3    H238409   1.476   3.837   4.695  0.1841  0.6440 -1.0024
 5640TIP3   OH238410   6.298   6.010   4.666  0.0753 -0.1077 -0.3831
 5640TIP3    H138411   6.344   5.929   4.687 -1.6655 -1.2747 -0.8888
 5640TIP3    H238412   6.217   5.982   4.624 -0.6550  1.8980 -0.4343
 5641TIP3   OH238413   0.733   3.857  16.805  0.0818  0.3494  0.8071
 5641TIP3    H138414   0.698   3.780  16.760  0.5371  0.6194 -0.0449
 5641TIP3    H238415   0.656   3.904  16.836 -0.3552  0.9815 -1.1032
 5642TIP3   OH238416   1.259   5.911   1.417  0.4670  0.3063 -0.3823
 5642TIP3    H138417   1.224   5.822   1.414  1.1781  0.0462 -2.2963
 5642TIP3    H238418   1.354   5.900   1.405  0.6941  1.2704  0.3755
 5643TIP3   OH238419   0.960   2.690   6.654 -0.4923 -0.4267 -0.6205
 5643TIP3    H138420   0.939   2.782   6.637  0.2558 -0.0587  0.3091
 5643TIP3    H238421   0.885   2.656   6.702 -0.1607  0.1334  0.3390
 5644TIP3   OH238422   6.585   4.297   4.124 -0.1251  0.5486 -0.5870
 5644TIP3    H138423   6.513   4.325   4.180 -0.0234 -0.4748  0.0823
 5644TIP3    H238424   6.568   4.205   4.107  0.9214  0.3348 -0.5720
 5645TIP3   OH238425   3.946   2.643   2.233 -0.7110  0.4137 -0.4358
 5645TIP3    H138426   3.943   2.551   2.259  2.0219  0.2521 -0.3944
 5645TIP3    H238427   3.980   2.688   2.311 -3.0265  1.6815 -0.0812
 5646TIP3   OH238428   1.610   1.072   5.941 -0.6494 -0.4165 -0.7433
 5646TIP3    H138429   1.524   1.042   5.910  0.5230 -2.4223 -2.2957
 5646TIP3    H238430   1.659   1.091   5.861  0.1595  1.3969  0.1400
 5647TIP3   OH238431   4.506   4.889   6.438  0.3192  0.1099 -0.0410
 5647TIP3    H138432   4.462   4.822   6.491 -0.1213  0.4567  0.0392
 5647TIP3    H238433   4.443   4.909   6.369  0.4579  0.4240 -0.0782
 5648TIP3   OH238434   2.177   6.244   3.197 -0.3369 -0.1028 -0.3716
 5648TIP3    H138435   2.187   6.150   3.211 -2.4742 -0.3746 -0.3713
 5648TIP3    H238436   2.097   6.252   3.145  0.2563  1.6822 -1.0811
 5649TIP3   OH238437   1.937   0.672   2.646  0.2204  0.4875 -0.5273
 5649TIP3    H138438   2.017   0.660   2.595 -0.1235 -1.1096 -0.7461
 5649TIP3    H238439   1.870   0.624   2.597 -0.9295  1.8960 -0.4196
 5650TIP3   OH238440   0.625   2.559   6.347 -0.1702  0.0938 -0.0935
 5650TIP3    H138441   0.536   2.524   6.339 -0.8271  1.6507  0.0058
 5650TIP3    H238442   0.620   2.621   6.419  1.1319 -0.1322  0.2227
 5651TIP3   OH238443   3.339   5.487  16.619 -0.7463  0.7559  0.3499
 5651TIP3    H138444   3.292   5.569  16.606 -0.8397  0.6416 -0.0420
 5651TIP3    H238445   3.276   5.431  16.665 -0.8787  0.7149  0.1194
 5652TIP3   OH238446   3.481   3.948  13.312 -0.1722  0.4907  0.0213
 5652TIP3    H138447   3.494   3.998  13.232  0.9253  0.7289  0.3351
 5652TIP3    H238448   3.445   3.864  13.282  1.0238  0.2539 -0.8083
 5653TIP3   OH238449   0.423   2.358  13.907  0.0807  0.5373 -0.0191
 5653TIP3    H138450   0.514   2.383  13.890  0.5512 -0.3537  1.0932
 5653TIP3    H238451   0.392   2.323  13.823  0.7884  0.7635 -0.3769
 5654TIP3   OH238452   4.107   5.915  15.573 -0.0150 -0.4057 -0.3540
 5654TIP3    H138453   4.042   5.925  15.503  1.5778 -0.8876 -1.9940
 5654TIP3    H238454   4.125   5.821  15.574  1.0725 -0.2015 -0.3315
 5655TIP3   OH238455   0.690   4.447   0.929 -0.0890  0.6667  0.8520
 5655TIP3    H138456   0.645   4.529   0.906 -0.4823  0.7438  1.8439
 5655TIP3    H238457   0.775   4.454   0.887 -0.6910  0.8872 -0.3810
 5656TIP3   OH238458   5.968   3.913   0.536 -0.1464  0.5487 -0.5668
 5656TIP3    H138459   5.923   3.936   0.455 -2.0398  2.5290  0.9150
 5656TIP3    H238460   5.968   3.818   0.538  0.3343  0.4374 -3.0501
 5657TIP3   OH238461   3.618   6.745   2.172 -0.0238  0.2786 -0.0326
 5657TIP3    H138462   3.565   6.711   2.243  0.7951  1.8116  1.3890
 5657TIP3    H238463   3.555   6.772   2.105 -0.7936 -1.3444  0.0055
 5658TIP3   OH238464   1.105   4.087  14.242 -0.1714  0.6345 -0.1315
 5658TIP3    H138465   1.041   4.025  14.207  1.2491 -1.0973  0.1544
 5658TIP3    H238466   1.078   4.100  14.333 -0.5526  0.5203 -0.2276
 5659TIP3   OH238467   2.863   6.281   5.292  0.2065 -0.3728  0.3664
 5659TIP3    H138468   2.922   6.346   5.332  2.1180 -0.5317 -2.0208
 5659TIP3    H238469   2.778   6.326   5.288  0.9795  1.1948  0.6804
 5660TIP3   OH238470   0.735   0.784   4.091  0.1590 -0.4018  0.1669
 5660TIP3    H138471   0.657   0.728   4.099 -0.0285 -0.3925 -1.4447
 5660TIP3    H238472   0.700   0.872   4.078  0.4378  0.3342  3.3467
 5661TIP3   OH238473   5.866   2.882   5.762  0.2308 -0.1210  0.7414
 5661TIP3    H138474   5.958   2.906   5.770  0.3142 -0.0221 -0.3104
 5661TIP3    H238475   5.818   2.957   5.799  0.5538  0.4698  0.0047
 5662TIP3   OH238476   4.233   6.076   6.943 -0.3583  0.1013  0.5409
 5662TIP3    H138477   4.311   6.041   6.901  0.1406  0.7138  0.9399
 5662TIP3    H238478   4.266   6.134   7.011 -1.1623  0.6696  0.4659
 5663TIP3   OH238479   5.891   6.567  15.047  0.2792  0.0114 -0.0251
 5663TIP3    H138480   5.911   6.576  14.954 -0.7240  0.4597 -0.2133
 5663TIP3    H238481   5.963   6.515  15.082  1.3140  0.8773 -0.7989
 5664TIP3   OH238482   4.022   0.007  15.831  0.2584 -0.0908  0.0256
 5664TIP3    H138483   4.053   0.032  15.918 -2.0170 -0.0862  0.8910
 5664TIP3    H238484   3.991   0.088  15.791 -1.6350 -0.5288  0.5050
 5665TIP3   OH238485   3.155   0.341   1.040  0.3140  0.2911 -0.1101
 5665TIP3    H138486   3.239   0.299   1.058 -0.0063 -1.1584 -1.6954
 5665TIP3    H238487   3.097   0.311   1.109  0.0332 -2.1950 -1.3295
 5666TIP3   OH238488   2.418   1.806  15.592 -0.1639 -0.7144  0.0850
 5666TIP3    H138489   2.336   1.814  15.544 -0.0069  1.0794  0.0380
 5666TIP3    H238490   2.391   1.794  15.683 -0.4793 -1.1914 -0.0727
 5667TIP3   OH238491   2.424   1.467   3.332  0.2982 -0.2360  0.8524
 5667TIP3    H138492   2.442   1.457   3.426  1.2544  1.8760  0.9455
 5667TIP3    H238493   2.333   1.495   3.328  0.1625 -0.6226  1.1149
 5668TIP3   OH238494   2.303   3.947   1.231  0.2650 -0.2682 -0.0567
 5668TIP3    H138495   2.300   3.899   1.314 -3.9172  0.3201  0.3201
 5668TIP3    H238496   2.320   4.037   1.257 -0.5142 -0.1721  0.1428
 5669TIP3   OH238497   3.852   5.588  13.226 -0.1987 -0.1885 -0.1783
 5669TIP3    H138498   3.880   5.670  13.187  1.5755  0.1117  1.5887
 5669TIP3    H238499   3.756   5.593  13.228 -0.2593  0.5961 -2.5887
 5670TIP3   OH238500   4.848   0.111  14.711  0.0963 -0.1209  0.0485
 5670TIP3    H138501   4.852   0.180  14.778 -0.6108 -0.7928  0.8047
 5670TIP3    H238502   4.793   0.043  14.750 -0.9106 -0.2297 -1.4881
 5671TIP3   OH238503   3.668   3.764  12.916  0.4676 -0.2187  0.0904
 5671TIP3    H138504   3.653   3.786  12.824 -0.6460  0.3179  0.3785
 5671TIP3    H238505   3.714   3.840  12.952  0.2786 -0.1238  0.1336
 5672TIP3   OH238506   6.225   3.479   0.244  0.2873  0.4312 -0.7074
 5672TIP3    H138507   6.265   3.509   0.326  0.1461 -0.9126 -0.1186
 5672TIP3    H238508   6.154   3.541   0.228  0.4670  0.8468  0.0558
 5673TIP3   OH238509   5.345   0.885  14.828  0.6318 -0.1290  0.3047
 5673TIP3    H138510   5.437   0.861  14.814  0.5175  0.4522 -1.5919
 5673TIP3    H238511   5.322   0.842  14.911  2.5297 -0.4832  0.6923
 5674TIP3   OH238512   3.891   1.252   5.201  0.5334  0.6778 -0.5501
 5674TIP3    H138513   3.934   1.317   5.146 -2.8845  2.2448 -1.6852
 5674TIP3    H238514   3.888   1.292   5.288  2.7126 -0.2167  0.0099
 5675TIP3   OH238515   0.074   0.481  16.098 -0.7612  0.2830  0.1838
 5675TIP3    H138516   0.074   0.410  16.034  0.2483 -0.7288  1.2465
 5675TIP3    H238517   0.031   0.554  16.054 -1.3800 -0.8358 -1.1164
 5676TIP3   OH238518   4.919   4.971   5.673  0.1248  0.5253  0.2318
 5676TIP3    H138519   4.846   4.961   5.612  1.1148 -1.4747 -0.7193
 5676TIP3    H238520   4.997   4.962   5.619  1.0391 -1.8688  1.7725
 5677TIP3   OH238521   3.921   2.924  12.048  0.5211  0.1145 -0.2683
 5677TIP3    H138522   3.920   2.848  12.105  0.0826 -0.1633 -0.6316
 5677TIP3    H238523   3.959   2.994  12.101 -0.5402  0.0523  0.6063
 5678TIP3   OH238524   2.181   4.651   6.299  0.6317 -0.1768 -0.3263
 5678TIP3    H138525   2.125   4.682   6.371 -0.7021  0.7205 -1.6785
 5678TIP3    H238526   2.185   4.557   6.311  0.6742 -0.0174  1.0824
 5679TIP3   OH238527   3.234   6.028  15.391 -0.4511 -0.1090  0.2548
 5679TIP3    H138528   3.299   6.045  15.323  0.1926  1.6163  1.2492
 5679TIP3    H238529   3.151   6.019  15.343  0.1175  0.1971 -0.8250
 5680TIP3   OH238530   2.408   2.230  11.742  0.4142  0.3429 -0.5740
 5680TIP3    H138531   2.492   2.248  11.784  0.3736 -1.7115  0.5314
 5680TIP3    H238532   2.429   2.220  11.649  0.7389  3.5193 -0.9373
 5681TIP3   OH238533   1.959   0.327   6.597  0.0148  0.0757 -0.6946
 5681TIP3    H138534   2.035   0.278   6.566 -0.2820 -0.8347 -0.0276
 5681TIP3    H238535   1.942   0.291   6.684  2.2945  4.0662  1.7120
 5682TIP3   OH238536   3.062   6.323  13.406 -0.5019 -0.3673  0.3108
 5682TIP3    H138537   3.149   6.361  13.421 -0.5269 -0.1393 -0.1309
 5682TIP3    H238538   3.008   6.396  13.378 -0.4195 -0.8142 -1.0688
 5683TIP3   OH238539   1.815   2.343   0.756 -0.2754  0.0701  0.4123
 5683TIP3    H138540   1.760   2.313   0.684 -0.1456 -0.6590  0.6015
 5683TIP3    H238541   1.755   2.360   0.828 -0.4931  1.5878 -0.1014
 5684TIP3   OH238542   6.371   2.822   2.416 -0.1413  0.5010 -0.0771
 5684TIP3    H138543   6.466   2.825   2.411 -0.0857  0.3525  0.7347
 5684TIP3    H238544   6.343   2.912   2.396  0.1324  0.4205 -0.8491
 5685TIP3   OH238545   0.700   2.384   3.983 -0.2659 -0.3861  0.1631
 5685TIP3    H138546   0.757   2.432   4.042 -0.5692 -0.8705  0.8578
 5685TIP3    H238547   0.759   2.331   3.930 -0.0970 -1.8399  1.7184
 5686TIP3   OH238548   4.254   3.485   0.170 -0.0752  0.3080  0.5383
 5686TIP3    H138549   4.293   3.397   0.171  1.9055  1.1002 -0.4779
 5686TIP3    H238550   4.164   3.472   0.199  0.3631 -1.9530  1.0782
 5687TIP3   OH238551   3.389   3.479   3.463 -0.0958  0.0660  0.3107
 5687TIP3    H138552   3.372   3.572   3.445 -2.2555 -0.3594 -0.1217
 5687TIP3    H238553   3.345   3.464   3.547 -1.1257 -0.8865 -0.3710
 5688TIP3   OH238554   5.335   0.793   5.666 -0.3984  0.5211  0.1047
 5688TIP3    H138555   5.395   0.720   5.680 -0.7142  0.5163  1.6781
 5688TIP3    H238556   5.248   0.754   5.675 -0.6731  0.5832 -1.8578
 5689TIP3   OH238557   5.501   5.109  11.453  0.3700 -0.1353  0.0769
 5689TIP3    H138558   5.529   5.019  11.466 -1.3926 -0.6209  0.8416
 5689TIP3    H238559   5.548   5.138  11.375  0.1606 -2.0860 -0.8473
 5690TIP3   OH238560   5.850   3.694  12.098  0.4653 -0.0841 -0.2976
 5690TIP3    H138561   5.933   3.679  12.053  0.4629 -0.5007 -0.1672
 5690TIP3    H238562   5.786   3.641  12.050  0.2967  0.1376 -0.3217
 5691TIP3   OH238563   3.468   0.723   2.379  0.8124 -0.1312 -0.1182
 5691TIP3    H138564   3.453   0.814   2.353  2.0485 -0.2392 -1.3102
 5691TIP3    H238565   3.393   0.676   2.342  0.0203  0.4256  0.7450
 5692TIP3   OH238566   3.634   0.035  13.995  0.3190  0.1442 -0.0089
 5692TIP3    H138567   3.559  -0.023  14.008  1.2189 -1.1021 -0.2387
 5692TIP3    H238568   3.663   0.057  14.083 -1.6873  2.5678  0.1764
 5693TIP3   OH238569   5.316   1.244   6.554 -0.1976  0.4872 -0.0839
 5693TIP3    H138570   5.343   1.329   6.590  0.0366  0.6669 -0.6568
 5693TIP3    H238571   5.370   1.234   6.475  0.3725 -0.5799  0.4202
 5694TIP3   OH238572   4.547   0.459   3.382  0.2047 -0.2404 -0.0470
 5694TIP3    H138573   4.525   0.402   3.456 -0.3930 -0.5733 -0.4737
 5694TIP3    H238574   4.462   0.482   3.343  0.5188 -0.2423 -0.7553
 5695TIP3   OH238575   1.919   5.344  14.613  0.3343  0.8657  0.1015
 5695TIP3    H138576   1.887   5.318  14.527  0.2667 -0.2362  0.4327
 5695TIP3    H238577   2.013   5.324  14.610 -0.0456 -1.3917  1.0052
 5696TIP3   OH238578   0.758   5.589   2.037 -0.3109  0.2924  0.4706
 5696TIP3    H138579   0.778   5.632   1.954  1.8655 -1.4814 -0.0132
 5696TIP3    H238580   0.841   5.554   2.066 -1.5261 -1.4164  2.0854
 5697TIP3   OH238581   4.328   2.391  15.277  0.0292 -0.1037  0.0691
 5697TIP3    H138582   4.364   2.412  15.363 -0.0491  0.6601 -0.0725
 5697TIP3    H238583   4.239   2.425  15.280  0.0215 -0.0884 -0.3018
 5698TIP3   OH238584   0.914   6.277   5.126  0.4148 -0.3724  0.2846
 5698TIP3    H138585   0.846   6.343   5.140 -0.5176 -1.1822 -0.2993
 5698TIP3    H238586   0.969   6.282   5.204 -2.6518 -2.4474  2.8550
 5699TIP3   OH238587   4.680   0.361   5.342 -0.0692 -0.3653 -0.4428
 5699TIP3    H138588   4.735   0.325   5.273 -0.5824 -0.9363 -0.5641
 5699TIP3    H238589   4.597   0.381   5.299 -0.4357 -0.8446  0.0271
 5700TIP3   OH238590   4.898   4.235   2.912 -0.0139 -0.6078 -0.3462
 5700TIP3    H138591   4.963   4.266   2.974 -0.4995  0.2495 -0.2562
 5700TIP3    H238592   4.948   4.220   2.831  0.4354 -0.7474 -0.0465
 5701TIP3   OH238593   4.564   4.871   4.008 -0.8383  0.5637  0.4640
 5701TIP3    H138594   4.477   4.880   4.048 -1.3224  0.2437 -0.4747
 5701TIP3    H238595   4.621   4.925   4.062 -1.6401  0.8281  1.0657
 5702TIP3   OH238596   3.506   4.102  13.834 -0.3457  0.4844 -0.4233
 5702TIP3    H138597   3.594   4.073  13.809 -0.6224  0.8003 -1.8491
 5702TIP3    H238598   3.496   4.188  13.792 -1.5445  0.2019 -0.7463
 5703TIP3   OH238599   1.336   4.135  14.694 -0.1900 -0.2408 -0.2106
 5703TIP3    H138600   1.314   4.053  14.738  0.9523  0.1787  1.1892
 5703TIP3    H238601   1.426   4.153  14.720 -0.5190  1.6179 -0.2654
 5704TIP3   OH238602   0.912   3.331  13.918  0.1050  0.1133  0.0954
 5704TIP3    H138603   0.972   3.388  13.871  0.1874  1.4014  1.6543
 5704TIP3    H238604   0.904   3.253  13.864  0.8029  1.1810 -1.6128
 5705TIP3   OH238605   3.646   5.546   1.924  0.6536 -0.4157 -0.3524
 5705TIP3    H138606   3.699   5.612   1.881 -0.7982  0.7779 -0.3749
 5705TIP3    H238607   3.653   5.567   2.017  1.8849 -1.5619 -0.1463
 5706TIP3   OH238608   6.108   1.828   1.039  0.3850 -0.2037  0.2843
 5706TIP3    H138609   6.109   1.908   0.987  1.3209 -0.0148  0.5840
 5706TIP3    H238610   6.164   1.767   0.990  2.6951  0.5191  1.8821
 5707TIP3   OH238611   0.138   5.380  12.330  0.1146 -0.2898 -0.0920
 5707TIP3    H138612   0.207   5.447  12.328 -1.4832  1.4640  0.2801
 5707TIP3    H238613   0.142   5.343  12.418  2.2470 -2.1350 -0.8825
 5708TIP3   OH238614   2.757   1.119  14.153 -0.1914 -0.1403  0.0790
 5708TIP3    H138615   2.720   1.190  14.100 -0.7255 -0.6764 -0.2703
 5708TIP3    H238616   2.850   1.120  14.132 -0.4454 -0.5633 -1.1361
 5709TIP3   OH238617   5.772   6.192  17.134 -0.4481  0.1680  0.1226
 5709TIP3    H138618   5.850   6.222  17.181  0.4830 -1.9002 -0.0019
 5709TIP3    H238619   5.751   6.264  17.074  2.6915 -0.0197 -1.4175
 5710TIP3   OH238620   3.200   1.996   6.328 -0.1058  0.0919 -0.2254
 5710TIP3    H138621   3.214   1.975   6.420 -1.0273  2.4984  0.5319
 5710TIP3    H238622   3.280   2.041   6.300 -0.6487  1.2689  0.0523
 5711TIP3   OH238623   1.796   0.520   5.984  0.4177 -0.0138 -0.1871
 5711TIP3    H138624   1.756   0.455   5.926  2.1456  0.0592 -1.5215
 5711TIP3    H238625   1.865   0.472   6.030  0.8219  0.5545 -0.1870
 5712TIP3   OH238626   2.028   6.549  17.006  0.1933  0.0398  0.2307
 5712TIP3    H138627   2.108   6.510  17.042  2.1537  2.4057 -1.1911
 5712TIP3    H238628   2.001   6.613  17.071 -0.4132 -0.5301  0.5577
 5713TIP3   OH238629   0.586   2.705  17.394  0.2110  0.3111  0.0406
 5713TIP3    H138630   0.498   2.672  17.373 -0.0411  0.4782  0.7760
 5713TIP3    H238631   0.570   2.794  17.426  0.6261  0.2682  0.3677
 5714TIP3   OH238632   6.213   2.105   3.175  0.0803  0.4320  0.3540
 5714TIP3    H138633   6.304   2.084   3.157 -0.8076 -2.6650 -1.1430
 5714TIP3    H238634   6.191   2.055   3.253 -0.9274 -0.9350 -0.7399
 5715TIP3   OH238635   5.638   5.976  11.651  0.2381 -0.4653  0.0025
 5715TIP3    H138636   5.588   5.958  11.571 -1.2953  0.0525  0.7928
 5715TIP3    H238637   5.718   5.924  11.642 -1.6502 -3.6467 -0.1428
 5716TIP3   OH238638   2.109   1.840   4.703  0.3902 -0.1966  0.2823
 5716TIP3    H138639   2.143   1.866   4.789 -0.2656  0.4728  0.3475
 5716TIP3    H238640   2.186   1.840   4.647  0.6447  0.5511  0.6044
 5717TIP3   OH238641   5.190   0.172   1.865  0.4512  0.3356 -0.3580
 5717TIP3    H138642   5.263   0.165   1.926  0.2765  0.8730 -0.0881
 5717TIP3    H238643   5.139   0.092   1.878  0.9686 -0.0231 -0.5202
 5718TIP3   OH238644   1.472   4.002   3.379 -0.5299  0.6449  0.1010
 5718TIP3    H138645   1.448   3.911   3.360  3.1541  0.1209 -3.3293
 5718TIP3    H238646   1.497   4.001   3.471 -1.4485 -1.5320  0.4052
 5719TIP3   OH238647   5.588   5.280   2.114  0.3926  0.0735  0.2407
 5719TIP3    H138648   5.555   5.369   2.125  1.0431  0.4554 -0.7670
 5719TIP3    H238649   5.513   5.231   2.078 -0.2820 -0.0594  1.7551
 5720TIP3   OH238650   1.929   4.883  15.756  0.2790  0.7116 -0.2565
 5720TIP3    H138651   1.917   4.911  15.846 -0.8514  2.3354 -0.8614
 5720TIP3    H238652   2.002   4.936  15.723  0.9928 -0.1989 -0.2034
 5721TIP3   OH238653   4.110   1.798   3.441  0.2214 -0.2690  0.5206
 5721TIP3    H138654   4.173   1.770   3.507  2.2608  1.7030 -0.4287
 5721TIP3    H238655   4.156   1.786   3.358 -1.3650 -0.4220 -0.3826
 5722TIP3   OH238656   4.539   6.063   1.541 -0.4279 -0.6881 -0.0412
 5722TIP3    H138657   4.589   6.032   1.617  0.4841 -1.1264 -0.8098
 5722TIP3    H238658   4.530   6.158   1.555  0.3577 -0.6564  0.2489
 5723TIP3   OH238659   4.137   2.367   4.345  0.1556  0.1248  0.8226
 5723TIP3    H138660   4.151   2.274   4.363 -0.4754 -0.0141  0.6174
 5723TIP3    H238661   4.073   2.395   4.410 -1.8354 -0.2830 -0.8404
 5724TIP3   OH238662   2.836   6.117   0.305  0.4323  0.0188 -0.6702
 5724TIP3    H138663   2.771   6.156   0.245  2.1399 -0.8393 -3.2704
 5724TIP3    H238664   2.818   6.157   0.389 -2.4766  0.9517 -1.6090
 5725TIP3   OH238665   3.934   5.039   2.859 -0.3705 -0.2941  0.0362
 5725TIP3    H138666   3.952   5.079   2.944  2.5026 -0.6697 -0.3178
 5725TIP3    H238667   3.986   5.090   2.797 -1.1217 -1.0742 -1.2866
 5726TIP3   OH238668   3.045   2.351   4.383  0.0039 -0.0093 -0.2835
 5726TIP3    H138669   3.117   2.342   4.447 -0.7671 -1.9462  0.3934
 5726TIP3    H238670   2.970   2.379   4.435 -0.1318  0.4575 -0.7219
 5727TIP3   OH238671   3.993   0.697   2.131 -0.2685 -0.1671  0.3817
 5727TIP3    H138672   3.984   0.602   2.140  0.3036 -0.3229 -0.4811
 5727TIP3    H238673   4.031   0.709   2.043  0.1119  0.8330  0.6661
 5728TIP3   OH238674   4.177   3.993   1.730  0.1727 -0.2382 -0.1055
 5728TIP3    H138675   4.137   4.053   1.667  0.6604 -0.7938 -0.9670
 5728TIP3    H238676   4.209   4.050   1.800  1.0685  0.5769 -1.1433
 5729TIP3   OH238677   0.447   6.672   3.735  0.0609  0.1801 -0.1083
 5729TIP3    H138678   0.454   6.744   3.798 -1.0046 -1.5021  2.0476
 5729TIP3    H238679   0.502   6.603   3.771  1.4776  0.0113 -2.4127
 5730TIP3   OH238680   5.160   1.438   4.809 -0.7917  0.2312  1.3984
 5730TIP3    H138681   5.114   1.368   4.763 -0.6857  1.0876 -0.0668
 5730TIP3    H238682   5.252   1.424   4.789 -0.7532  0.6544  1.2482
 5731TIP3   OH238683   1.436   3.349  14.440  0.6150 -0.3764  0.4647
 5731TIP3    H138684   1.467   3.439  14.437 -1.9235  0.6018  0.5773
 5731TIP3    H238685   1.408   3.330  14.351 -0.1287 -0.5441  0.7268
 5732TIP3   OH238686   4.599   2.307  13.462  0.0684  0.2738 -0.2007
 5732TIP3    H138687   4.508   2.283  13.481 -0.0071  1.3765  0.9617
 5732TIP3    H238688   4.646   2.223  13.458 -0.4911 -0.2270  2.0280
 5733TIP3   OH238689   1.589   6.202   6.199 -0.0138 -0.5478  0.1649
 5733TIP3    H138690   1.561   6.241   6.282 -0.2469 -1.3914  0.4951
 5733TIP3    H238691   1.685   6.204   6.203 -0.0239  0.1353  0.1027
 5734TIP3   OH238692   4.835   3.223  12.729  0.5438  0.3382  0.0411
 5734TIP3    H138693   4.925   3.230  12.761  0.4657  0.1161  0.3191
 5734TIP3    H238694   4.827   3.292  12.664  1.8901 -1.5691 -2.3123
 5735TIP3   OH238695   4.151   5.715  13.013  0.0384  0.0109  0.0037
 5735TIP3    H138696   4.178   5.806  13.001  1.6865 -0.4552 -0.1224
 5735TIP3    H238697   4.165   5.698  13.106 -1.5935  0.2557  0.3243
 5736TIP3   OH238698   1.469   5.438   0.187 -0.0994  0.0329  0.3170
 5736TIP3    H138699   1.398   5.499   0.166  0.1078 -0.1418 -0.9720
 5736TIP3    H238700   1.427   5.351   0.182  0.1476 -0.0593 -0.2687
 5737TIP3   OH238701   1.747   2.730   5.870 -0.2883  0.5081 -0.5167
 5737TIP3    H138702   1.812   2.790   5.907 -0.2588  0.7366 -0.9410
 5737TIP3    H238703   1.730   2.668   5.941  0.0737  0.7008 -0.2552
 5738TIP3   OH238704   1.452   6.293   2.398 -0.3770 -0.3811  0.3746
 5738TIP3    H138705   1.506   6.215   2.409  0.5050 -0.4227 -2.9875
 5738TIP3    H238706   1.362   6.260   2.397 -0.1783 -0.9770  1.4524
 5739TIP3   OH238707   4.629   2.000   2.009 -0.1879  0.6279 -0.1234
 5739TIP3    H138708   4.624   2.063   1.937  0.8915  0.3782 -0.4408
 5739TIP3    H238709   4.711   1.952   1.993 -0.2212  0.1850  0.9553
 5740TIP3   OH238710   3.200   3.158  12.623 -0.8800  0.1642 -0.8414
 5740TIP3    H138711   3.193   3.177  12.530  0.3574  0.7545 -0.8409
 5740TIP3    H238712   3.132   3.093  12.640 -1.8901  0.9117 -1.9016
 5741TIP3   OH238713   3.125   3.547   2.055 -0.1916  0.2155  0.3849
 5741TIP3    H138714   3.205   3.598   2.043 -1.0120  1.7115  0.9732
 5741TIP3    H238715   3.074   3.598   2.118 -1.6412 -0.6791 -0.0276
 5742TIP3   OH238716   0.719   0.223  15.838 -0.6334  0.6991 -0.1785
 5742TIP3    H138717   0.759   0.138  15.817  0.8843  1.8642 -2.4712
 5742TIP3    H238718   0.792   0.285  15.833 -1.7780  2.2004  1.0897
 5743TIP3   OH238719   4.067   5.428   3.953  0.2324 -0.3236  0.3436
 5743TIP3    H138720   4.112   5.403   3.872  0.0898 -0.4664  0.3079
 5743TIP3    H238721   4.074   5.523   3.956 -0.5569 -0.2370 -0.3049
 5744TIP3   OH238722   1.259   5.371  17.295  0.4655  0.5348  0.3618
 5744TIP3    H138723   1.325   5.424  17.341  1.0752  1.5165 -1.5211
 5744TIP3    H238724   1.211   5.434  17.241 -0.1881 -0.5600 -0.3747
 5745TIP3   OH238725   2.489   0.846  12.858 -0.2350  0.0541  0.4335
 5745TIP3    H138726   2.422   0.902  12.819  2.7706  2.4802 -1.7824
 5745TIP3    H238727   2.512   0.783  12.790  1.9726  1.4440 -0.2101
 5746TIP3   OH238728   5.084   5.326  16.970 -0.3333 -0.1401 -0.0656
 5746TIP3    H138729   5.051   5.415  16.987 -0.7549 -0.2994 -0.0325
 5746TIP3    H238730   5.013   5.269  16.999 -0.7782 -0.4404 -1.6689
 5747TIP3   OH238731   5.767   4.929  17.178  0.3128  0.1790  0.0320
 5747TIP3    H138732   5.813   4.981  17.112 -0.0986  1.7308  0.9082
 5747TIP3    H238733   5.805   4.842  17.171  1.6788  0.8134 -0.8929
 5748TIP3   OH238734   0.729   2.278   0.269 -0.2858  0.3017 -0.6330
 5748TIP3    H138735   0.656   2.320   0.313 -0.4696  0.2773 -0.9081
 5748TIP3    H238736   0.788   2.251   0.339  0.3631  1.9531 -0.4925
 5749TIP3   OH238737   6.294   3.274   4.653  0.3889  0.0376  0.6290
 5749TIP3    H138738   6.256   3.355   4.619  2.8118  0.4356 -1.4388
 5749TIP3    H238739   6.270   3.207   4.589  0.5555 -0.3377  0.9515
 5750TIP3   OH238740   1.154   5.361   0.173 -1.0614  0.2704 -0.9876
 5750TIP3    H138741   1.114   5.362   0.086 -1.7145  1.2241 -0.6889
 5750TIP3    H238742   1.168   5.453   0.194  0.0297  0.0143 -0.4904
 5751TIP3   OH238743   2.435   1.065  11.534 -0.2470  0.3127  0.6430
 5751TIP3    H138744   2.448   1.126  11.461  0.8495  2.8347  2.7844
 5751TIP3    H238745   2.341   1.066  11.550 -0.5338 -0.4784 -0.8458
 5752TIP3   OH238746   2.965   2.508  17.056  0.2365  0.1421 -0.0560
 5752TIP3    H138747   3.011   2.445  17.112  1.6486  1.5517  0.4603
 5752TIP3    H238748   2.923   2.568  17.116 -1.7762 -0.6832 -0.5414
 5753TIP3   OH238749   2.139   2.772   2.003 -0.2817 -0.0935  0.1449
 5753TIP3    H138750   2.055   2.734   1.977 -0.5216  1.6555 -1.9105
 5753TIP3    H238751   2.126   2.800   2.094 -2.0919  0.5189 -0.2626
 5754TIP3   OH238752   2.894   1.405  13.434  0.0706 -0.1715  0.0956
 5754TIP3    H138753   2.906   1.461  13.357  0.6532  1.1705  1.1200
 5754TIP3    H238754   2.962   1.338  13.426 -0.0965 -0.2598 -0.7164
 5755TIP3   OH238755   5.437   2.324  15.491  0.1689 -0.1259 -0.6402
 5755TIP3    H138756   5.434   2.339  15.397 -1.2043 -0.7508 -0.7233
 5755TIP3    H238757   5.519   2.277  15.505 -0.4507 -1.6580 -1.8187
 5756TIP3   OH238758   4.118   0.408  13.181 -0.1553  0.1477  0.1599
 5756TIP3    H138759   4.110   0.490  13.231  0.6186 -0.1691  0.8165
 5756TIP3    H238760   4.211   0.401  13.161 -0.4617  0.3429 -1.4900
 5757TIP3   OH238761   2.719   5.151  14.477  0.3716  0.1205 -0.2174
 5757TIP3    H138762   2.764   5.099  14.411 -0.0693 -1.7645  0.8850
 5757TIP3    H238763   2.641   5.100  14.499 -0.7560  1.8587  0.0713
 5758TIP3   OH238764   5.793   1.404  16.198  0.0262  0.1043 -0.3799
 5758TIP3    H138765   5.722   1.368  16.145 -1.1993  2.3546 -0.3952
 5758TIP3    H238766   5.777   1.370  16.286 -0.6571  0.0275 -0.5294
 5759TIP3   OH238767   2.040   2.635   5.479  0.3507 -0.8920 -0.2704
 5759TIP3    H138768   2.074   2.582   5.552 -0.0173 -1.4474 -0.4985
 5759TIP3    H238769   2.035   2.574   5.406  0.2575 -0.4484 -0.6377
 5760TIP3   OH238770   4.036   4.662   3.771  0.6022  0.1902  0.8343
 5760TIP3    H138771   3.995   4.749   3.764 -3.4629 -1.6155 -1.4373
 5760TIP3    H238772   4.034   4.642   3.864 -1.8011  1.1737  1.0753
 5761TIP3   OH238773   2.274   5.434   3.840 -0.2627  0.8028  0.2369
 5761TIP3    H138774   2.210   5.505   3.828 -2.2688 -0.8852  0.2399
 5761TIP3    H238775   2.307   5.446   3.928 -0.8858  1.5223  0.3847
 5762TIP3   OH238776   0.871   3.439  14.875 -0.7968  0.2264  0.0887
 5762TIP3    H138777   0.792   3.494  14.874  0.2831  2.0276  2.6381
 5762TIP3    H238778   0.862   3.387  14.955 -0.3972 -1.1951 -0.7707
 5763TIP3   OH238779   3.016   6.637   3.826  0.4246 -0.5403 -0.1498
 5763TIP3    H138780   3.001   6.713   3.770 -0.0455 -1.1080 -0.8031
 5763TIP3    H238781   3.084   6.587   3.781 -2.0113 -2.5693 -1.8849
 5764TIP3   OH238782   0.962   5.952  15.742 -0.3344 -0.5104  0.4990
 5764TIP3    H138783   1.055   5.970  15.728 -0.1582 -0.9036  1.1280
 5764TIP3    H238784   0.928   5.935  15.654  0.4424 -1.5564  0.3810
 5765TIP3   OH238785   0.662   2.034  15.856  0.1373  0.0366  0.6032
 5765TIP3    H138786   0.635   2.115  15.811 -2.4806 -2.4235 -2.7551
 5765TIP3    H238787   0.590   2.016  15.917  0.2006 -0.3555  0.5583
 5766TIP3   OH238788   5.135   0.202  15.208  0.6479  0.4097  0.0379
 5766TIP3    H138789   5.050   0.234  15.238  0.8224  1.4022 -0.4823
 5766TIP3    H238790   5.198   0.243  15.267  0.9904  2.3255 -1.5479
 5767TIP3   OH238791   1.297   5.235  12.419  0.2300 -0.0646  0.4006
 5767TIP3    H138792   1.354   5.297  12.374 -0.1177  0.5023  0.7279
 5767TIP3    H238793   1.356   5.170  12.456  0.7491  0.9885  1.4776
 5768TIP3   OH238794   4.921   4.454   4.906  0.1526 -0.2209 -0.2746
 5768TIP3    H138795   4.903   4.382   4.966  1.7331 -0.6043 -0.2346
 5768TIP3    H238796   4.963   4.521   4.960  2.0915 -0.7829 -0.9988
 5769TIP3   OH238797   4.878   3.650   5.919 -0.5500  0.4005  0.1274
 5769TIP3    H138798   4.939   3.578   5.934 -0.0240  0.4903 -1.3038
 5769TIP3    H238799   4.920   3.725   5.961  1.0808  0.7544 -1.9336
 5770TIP3   OH238800   6.253   2.151   1.332 -0.3323 -0.1814 -0.3777
 5770TIP3    H138801   6.170   2.105   1.319  0.2401 -0.8271 -2.0679
 5770TIP3    H238802   6.320   2.084   1.316  0.5223  1.0095 -2.1300
 5771TIP3   OH238803   5.987   3.650  16.377 -0.1195  0.1138  0.2400
 5771TIP3    H138804   5.956   3.570  16.421  0.0021  0.1621  0.4149
 5771TIP3    H238805   6.064   3.622  16.328  0.4675  0.3040  1.0292
 5772TIP3   OH238806   0.311   4.452   4.882 -0.3639  0.0398  0.0374
 5772TIP3    H138807   0.232   4.498   4.910  0.8929  2.0878  0.4012
 5772TIP3    H238808   0.297   4.435   4.789 -1.4845 -0.1986  0.2353
 5773TIP3   OH238809   0.592   2.105  16.413 -0.3838 -0.2067 -0.8653
 5773TIP3    H138810   0.607   2.034  16.351 -0.9569 -0.5953 -0.5704
 5773TIP3    H238811   0.621   2.069  16.498  1.6014  0.7516 -1.0667
 5774TIP3   OH238812   6.120   4.404  16.895 -0.1303 -0.1160  0.1532
 5774TIP3    H138813   6.112   4.309  16.905  1.8523 -0.3279  0.0090
 5774TIP3    H238814   6.032   4.437  16.914 -0.4284 -1.8152  2.1051
 5775TIP3   OH238815   2.325   1.404  15.717 -0.2784  0.1428  0.3337
 5775TIP3    H138816   2.307   1.498  15.722 -0.2225  0.2677 -1.4595
 5775TIP3    H238817   2.283   1.375  15.637  1.3655 -0.9700 -0.1718
 5776TIP3   OH238818   2.584   6.568   2.574  0.4358  0.0201 -0.6800
 5776TIP3    H138819   2.549   6.613   2.651 -1.6262 -0.9678 -0.9820
 5776TIP3    H238820   2.673   6.541   2.601 -0.1444 -0.1223  1.2768
 5777TIP3   OH238821   5.153   6.421  16.493  0.6277 -0.5643 -0.0445
 5777TIP3    H138822   5.128   6.449  16.405 -1.3719  0.9915  0.9372
 5777TIP3    H238823   5.221   6.483  16.520  1.4514 -1.2206 -0.5681
 5778TIP3   OH238824   1.321   1.027   4.384  0.1348  0.4737 -0.9587
 5778TIP3    H138825   1.256   0.966   4.420 -1.0811  2.3758  0.2736
 5778TIP3    H238826   1.405   0.989   4.407 -0.5664 -1.0356 -0.7687
 5779TIP3   OH238827   2.165   0.233  16.589 -0.6920  0.5733 -0.1744
 5779TIP3    H138828   2.128   0.321  16.596 -1.5539  0.3420 -1.5909
 5779TIP3    H238829   2.193   0.225  16.498  1.9346  0.3413  0.5574
 5780TIP3   OH238830   0.157   6.229  15.917 -0.0098 -0.3229  0.2608
 5780TIP3    H138831   0.220   6.267  15.856 -1.4344  0.9669 -0.4866
 5780TIP3    H238832   0.072   6.259  15.885 -0.8259  0.6744  3.0254
 5781TIP3   OH238833   2.349   4.171  12.764  0.0834  0.2994  0.2786
 5781TIP3    H138834   2.310   4.106  12.706 -1.0234  0.2486  1.0302
 5781TIP3    H238835   2.405   4.224  12.708  0.0228 -0.5278 -0.5762
 5782TIP3   OH238836   1.624   5.355   6.803 -0.2455 -0.1790 -0.3125
 5782TIP3    H138837   1.618   5.423   6.737 -1.7203  0.6420  0.6133
 5782TIP3    H238838   1.673   5.395   6.875 -0.6109 -0.2731 -0.0034
 5783TIP3   OH238839   5.235   3.024   6.956 -0.4221  0.0111 -0.0718
 5783TIP3    H138840   5.281   3.040   6.874 -0.2684 -0.1090 -0.0080
 5783TIP3    H238841   5.151   3.068   6.944 -0.5339 -0.2860 -0.4248
 5784TIP3   OH238842   4.356   2.286   1.218  0.2646  0.4290 -0.5802
 5784TIP3    H138843   4.329   2.377   1.234 -0.5187  0.2438 -0.8449
 5784TIP3    H238844   4.445   2.282   1.253 -0.2518  0.8820  0.8950
 5785TIP3   OH238845   5.794   6.528  11.568 -0.0284  0.0272  0.0422
 5785TIP3    H138846   5.780   6.595  11.501  0.0033 -0.1488 -0.1383
 5785TIP3    H238847   5.726   6.547  11.634 -0.6291 -0.3408 -0.4566
 5786TIP3   OH238848   2.704   2.679   0.676 -0.1684  0.4440 -0.0072
 5786TIP3    H138849   2.669   2.593   0.701  0.6098  0.5266  1.4545
 5786TIP3    H238850   2.705   2.677   0.580 -0.4491 -1.0687 -0.0068
 5787TIP3   OH238851   2.946   2.851   0.548 -0.2282 -0.6174  0.1765
 5787TIP3    H138852   2.888   2.778   0.569  0.2660 -0.8881  0.6452
 5787TIP3    H238853   3.016   2.811   0.497  0.5493 -0.6704  1.2391
 5788TIP3   OH238854   4.574   2.574   1.415  0.4087  0.3772 -0.0499
 5788TIP3    H138855   4.560   2.604   1.325 -1.4219 -0.7089 -0.1957
 5788TIP3    H238856   4.508   2.621   1.466  0.1043 -0.4679  0.3577
 5789TIP3   OH238857   1.132   5.585   1.071  0.3445  0.4535  0.7059
 5789TIP3    H138858   1.120   5.530   0.993 -0.6261  1.7878 -0.1328
 5789TIP3    H238859   1.055   5.566   1.125  0.4700  0.3316  0.8438
 5790TIP3   OH238860   2.201   6.105   5.350  0.1696 -0.2364  0.9484
 5790TIP3    H138861   2.263   6.128   5.419  1.3771 -0.1308 -0.1297
 5790TIP3    H238862   2.185   6.012   5.360  2.0440 -0.6980  0.0919
 5791TIP3   OH238863   5.357   2.148   4.199 -0.4012 -0.0504  0.7442
 5791TIP3    H138864   5.422   2.206   4.159 -0.6042  0.2061  0.7836
 5791TIP3    H238865   5.343   2.080   4.133  0.1313 -0.2755  0.8609
 5792TIP3   OH238866   5.229   4.117  13.145  0.0792 -0.3894  0.1685
 5792TIP3    H138867   5.281   4.157  13.215 -0.7557 -2.2427  1.9451
 5792TIP3    H238868   5.292   4.065  13.095  0.6995  1.0163 -0.5687
 5793TIP3   OH238869   6.610   1.201   0.144  0.6480 -0.3972 -0.0516
 5793TIP3    H138870   6.531   1.153   0.169 -0.1575  1.0557  0.2824
 5793TIP3    H238871   6.598   1.288   0.180  3.3054 -0.6539  1.7273
 5794TIP3   OH238872   5.558   0.509   4.321 -0.5289 -0.2642  0.0167
 5794TIP3    H138873   5.531   0.543   4.236 -0.1407  0.1152  0.0416
 5794TIP3    H238874   5.616   0.436   4.301 -2.2313 -1.6739 -0.0438
 5795TIP3   OH238875   6.056   2.392  15.364 -0.3029 -0.4737 -0.2109
 5795TIP3    H138876   5.962   2.376  15.365 -0.2047 -1.3886 -2.0573
 5795TIP3    H238877   6.095   2.307  15.386  0.1190  0.0561  1.2120
 5796TIP3   OH238878   3.868   0.783   4.709  0.1506  0.1648  0.5582
 5796TIP3    H138879   3.848   0.733   4.788  3.6108 -2.4213  0.0357
 5796TIP3    H238880   3.790   0.838   4.695 -2.2813 -2.1675  3.4512
 5797TIP3   OH238881   0.791   2.321   1.484 -0.0117 -0.0303  0.5576
 5797TIP3    H138882   0.719   2.334   1.546 -0.0702  1.3289  0.2415
 5797TIP3    H238883   0.851   2.395   1.502  1.7691 -1.5858  1.4186
 5798TIP3   OH238884   6.105   6.516   2.700 -0.2632 -0.5150  0.7616
 5798TIP3    H138885   6.136   6.577   2.767  0.0114 -0.7643  0.8634
 5798TIP3    H238886   6.184   6.471   2.670 -0.5243 -1.1536  1.0200
 5799TIP3   OH238887   0.250   1.758   6.737 -0.6577 -0.2272 -0.7805
 5799TIP3    H138888   0.238   1.832   6.797  0.1216 -0.2994 -0.5149
 5799TIP3    H238889   0.187   1.773   6.667 -3.4252 -1.4630  1.2723
 5800TIP3   OH238890   1.958   0.363  17.172  0.4807  0.2533  0.1668
 5800TIP3    H138891   1.970   0.414  17.092 -0.6377  0.1730 -0.0594
 5800TIP3    H238892   2.044   0.325  17.189  0.7368  0.2863 -0.9759
 5801TIP3   OH238893   1.072   2.662   4.949 -0.1293  0.6110  0.2696
 5801TIP3    H138894   0.981   2.633   4.938  0.3932 -0.1764 -3.0055
 5801TIP3    H238895   1.093   2.640   5.039 -2.9177  0.0014  0.8662
 5802TIP3   OH238896   2.809   6.763  15.584  0.5755  0.1930  0.1416
 5802TIP3    H138897   2.816   6.769  15.679  0.6857  1.7922  0.0581
 5802TIP3    H238898   2.826   6.670  15.565 -0.6002 -0.4156  1.7470
 5803TIP3   OH238899   0.675   3.889  12.393 -0.1294  0.0497  0.1844
 5803TIP3    H138900   0.693   3.969  12.444  2.8087 -0.6795  0.5249
 5803TIP3    H238901   0.735   3.824  12.430  0.6158 -1.1339 -2.8144
 5804TIP3   OH238902   2.235   6.603  14.008  0.0261 -0.0387  0.1418
 5804TIP3    H138903   2.251   6.672  13.943  0.8787  1.1085  1.5073
 5804TIP3    H238904   2.269   6.639  14.090 -3.5651 -0.2018  1.9036
 5805TIP3   OH238905   2.824   1.973  15.250 -0.1497 -0.7950  0.1124
 5805TIP3    H138906   2.907   1.956  15.294  0.0316  2.9231  1.5610
 5805TIP3    H238907   2.833   1.932  15.164  3.0768 -0.7256  0.3183
 5806TIP3   OH238908   4.637   6.149   2.303  0.7849 -0.5963  0.1952
 5806TIP3    H138909   4.690   6.159   2.224 -0.2716 -0.3613 -0.5088
 5806TIP3    H238910   4.598   6.236   2.315  0.1190 -0.9189  0.3691
 5807TIP3   OH238911   0.924   2.181   3.842 -0.0830  0.0487 -0.5623
 5807TIP3    H138912   0.922   2.245   3.770 -0.6271  2.0482  1.1107
 5807TIP3    H238913   1.013   2.185   3.876 -0.6975  1.9016  1.0883
 5808TIP3   OH238914   2.280   2.418   5.404  0.6944  0.0570  0.3404
 5808TIP3    H138915   2.305   2.326   5.410 -1.1502 -0.4517  1.1680
 5808TIP3    H238916   2.302   2.454   5.489  0.2422  0.0416  0.4664
 5809TIP3   OH238917   3.582   0.249  11.928 -0.0898  0.4028  0.8258
 5809TIP3    H138918   3.543   0.168  11.959  0.0735  0.3387  0.8687
 5809TIP3    H238919   3.560   0.253  11.836  1.5543 -0.6926  0.3356
 5810TIP3   OH238920   3.771   3.563  13.087 -0.1572  0.3821  0.3989
 5810TIP3    H138921   3.863   3.585  13.107 -0.8050  1.7475  2.2204
 5810TIP3    H238922   3.745   3.627  13.021  0.5838 -0.9849 -1.2972
 5811TIP3   OH238923   2.553   3.408  15.469  0.0234  0.2741 -0.0862
 5811TIP3    H138924   2.492   3.358  15.415 -0.9852  0.6202  0.6948
 5811TIP3    H238925   2.630   3.421  15.414  0.3920 -2.2371 -0.2901
 5812TIP3   OH238926   6.614   2.347  16.949  0.7024  0.0568  0.1895
 5812TIP3    H138927   6.561   2.271  16.924  0.6035  0.1156  0.2203
 5812TIP3    H238928   6.637   2.389  16.866  0.1554  0.4004  0.2039
 5813TIP3   OH238929   0.860   2.252  16.997 -0.0181  0.0043 -0.3835
 5813TIP3    H138930   0.954   2.255  17.012  0.0651  1.0415 -0.9947
 5813TIP3    H238931   0.835   2.161  17.015  1.0516 -0.2270 -0.0014
 5814TIP3   OH238932   1.230   6.020   3.025  0.3769  0.3795 -0.1183
 5814TIP3    H138933   1.233   5.927   3.049  1.4722  0.7713  1.4860
 5814TIP3    H238934   1.209   6.020   2.932  0.5982 -1.4862 -0.2171
 5815TIP3   OH238935   4.775   4.801   1.339  0.5691 -0.2420  0.1395
 5815TIP3    H138936   4.757   4.895   1.345  1.6250  0.0391 -0.7647
 5815TIP3    H238937   4.692   4.759   1.361  0.2352  0.8867  1.1344
 5816TIP3   OH238938   4.774   3.730   6.733 -0.2021  0.6978 -0.5335
 5816TIP3    H138939   4.859   3.762   6.702  1.1057 -0.6956  1.3674
 5816TIP3    H238940   4.786   3.636   6.742 -2.1539  0.3923 -0.7298
 5817TIP3   OH238941   3.510   5.507   3.914 -0.0262 -0.1111 -0.3919
 5817TIP3    H138942   3.526   5.552   3.997 -0.4065  0.0285 -0.3916
 5817TIP3    H238943   3.415   5.512   3.902  0.2781  3.3999 -2.7871
 5818TIP3   OH238944   5.419   6.391   2.152 -0.0155 -0.4386  0.3302
 5818TIP3    H138945   5.431   6.298   2.134  1.9204 -0.1437 -0.1973
 5818TIP3    H238946   5.378   6.394   2.238 -0.1926 -1.7744  0.3168
 5819TIP3   OH238947   5.672   1.951   0.729 -0.2401  0.4221  0.1065
 5819TIP3    H138948   5.614   1.944   0.653 -1.1232  0.1902  0.7796
 5819TIP3    H238949   5.697   1.861   0.748  0.8197  0.5739 -0.5297
 5820TIP3   OH238950   6.452   4.034   6.216 -0.2401  0.1033  0.1239
 5820TIP3    H138951   6.460   4.029   6.311 -1.2954 -0.8295  0.1850
 5820TIP3    H238952   6.435   4.127   6.198  2.3816  0.7378  0.6009
 5821TIP3   OH238953   2.641   4.875  12.585  0.4509  0.2725 -0.1555
 5821TIP3    H138954   2.568   4.819  12.613  0.7222  0.0146  0.0488
 5821TIP3    H238955   2.607   4.964  12.591 -0.5890  0.0711 -2.2063
 5822TIP3   OH238956   5.533   6.695   3.052 -0.4259 -0.0548  0.3404
 5822TIP3    H138957   5.627   6.695   3.037 -0.3296  1.2148  0.8388
 5822TIP3    H238958   5.495   6.694   2.964  0.0437 -0.7950  0.1410
 5823TIP3   OH238959   5.252   3.492   1.471  0.9260  0.0270  0.5959
 5823TIP3    H138960   5.316   3.433   1.510  2.1299 -0.6677 -2.2159
 5823TIP3    H238961   5.280   3.503   1.381 -2.8310 -0.1445 -0.7705
 5824TIP3   OH238962   6.237   2.487  12.552 -0.7301 -0.2460 -0.1651
 5824TIP3    H138963   6.211   2.446  12.635  0.0506  3.1127  1.9258
 5824TIP3    H238964   6.332   2.483  12.552 -0.6402  1.4536  0.0822
 5825TIP3   OH238965   0.709   2.202   5.154  0.0935  0.0260  0.2133
 5825TIP3    H138966   0.667   2.116   5.146 -1.7092  0.9638 -1.1907
 5825TIP3    H238967   0.701   2.241   5.067 -0.9858  2.4054  1.2906
 5826TIP3   OH238968   0.700   0.553  10.745  0.1238 -0.0746 -0.1100
 5826TIP3    H138969   0.730   0.598  10.824 -1.0543 -0.1520  0.4037
 5826TIP3    H238970   0.605   0.548  10.755  0.2045 -3.1520  0.1219
 5827TIP3   OH238971   0.060   1.047   1.749 -0.3225  0.3131 -0.7112
 5827TIP3    H138972   0.116   1.019   1.677  1.7925  0.9100  0.5986
 5827TIP3    H238973   0.002   0.973   1.765  0.8377 -0.8018 -1.4536
 5828TIP3   OH238974   3.112   0.748   4.918 -0.0176 -0.6718 -0.0443
 5828TIP3    H138975   3.029   0.714   4.885 -0.6376 -0.7622  1.4902
 5828TIP3    H238976   3.147   0.802   4.848 -0.2935 -2.3714 -1.5607
 5829TIP3   OH238977   5.485   4.068  11.864  0.2597  0.1502 -0.4324
 5829TIP3    H138978   5.550   4.066  11.935 -0.7654  0.6546  0.5538
 5829TIP3    H238979   5.537   4.080  11.785  1.2924  3.5696  0.5655
 5830TIP3   OH238980   5.103   3.744  15.871 -0.6067  0.6165 -0.2308
 5830TIP3    H138981   5.112   3.795  15.790 -0.2930  0.5992 -0.2096
 5830TIP3    H238982   5.129   3.655  15.846  1.1363  0.9480  0.2655
 5831TIP3   OH238983   5.247   3.860   2.063  0.1827  0.7571 -0.6537
 5831TIP3    H138984   5.328   3.883   2.107 -0.3246  0.0745  0.6963
 5831TIP3    H238985   5.268   3.780   2.014 -0.1519 -0.6587  1.3831
 5832TIP3   OH238986   3.672   0.626   0.367  0.3298  0.2934 -0.6372
 5832TIP3    H138987   3.665   0.708   0.416 -0.5585  0.5987 -1.2726
 5832TIP3    H238988   3.696   0.653   0.279 -2.3523  0.0937 -1.5067
 5833TIP3   OH238989   6.550   1.441  14.965 -0.2350  0.0172  0.4287
 5833TIP3    H138990   6.468   1.457  14.920 -0.0798 -1.0364 -0.2676
 5833TIP3    H238991   6.617   1.481  14.909 -0.1049 -0.7235  0.0455
 5834TIP3   OH238992   5.431   2.612  13.372 -0.1782  0.0074  0.3482
 5834TIP3    H138993   5.426   2.614  13.277 -0.2131  0.2611  0.3544
 5834TIP3    H238994   5.344   2.640  13.402 -0.5085 -1.0840  0.4583
 5835TIP3   OH238995   1.272   0.438   4.177  0.2060 -0.5125 -0.8743
 5835TIP3    H138996   1.238   0.448   4.088  0.0038  1.2793 -0.6343
 5835TIP3    H238997   1.205   0.478   4.232 -1.9947 -5.5565  0.6869
 5836TIP3   OH238998   0.497   1.531   5.538  0.3453  0.0737  0.2410
 5836TIP3    H138999   0.552   1.539   5.460 -1.6323  0.0699 -1.2376
 5836TIP3    H239000   0.559   1.527   5.610  2.3245 -1.1398 -1.3996
 5837TIP3   OH239001   4.165   4.676  12.523 -0.0351 -0.0587  0.3060
 5837TIP3    H139002   4.095   4.630  12.568 -0.4806 -1.3836 -1.6257
 5837TIP3    H239003   4.148   4.661  12.430  1.0164  2.2825 -0.3388
 5838TIP3   OH239004   1.021   0.314   2.107  0.2508 -0.3168 -0.1676
 5838TIP3    H139005   0.960   0.372   2.153 -2.3470 -3.9468  1.4310
 5838TIP3    H239006   1.095   0.305   2.166  0.3558  0.7565 -0.1137
 5839TIP3   OH239007   0.457   6.752  13.962  0.4681 -0.1082 -0.4363
 5839TIP3    H139008   0.420   6.730  14.048 -0.0023  3.1754  0.3261
 5839TIP3    H239009   0.519   6.822  13.980  1.6629 -0.5014 -2.6329
 5840TIP3   OH239010   4.693   1.372  15.282  0.3083  0.0825  0.4058
 5840TIP3    H139011   4.783   1.392  15.309  0.8799  0.1703 -1.4119
 5840TIP3    H239012   4.699   1.358  15.187 -1.3489 -1.4115  0.4677
 5841TIP3   OH239013   5.334   6.164  11.980 -0.1232  0.3171 -0.4718
 5841TIP3    H139014   5.327   6.258  11.995 -1.6583 -0.1382  2.3889
 5841TIP3    H239015   5.404   6.155  11.916 -0.9567  3.4512 -2.0191
 5842TIP3   OH239016   2.937   3.960  15.194 -0.5104  0.6596 -0.0308
 5842TIP3    H139017   3.013   3.904  15.213 -0.8872 -0.3805 -1.4012
 5842TIP3    H239018   2.974   4.042  15.163  0.0457  0.7190  0.7497
 5843TIP3   OH239019   3.410   2.233  15.236 -0.1958 -0.3137 -0.2443
 5843TIP3    H139020   3.482   2.222  15.298  0.0095  1.4990 -0.1210
 5843TIP3    H239021   3.331   2.229  15.291 -0.1769 -1.4705 -0.2713
 5844TIP3   OH239022   5.293   0.063  11.470 -0.1270  0.2391 -0.1443
 5844TIP3    H139023   5.347   0.116  11.412 -1.5398  1.1507 -0.6949
 5844TIP3    H239024   5.314  -0.028  11.448  1.2432  0.5599 -0.2344
 5845TIP3   OH239025   4.138   5.310  13.509 -0.6046 -0.5199  0.6998
 5845TIP3    H139026   4.228   5.338  13.528 -0.0681 -0.9664 -1.0433
 5845TIP3    H239027   4.085   5.359  13.572  0.8130  0.0906  1.4785
 5846TIP3   OH239028   3.285   3.033   3.399  0.5394 -0.0232  0.1855
 5846TIP3    H139029   3.368   3.025   3.354  1.4477  0.0989  1.7535
 5846TIP3    H239030   3.248   3.116   3.370  0.4470 -0.5593 -1.2977
 5847TIP3   OH239031   3.538   2.808  17.489 -0.3251  0.6400  0.3908
 5847TIP3    H139032   3.540   2.799  17.393  1.7060 -1.8517  0.5486
 5847TIP3    H239033   3.451   2.780  17.514 -0.1489 -0.9598 -0.6288
 5848TIP3   OH239034   0.327   5.037   4.603  0.0929 -0.8313  0.2967
 5848TIP3    H139035   0.364   5.019   4.690 -0.9375 -2.8934  0.3720
 5848TIP3    H239036   0.292   4.953   4.574  0.5867 -0.2414 -2.2382
 5849TIP3   OH239037   1.747   4.246  12.457  0.4563 -0.1126 -0.3633
 5849TIP3    H139038   1.696   4.290  12.389  1.9253 -1.3754 -2.3961
 5849TIP3    H239039   1.688   4.181  12.495 -0.0990 -0.0431 -1.1057
 5850TIP3   OH239040   4.459   2.580  12.915  0.1269 -0.2476  0.2973
 5850TIP3    H139041   4.481   2.503  12.967 -0.7454  0.4327  1.7332
 5850TIP3    H239042   4.427   2.644  12.978 -2.3222  0.1423 -1.1935
 5851TIP3   OH239043   2.531   1.817   5.940 -0.3969  0.2867 -0.1864
 5851TIP3    H139044   2.506   1.725   5.942 -1.0343  0.4313  2.5479
 5851TIP3    H239045   2.624   1.817   5.966  0.4732  0.3028 -2.9477
 5852TIP3   OH239046   6.262   6.628   5.192 -0.2836  0.5642  0.0994
 5852TIP3    H139047   6.302   6.674   5.118  1.6367  0.0247  0.7482
 5852TIP3    H239048   6.268   6.535   5.169 -1.4888  0.4780  0.0801
 5853TIP3   OH239049   4.923   0.504  11.664 -0.3552  0.4266  0.2048
 5853TIP3    H139050   4.964   0.484  11.580 -0.8607  0.1313  0.0270
 5853TIP3    H239051   4.965   0.443  11.726  1.1603  1.6905  0.4983
 5854TIP3   OH239052   3.393   2.822  13.727 -0.2478 -0.5227 -0.5581
 5854TIP3    H139053   3.409   2.913  13.702  0.0919 -0.2827  0.4794
 5854TIP3    H239054   3.466   2.774  13.689  0.7899 -0.0216  0.6937
 5855TIP3   OH239055   3.366   3.813  11.625 -0.1710  0.5200  0.0337
 5855TIP3    H139056   3.271   3.806  11.630 -0.1850  0.6531 -0.0467
 5855TIP3    H239057   3.382   3.901  11.591 -0.0138  0.5949  0.2931
 5856TIP3   OH239058   5.957   3.637   3.148 -0.1949 -0.3784  0.2289
 5856TIP3    H139059   5.907   3.638   3.067  1.3654 -0.5920 -0.7827
 5856TIP3    H239060   6.024   3.570   3.134  0.8004  0.3708  1.2452
 5857TIP3   OH239061   4.407   1.296   0.568 -0.1158  0.3548 -0.0338
 5857TIP3    H139062   4.448   1.282   0.653  0.1734  0.1697 -0.2022
 5857TIP3    H239063   4.314   1.279   0.583 -0.0612  0.2919  0.2356
 5858TIP3   OH239064   1.829   1.151  17.235 -0.0633  0.5930 -0.4140
 5858TIP3    H139065   1.756   1.203  17.269  0.1260  0.2527  0.5396
 5858TIP3    H239066   1.810   1.141  17.142 -2.1099 -0.9079  0.1023
 5859TIP3   OH239067   5.737   5.298   1.117 -0.1290  0.4090 -0.2187
 5859TIP3    H139068   5.678   5.280   1.191  0.8425 -1.0872  0.2358
 5859TIP3    H239069   5.696   5.255   1.042 -0.5161  0.9178 -0.3039
 5860TIP3   OH239070   2.826   5.508  13.172 -0.1975 -0.3895 -0.7101
 5860TIP3    H139071   2.835   5.565  13.095  0.4919  0.3532 -0.0965
 5860TIP3    H239072   2.873   5.428  13.148 -0.2154 -0.2729 -1.1533
 5861TIP3   OH239073   6.685   3.223  14.668  0.1870  0.0610 -0.0924
 5861TIP3    H139074   6.776   3.209  14.642  0.1194  0.8867 -0.8432
 5861TIP3    H239075   6.668   3.158  14.736  1.0046 -0.8162 -0.7170
 5862TIP3   OH239076   1.447   4.481  13.394  0.2953  0.3347  0.7452
 5862TIP3    H139077   1.473   4.414  13.331 -0.3640 -1.3362  2.1892
 5862TIP3    H239078   1.528   4.507  13.437  1.1905  3.2628 -2.2885
 5863TIP3   OH239079   3.749   3.236   4.716  0.1347 -0.7402 -0.1354
 5863TIP3    H139080   3.842   3.236   4.739  0.1581 -0.4032 -0.2229
 5863TIP3    H239081   3.708   3.297   4.778  0.8660  3.7559 -3.5140
 5864TIP3   OH239082   5.846   6.656  17.010 -0.6683  0.5719  0.1088
 5864TIP3    H139083   5.780   6.689  16.948 -0.8913  1.7540  0.9399
 5864TIP3    H239084   5.930   6.675  16.967 -0.8332 -0.0659 -0.5231
 5865TIP3   OH239085   2.261   0.416  11.639  0.2511  0.1532 -0.2138
 5865TIP3    H139086   2.279   0.509  11.651  1.2602 -0.3885  3.7484
 5865TIP3    H239087   2.166   0.411  11.627  0.3187  1.6916 -1.8798
 5866TIP3   OH239088   6.015   5.903  14.849 -0.2663  0.4371  0.1863
 5866TIP3    H139089   6.003   5.910  14.754 -2.1776 -1.0739  0.2381
 5866TIP3    H239090   6.108   5.920  14.863  0.2232 -0.0112 -2.0360
 5867TIP3   OH239091   1.568   1.193  13.831 -0.1051  0.1182 -0.3097
 5867TIP3    H139092   1.549   1.189  13.737 -0.5550  2.0933 -0.3571
 5867TIP3    H239093   1.546   1.283  13.856  0.2633 -0.2852  1.6425
 5868TIP3   OH239094   2.157   5.753  11.401 -0.2348  0.1469  0.1551
 5868TIP3    H139095   2.175   5.820  11.468 -1.6571  0.1837  0.5462
 5868TIP3    H239096   2.184   5.671  11.442 -0.9072  0.1943  0.7220
 5869TIP3   OH239097   2.261   1.769  16.641 -0.4240 -0.1376  0.7289
 5869TIP3    H139098   2.232   1.712  16.712 -0.8702 -0.1275  0.5611
 5869TIP3    H239099   2.343   1.806  16.671  0.2701 -1.4448  0.5455
 5870TIP3   OH239100   5.975   1.727  13.003 -0.5844  0.4055  0.2323
 5870TIP3    H139101   5.881   1.727  12.987 -0.1385  0.8118 -3.3460
 5870TIP3    H239102   6.005   1.811  12.967  1.2396 -0.0068  0.6680
 5871TIP3   OH239103   0.239   6.678  12.114  0.5076 -0.1502  0.4325
 5871TIP3    H139104   0.221   6.772  12.126 -2.3231 -0.7137  1.4609
 5871TIP3    H239105   0.285   6.653  12.194  0.2258  0.1530  0.6966
 5872TIP3   OH239106   5.932   6.496  17.355  0.4254 -0.6330  0.0220
 5872TIP3    H139107   5.926   6.435  17.429  0.2603  0.0395  0.5771
 5872TIP3    H239108   6.023   6.523  17.354  0.2070  0.2065  0.7012
 5873TIP3   OH239109   6.280   5.303   0.404 -0.3357  0.0790  0.2592
 5873TIP3    H139110   6.211   5.240   0.427 -0.7273  1.1398  2.2207
 5873TIP3    H239111   6.359   5.268   0.445  0.1918 -0.7484 -1.3661
 5874TIP3   OH239112   4.707   5.132   0.352  0.0754  0.1457 -0.4870
 5874TIP3    H139113   4.640   5.086   0.302  0.8862 -1.4015 -0.2091
 5874TIP3    H239114   4.754   5.184   0.286 -1.2132  1.0878 -0.7108
 5875TIP3   OH239115   6.603   3.395   1.386  0.4528 -0.4263 -0.1751
 5875TIP3    H139116   6.627   3.413   1.477 -0.1300 -0.5513  0.0111
 5875TIP3    H239117   6.684   3.407   1.337  1.1514 -1.8299  0.5599
 5876TIP3   OH239118   3.784   5.798   5.835  0.4243 -0.1748 -0.7004
 5876TIP3    H139119   3.746   5.720   5.877 -1.5181  1.0496 -0.0709
 5876TIP3    H239120   3.768   5.869   5.898  2.0070  0.7863 -1.3357
 5877TIP3   OH239121   3.639   0.748   5.091 -0.5213 -0.3519  0.2241
 5877TIP3    H139122   3.643   0.843   5.100 -1.0449 -0.4140  1.1496
 5877TIP3    H239123   3.548   0.730   5.066 -0.4144 -0.6120  0.0147
 5878TIP3   OH239124   2.847   4.907  16.107 -0.4462  0.4502 -0.0927
 5878TIP3    H139125   2.847   4.931  16.014  0.8618 -3.0475 -1.1696
 5878TIP3    H239126   2.934   4.933  16.137 -0.4523  0.5450 -0.1543
 5879TIP3   OH239127   4.355   0.256  13.515  0.5090  0.0609 -0.5518
 5879TIP3    H139128   4.270   0.218  13.537 -0.3085  2.4574  0.7613
 5879TIP3    H239129   4.417   0.186  13.535 -0.7553 -0.2008  3.4884
 5880TIP3   OH239130   3.473   0.662   4.252  0.2206  0.2612 -0.3787
 5880TIP3    H139131   3.485   0.725   4.181  0.3398  0.1236 -0.4831
 5880TIP3    H239132   3.525   0.696   4.324  0.5900  0.0938 -0.5579
 5881TIP3   OH239133   2.073   1.528  16.667  0.4618 -0.1600 -0.0381
 5881TIP3    H139134   1.995   1.473  16.679  0.3383  0.2384  1.1002
 5881TIP3    H239135   2.053   1.608  16.715  1.3132  0.2190 -0.3100
 5882TIP3   OH239136   4.207   5.036   5.564  0.5159  0.1254 -0.2310
 5882TIP3    H139137   4.259   5.056   5.642  0.1730  0.8498 -0.1795
 5882TIP3    H239138   4.269   5.045   5.492  0.4480  1.1462 -0.1839
 5883TIP3   OH239139   5.216   5.962  13.203  0.0788  0.5906  0.2811
 5883TIP3    H139140   5.198   5.869  13.188  3.0850 -0.3544  1.8187
 5883TIP3    H239141   5.132   5.998  13.231 -0.7224 -2.2108  1.8801
 5884TIP3   OH239142   0.053   4.424  14.381 -0.1317 -0.1165  0.1469
 5884TIP3    H139143   0.077   4.394  14.293 -0.9192 -1.1533  0.2688
 5884TIP3    H239144  -0.042   4.414  14.384 -0.2990  1.3183  0.6188
 5885TIP3   OH239145   0.554   0.847   6.100  0.3238 -0.7914  0.3374
 5885TIP3    H139146   0.500   0.901   6.042  1.0018  0.7845  1.0905
 5885TIP3    H239147   0.498   0.774   6.124 -1.4474  0.6742  0.9383
 5886TIP3   OH239148   0.189   4.410  13.027 -0.0140 -0.3084  0.1111
 5886TIP3    H139149   0.104   4.415  13.070 -0.5264  1.9038 -0.9991
 5886TIP3    H239150   0.179   4.340  12.962  0.1115 -2.2422  2.0616
 5887TIP3   OH239151   5.787   0.169   6.051  0.1368 -0.1311  0.1448
 5887TIP3    H139152   5.821   0.258   6.057 -0.7304  0.1681  1.1553
 5887TIP3    H239153   5.794   0.135   6.141  1.2161 -1.3884 -0.3854
 5888TIP3   OH239154   3.579   1.206  13.475 -0.3518 -0.1822 -0.0258
 5888TIP3    H139155   3.595   1.134  13.414 -0.0509  1.0382 -1.4644
 5888TIP3    H239156   3.666   1.241  13.494 -0.4450 -0.5644  1.1500
 5889TIP3   OH239157   2.419   4.637   2.569  0.1696  0.6129  0.0926
 5889TIP3    H139158   2.362   4.581   2.621  1.3448 -0.3196  0.4265
 5889TIP3    H239159   2.500   4.642   2.620  1.1968  0.0369 -1.4176
 5890TIP3   OH239160   2.087   2.506   1.702  0.0102  0.5072 -0.2067
 5890TIP3    H139161   2.043   2.427   1.670  0.3793 -0.1076  0.7626
 5890TIP3    H239162   2.117   2.551   1.623  1.9278 -1.5492 -0.7519
 5891TIP3   OH239163   1.514   0.926  14.483 -1.0201 -1.4412 -0.2635
 5891TIP3    H139164   1.544   1.001  14.432  1.2449 -0.8521  1.7138
 5891TIP3    H239165   1.460   0.965  14.552 -0.0384 -1.6046  0.6257
 5892TIP3   OH239166   1.402   4.450  10.466  0.4152  0.1609 -0.3727
 5892TIP3    H139167   1.467   4.391  10.428 -1.3692 -0.6920 -2.2982
 5892TIP3    H239168   1.362   4.494  10.390 -0.1458  1.8841  0.8533
 5893TIP3   OH239169   5.802   1.578   5.269  0.5303 -0.0539  0.1138
 5893TIP3    H139170   5.778   1.671   5.269  0.9648  0.0632 -0.4392
 5893TIP3    H239171   5.729   1.535   5.314  0.8494  0.6757  1.3636
 5894TIP3   OH239172   4.022   0.612  15.502 -0.2786 -0.7682 -0.5202
 5894TIP3    H139173   4.098   0.557  15.483  1.4359  1.0889  0.4274
 5894TIP3    H239174   4.036   0.690  15.448 -1.6017 -0.4373 -0.4097
 5895TIP3   OH239175   3.668   6.122   2.526  0.0759  0.2889 -0.2468
 5895TIP3    H139176   3.613   6.101   2.450 -2.3597 -0.6760  1.6268
 5895TIP3    H239177   3.757   6.106   2.496 -0.7323  0.3878 -3.0153
 5896TIP3   OH239178   0.672   4.094   0.035 -0.1629  0.2151  0.3775
 5896TIP3    H139179   0.730   4.116   0.108 -0.5410 -2.1418  1.4638
 5896TIP3    H239180   0.700   4.007   0.007  0.1349  1.1283 -2.5256
 5897TIP3   OH239181   1.911   1.758  15.454  0.2296  0.0328  0.0693
 5897TIP3    H139182   1.902   1.682  15.396 -0.8658  0.8021 -0.8069
 5897TIP3    H239183   1.824   1.767  15.493  0.0135  1.5223 -0.7132
 5898TIP3   OH239184   3.892   2.826   4.715  0.2233  0.5958 -0.9043
 5898TIP3    H139185   3.883   2.899   4.654 -3.9476  0.8448 -0.2383
 5898TIP3    H239186   3.819   2.835   4.775  2.2381 -1.5555  2.1644
 5899TIP3   OH239187   1.603   3.005   5.923 -0.1028 -0.4177  0.0707
 5899TIP3    H139188   1.592   2.935   5.988 -0.5515 -0.1545  0.2841
 5899TIP3    H239189   1.519   3.051   5.924 -0.8074 -1.5120 -2.0059
 5900TIP3   OH239190   2.141   5.634   2.003 -0.1405  0.1009 -0.5768
 5900TIP3    H139191   2.071   5.698   2.017  1.6113  1.8603  0.6973
 5900TIP3    H239192   2.096   5.550   1.997 -2.3410  1.1273  0.4036
 5901TIP3   OH239193   2.372   4.215  15.949 -0.3981  0.3560  0.7895
 5901TIP3    H139194   2.363   4.121  15.933 -0.5440  0.6143 -0.7725
 5901TIP3    H239195   2.465   4.233  15.935 -0.6673  0.7246 -0.6714
 5902TIP3   OH239196   3.462   5.693  11.581  0.0146  1.0626  0.1628
 5902TIP3    H139197   3.389   5.651  11.536 -0.3707  0.5358  1.2265
 5902TIP3    H239198   3.433   5.784  11.594  0.2024  1.2644 -0.7704
 5903TIP3   OH239199   4.725   2.903  12.908 -0.4083 -0.0410 -0.0281
 5903TIP3    H139200   4.663   2.959  12.954  0.1408  1.6233 -1.2273
 5903TIP3    H239201   4.671   2.843  12.856 -1.0141 -1.3518  2.0003
 5904TIP3   OH239202   0.680   0.348  14.452 -0.1634 -0.2119  0.3258
 5904TIP3    H139203   0.732   0.409  14.400  0.6693 -0.5340  0.7588
 5904TIP3    H239204   0.715   0.262  14.430 -0.9330 -0.4983  0.1651
 5905TIP3   OH239205   5.946   4.695  15.696  0.1921  0.1660  0.4203
 5905TIP3    H139206   5.937   4.718  15.788 -0.0936 -0.8816  0.6687
 5905TIP3    H239207   5.918   4.604  15.691 -0.2842  0.3538 -0.7879
 5906TIP3   OH239208   1.516   1.136  17.098 -0.3777  0.2941  0.0759
 5906TIP3    H139209   1.532   1.177  17.013  0.7482  2.3291  1.1791
 5906TIP3    H239210   1.533   1.206  17.162 -2.6663 -0.7297  1.9366
 5907TIP3   OH239211   3.897   5.759  15.433  0.3133 -0.0334  0.1810
 5907TIP3    H139212   3.852   5.756  15.518  0.5445 -0.6617  0.2887
 5907TIP3    H239213   3.874   5.676  15.391 -0.2289  0.5053 -0.5990
 5908TIP3   OH239214   6.384   0.734  13.906 -0.5359 -0.4241 -0.0688
 5908TIP3    H139215   6.460   0.783  13.875 -0.5835 -0.9742 -1.0978
 5908TIP3    H239216   6.326   0.730  13.830 -2.9168  2.3902  1.3913
 5909TIP3   OH239217   5.532   1.190  16.086 -0.0192 -0.1432  0.8398
 5909TIP3    H139218   5.453   1.195  16.031 -0.3662 -0.2051  1.3277
 5909TIP3    H239219   5.604   1.203  16.024 -0.2939 -2.0346  0.0426
 5910TIP3   OH239220   3.016   2.478  16.319  0.2806 -0.3047  0.7690
 5910TIP3    H139221   3.108   2.460  16.337  0.0309 -1.9925  0.5258
 5910TIP3    H239222   2.969   2.404  16.358 -0.8043 -0.5248 -0.8509
 5911TIP3   OH239223   4.178   6.307  16.819 -0.1827 -0.1378  0.4224
 5911TIP3    H139224   4.263   6.348  16.801 -0.4916  0.2074 -0.2819
 5911TIP3    H239225   4.118   6.380  16.828 -0.1000 -0.2957  2.7133
 5912TIP3   OH239226   6.217   1.146  14.843 -0.2617 -0.1707 -0.4494
 5912TIP3    H139227   6.203   1.240  14.856 -0.7299 -0.3474  0.4415
 5912TIP3    H239228   6.143   1.104  14.888  1.4865 -1.0577  1.8772
 5913TIP3   OH239229   6.447   1.303   4.408  0.2897 -0.6115 -0.0618
 5913TIP3    H139230   6.512   1.234   4.395 -0.8927 -1.8744  0.5165
 5913TIP3    H239231   6.433   1.340   4.320  1.5983 -0.4537 -0.2302
 5914TIP3   OH239232   2.708   2.579  16.928 -0.0856 -0.2878 -0.2919
 5914TIP3    H139233   2.747   2.607  17.011  0.4731 -0.0864 -0.6163
 5914TIP3    H239234   2.728   2.486  16.923 -0.5279 -0.4013  0.0188
 5915TIP3   OH239235   2.063   5.385  13.832 -0.1473 -0.0882  0.0496
 5915TIP3    H139236   2.074   5.464  13.780  1.8253 -0.8698 -0.8048
 5915TIP3    H239237   2.093   5.409  13.919 -1.1911  0.5496  0.2577
 5916TIP3   OH239238   1.385   0.638  10.551  0.4057  0.3956  0.3222
 5916TIP3    H139239   1.299   0.651  10.512  1.1524  0.2590 -1.4646
 5916TIP3    H239240   1.394   0.543  10.558  1.4245  0.2396 -2.0589
 5917TIP3   OH239241   1.407   1.368   5.890  0.4261 -0.7023 -0.7147
 5917TIP3    H139242   1.373   1.279   5.881 -0.5058 -0.2892 -1.3768
 5917TIP3    H239243   1.499   1.356   5.913  0.5106 -1.8421 -1.5727
 5918TIP3   OH239244   0.821   5.587  13.119 -0.2489  0.4293 -0.6980
 5918TIP3    H139245   0.763   5.519  13.155  1.6746 -0.9482 -0.0634
 5918TIP3    H239246   0.869   5.543  13.049  0.8952  1.1603 -0.3951
 5919TIP3   OH239247   4.884   0.342   0.250  0.3388 -0.3324  0.2245
 5919TIP3    H139248   4.837   0.425   0.254 -1.9405 -1.5215  0.1105
 5919TIP3    H239249   4.970   0.364   0.216 -0.8939  1.7065 -1.8368
 5920TIP3   OH239250   5.036   2.466   5.765 -0.4669  0.5652  0.5318
 5920TIP3    H139251   4.985   2.530   5.716 -0.5813 -0.1163 -0.2583
 5920TIP3    H239252   5.024   2.384   5.717 -2.3032 -0.6427  2.8148
 5921TIP3   OH239253   0.537   5.925   4.245 -0.8385  0.2458  0.2509
 5921TIP3    H139254   0.509   5.916   4.336 -1.6835 -1.2056 -0.1199
 5921TIP3    H239255   0.480   5.993   4.209 -2.8640 -1.4990 -0.0386
 5922TIP3   OH239256   3.719   0.173   4.065 -0.2070  0.2040 -0.3429
 5922TIP3    H139257   3.709   0.232   4.140 -0.0276  0.3105 -0.4023
 5922TIP3    H239258   3.676   0.217   3.993 -2.4339 -0.9229  0.2149
 5923TIP3   OH239259   4.087   1.047   4.341 -0.7121  0.5628 -0.0580
 5923TIP3    H139260   4.107   1.091   4.259 -2.4357 -0.8828 -1.3323
 5923TIP3    H239261   4.154   0.978   4.348 -0.7875  0.4467 -0.4565
 5924TIP3   OH239262   1.313   2.656  14.349  0.3208  0.0757  0.0367
 5924TIP3    H139263   1.229   2.611  14.347  0.7953 -0.8468  0.4248
 5924TIP3    H239264   1.294   2.744  14.315 -0.4960 -0.5894 -1.2801
 5925TIP3   OH239265   1.227   1.188   1.427  0.0280 -0.3758  0.0702
 5925TIP3    H139266   1.312   1.226   1.404  0.0106 -0.8241 -0.7500
 5925TIP3    H239267   1.243   1.143   1.510  0.5728 -0.3849 -0.0339
 5926TIP3   OH239268   0.377   0.927  14.272  0.4385 -0.2826  0.2365
 5926TIP3    H139269   0.466   0.962  14.269  0.1100  0.5983  0.4853
 5926TIP3    H239270   0.362   0.908  14.365  0.9942 -2.1627  0.0013
 5927TIP3   OH239271   1.509   4.418   0.799  0.0514 -0.0669 -0.0368
 5927TIP3    H139272   1.453   4.496   0.804 -0.1584 -0.2698  1.2186
 5927TIP3    H239273   1.447   4.345   0.796  0.2507 -0.2123 -0.8411
 5928TIP3   OH239274   1.619   6.337  12.596  0.9724  0.3997 -0.3328
 5928TIP3    H139275   1.530   6.363  12.573 -0.1132 -0.1719  2.7286
 5928TIP3    H239276   1.672   6.362  12.520 -1.8102  0.4432 -2.4254
 5929TIP3   OH239277   3.901   5.978  11.102  0.5523 -0.0178 -0.0450
 5929TIP3    H139278   3.942   5.896  11.076 -1.4561 -1.0996  0.0070
 5929TIP3    H239279   3.927   6.040  11.033 -0.8320 -1.6384 -2.1618
 5930TIP3   OH239280   0.410   0.131  12.808 -0.2681 -0.3884 -0.3017
 5930TIP3    H139281   0.366   0.046  12.817 -0.9954 -0.0140 -0.2626
 5930TIP3    H239282   0.492   0.110  12.764 -1.3380 -0.8583 -2.1648
 5931TIP3   OH239283   2.081   3.206  17.463  0.2743  0.1412 -0.2719
 5931TIP3    H139284   2.104   3.193  17.555 -0.0259  0.0539 -0.2058
 5931TIP3    H239285   2.128   3.138  17.416  0.7098  0.4104 -0.2244
 5932TIP3   OH239286   2.227   3.554   1.327  0.3625  0.1523 -0.2299
 5932TIP3    H139287   2.248   3.513   1.242  0.5237  0.5915 -0.4056
 5932TIP3    H239288   2.185   3.637   1.304 -2.1085 -0.9272  0.1207
 5933TIP3   OH239289   3.955   6.004  13.014 -0.1229  0.4863  0.1598
 5933TIP3    H139290   3.970   6.072  12.948 -1.7650  0.5922 -0.1432
 5933TIP3    H239291   4.043   5.975  13.039  0.5856 -0.2474 -2.7942
 5934TIP3   OH239292   5.065   3.171   1.214 -0.2252  0.0654  0.1835
 5934TIP3    H139293   5.155   3.180   1.243  0.4289  1.2943 -1.9319
 5934TIP3    H239294   5.063   3.089   1.165  0.5297  1.2583 -2.0092
 5935TIP3   OH239295   1.245   6.009   3.365  0.3977 -0.0988  0.3252
 5935TIP3    H139296   1.247   5.931   3.309  2.5590 -0.3241  0.6571
 5935TIP3    H239297   1.255   5.975   3.454 -0.7101  0.4439  0.6802
 5936TIP3   OH239298   3.692   4.641   3.633  0.6479 -0.5040 -0.0073
 5936TIP3    H139299   3.737   4.725   3.635 -1.1160  0.4876  1.8129
 5936TIP3    H239300   3.750   4.581   3.679  1.8777 -0.3021 -1.2328
 5937TIP3   OH239301   6.238   4.907   2.903 -0.5699  0.0200  0.1287
 5937TIP3    H139302   6.228   4.989   2.856  0.0590 -0.4130 -0.7804
 5937TIP3    H239303   6.290   4.930   2.980 -0.0973  0.4172 -0.2992
 5938TIP3   OH239304   6.230   2.636  13.202 -0.6024 -0.0871  0.1823
 5938TIP3    H139305   6.205   2.622  13.111  1.5170 -1.0868 -0.3245
 5938TIP3    H239306   6.267   2.552  13.230  0.5809  0.7564  1.3047
 5939TIP3   OH239307   0.627   0.650  13.853 -0.0715  0.4474  0.1649
 5939TIP3    H139308   0.638   0.711  13.780 -0.4727  0.3877  0.0533
 5939TIP3    H239309   0.652   0.701  13.930 -1.4541  1.1168  0.2044
 5940TIP3   OH239310   3.110   3.883  13.570  0.0552  0.2544  0.8311
 5940TIP3    H139311   3.052   3.811  13.596 -0.7736  0.3695 -0.6138
 5940TIP3    H239312   3.178   3.840  13.518  0.2942  0.3637  1.0478
 5941TIP3   OH239313   6.088   1.158   5.340  0.1033  0.2197  0.5579
 5941TIP3    H139314   6.159   1.143   5.278 -2.2505 -1.0765 -2.0977
 5941TIP3    H239315   6.060   1.070   5.365 -2.9232  0.4002 -1.5879
 5942TIP3   OH239316   0.027   5.309   3.273 -0.0429 -0.1405 -0.1135
 5942TIP3    H139317  -0.002   5.396   3.243 -0.6131 -0.5156 -0.6886
 5942TIP3    H239318   0.117   5.322   3.301 -0.2854  0.7505  0.2962
 5943TIP3   OH239319   0.907   6.566  12.060  0.0984 -0.3275 -0.0509
 5943TIP3    H139320   0.962   6.625  12.111  0.5631 -0.5705 -0.2654
 5943TIP3    H239321   0.931   6.478  12.090  1.4182 -0.5643 -1.6747
 5944TIP3   OH239322   3.706   2.504  14.365  0.2663 -0.4710  0.1572
 5944TIP3    H139323   3.670   2.572  14.421  0.4719  0.3311 -0.6576
 5944TIP3    H239324   3.798   2.497  14.391  0.1950 -0.5828  0.3789
 5945TIP3   OH239325   0.680   0.220  13.502 -0.5764  0.2516 -0.4595
 5945TIP3    H139326   0.678   0.303  13.550 -2.0773 -0.6986  1.2686
 5945TIP3    H239327   0.647   0.156  13.565  0.0547 -1.5791 -1.9148
 5946TIP3   OH239328   3.803   5.145  16.046  0.4847  0.3487 -0.1144
 5946TIP3    H139329   3.837   5.185  16.126  1.7318  0.5265 -0.7049
 5946TIP3    H239330   3.719   5.107  16.072  1.5646 -0.9842  1.7038
 5947TIP3   OH239331   1.392   2.826   3.565 -0.3368  0.5420  0.1901
 5947TIP3    H139332   1.370   2.868   3.648 -1.2812  2.8545 -1.1537
 5947TIP3    H239333   1.308   2.809   3.524  0.0897  3.0748 -1.9655
 5948TIP3   OH239334   2.058   6.399   0.442 -0.4858  0.5238 -0.4325
 5948TIP3    H139335   2.031   6.417   0.352 -1.3221  0.1221 -0.2718
 5948TIP3    H239336   2.126   6.464   0.461 -1.1393  1.3700 -0.9505
 5949TIP3   OH239337   6.384   3.838  17.040  0.4326 -0.1282  0.1603
 5949TIP3    H139338   6.436   3.860  16.963 -0.0708  0.6226  0.0297
 5949TIP3    H239339   6.296   3.822  17.006  0.2470  0.0379  0.5557
 5950TIP3   OH239340   2.635   0.977  15.501 -0.4159 -0.1848  0.1890
 5950TIP3    H139341   2.601   1.058  15.538 -0.4599  0.1703 -0.6151
 5950TIP3    H239342   2.561   0.939  15.453 -0.8576 -1.4825  1.7832
 5951TIP3   OH239343   4.541   5.197   4.792 -0.5369  0.0836  0.6226
 5951TIP3    H139344   4.458   5.150   4.796  0.5113 -2.1271 -1.0912
 5951TIP3    H239345   4.521   5.277   4.744 -1.4606 -1.1345 -1.1420
 5952TIP3   OH239346   1.346   2.539   1.763 -0.0752 -0.9601 -0.3742
 5952TIP3    H139347   1.308   2.521   1.849 -0.4743 -0.4633 -0.4407
 5952TIP3    H239348   1.290   2.492   1.701 -0.3917 -0.5044 -0.4426
 5953TIP3   OH239349   4.678   5.794   0.834  0.7163 -0.4348 -0.3929
 5953TIP3    H139350   4.708   5.794   0.925  0.6188 -1.4391 -0.3509
 5953TIP3    H239351   4.612   5.725   0.830 -0.4493  0.6790 -0.8641
 5954TIP3   OH239352   3.186   0.718  14.483  0.0496 -0.5243  0.3778
 5954TIP3    H139353   3.185   0.735  14.389  1.2756  2.9525  0.8594
 5954TIP3    H239354   3.094   0.708  14.507 -0.4921  1.0315 -0.8638
 5955TIP3   OH239355   2.486   6.279   6.002 -0.3106  0.3083  0.3145
 5955TIP3    H139356   2.423   6.310   6.067 -0.9483  0.1410 -0.2158
 5955TIP3    H239357   2.550   6.229   6.052 -0.5745  0.5125  0.8616
 5956TIP3   OH239358   2.859   5.460  15.513  0.4643 -0.2149 -0.4609
 5956TIP3    H139359   2.847   5.408  15.592 -1.4617  0.3294 -0.3469
 5956TIP3    H239360   2.916   5.532  15.540 -0.5578  0.2378  0.6065
 5957TIP3   OH239361   0.159   4.852   1.212 -0.3506  0.3673 -0.4492
 5957TIP3    H139362   0.233   4.912   1.206 -0.2900  0.4276  0.6216
 5957TIP3    H239363   0.121   4.871   1.298 -0.2025 -1.2728 -0.0047
 5958TIP3   OH239364   3.766   2.500   3.912  0.0228 -0.0329  0.0354
 5958TIP3    H139365   3.818   2.499   3.832 -2.3602 -1.1716 -1.6235
 5958TIP3    H239366   3.682   2.537   3.886 -0.8270 -0.4264  2.0302
 5959TIP3   OH239367   2.075   4.129   4.629  0.6847  0.2907  0.5152
 5959TIP3    H139368   2.112   4.042   4.644  0.6320  0.3392  0.9270
 5959TIP3    H239369   1.981   4.118   4.647  0.5751  0.2917 -0.0188
 5960TIP3   OH239370   2.802   1.149  11.678 -0.1662 -0.2909 -0.4305
 5960TIP3    H139371   2.788   1.096  11.599 -3.8790  0.4930 -0.4876
 5960TIP3    H239372   2.834   1.233  11.645  1.1584 -0.8992 -0.7661
 5961TIP3   OH239373   5.785   1.885   5.265 -0.3436 -0.1538 -0.7820
 5961TIP3    H139374   5.875   1.858   5.284 -0.9863 -0.7142  1.7707
 5961TIP3    H239375   5.792   1.979   5.248  0.6458 -0.0566  0.0444
 5962TIP3   OH239376   2.300   0.419   4.714  0.0774  0.2066 -0.4523
 5962TIP3    H139377   2.373   0.458   4.762 -0.0495  0.8457 -0.7561
 5962TIP3    H239378   2.311   0.325   4.724  0.4736  0.3161  0.1991
 5963TIP3   OH239379   3.672   2.815   1.799 -0.4838 -0.0068  0.3381
 5963TIP3    H139380   3.739   2.776   1.854 -1.0508  0.7910  1.6444
 5963TIP3    H239381   3.646   2.746   1.739  0.9026 -0.5758  0.3582
 5964TIP3   OH239382   0.846   3.311   1.623  0.5140 -0.2627 -0.3187
 5964TIP3    H139383   0.866   3.321   1.530  0.8543  0.1159 -0.2047
 5964TIP3    H239384   0.786   3.236   1.626  0.9120 -0.6087 -0.7876
 5965TIP3   OH239385   1.069   3.360  13.648  0.0454  0.6914 -0.3356
 5965TIP3    H139386   0.999   3.382  13.587  0.3266  0.9764 -0.5541
 5965TIP3    H239387   1.111   3.283  13.609 -2.5323 -1.9664  1.6588
 5966TIP3   OH239388   3.246   1.259   4.123  0.3471  0.1417  0.4339
 5966TIP3    H139389   3.227   1.320   4.194  1.1712 -0.2084  0.9754
 5966TIP3    H239390   3.341   1.260   4.115  0.2570  0.2714 -0.7666
 5967TIP3   OH239391   0.974   2.177   2.075 -0.0396 -0.3695  0.1004
 5967TIP3    H139392   1.044   2.139   2.129  0.5194  0.5919  0.0817
 5967TIP3    H239393   0.901   2.116   2.084  1.0320 -1.7949 -0.4656
 5968TIP3   OH239394   0.157   4.428   5.900 -0.0421 -0.3102 -0.2674
 5968TIP3    H139395   0.247   4.460   5.910 -1.0059  2.8479 -0.6012
 5968TIP3    H239396   0.154   4.349   5.954  2.2029  1.0562  2.1068
 5969TIP3   OH239397   6.291   2.053   4.922 -0.1496 -0.8164 -0.2268
 5969TIP3    H139398   6.225   2.101   4.972 -0.6132 -2.3610  0.7159
 5969TIP3    H239399   6.290   1.965   4.959  2.5386 -0.8753 -0.1114
 5970TIP3   OH239400   2.706   6.011  11.088  0.3504  0.0368  0.3051
 5970TIP3    H139401   2.652   6.035  11.013 -1.0560 -0.5908  1.0932
 5970TIP3    H239402   2.740   5.925  11.066  0.2440  0.0151  0.2247
 5971TIP3   OH239403   4.264   5.762  12.244  0.6049 -0.4095  0.0943
 5971TIP3    H139404   4.342   5.730  12.289  0.7999  2.7855  2.4248
 5971TIP3    H239405   4.192   5.739  12.302  0.3473  0.2601  0.0460
 5972TIP3   OH239406   2.758   1.666  12.308  0.5272  0.0624 -0.3131
 5972TIP3    H139407   2.794   1.592  12.357  0.2429  0.8122  1.0792
 5972TIP3    H239408   2.728   1.627  12.226 -1.6309 -1.8266  1.2250
 5973TIP3   OH239409   0.271   0.257  14.759  0.2795  0.1284  0.1248
 5973TIP3    H139410   0.282   0.189  14.825 -2.1578  0.2160  0.7478
 5973TIP3    H239411   0.347   0.314  14.770  1.4194 -1.4561  0.8451
 5974TIP3   OH239412   4.555   2.229   3.702 -0.5035 -0.2067  0.0143
 5974TIP3    H139413   4.532   2.184   3.621  1.4640 -0.6668 -0.3259
 5974TIP3    H239414   4.571   2.320   3.676 -0.9173 -0.1041  0.0966
 5975TIP3   OH239415   5.499   1.785  11.925 -0.6588  0.0376 -0.4017
 5975TIP3    H139416   5.513   1.879  11.933 -1.9345  0.1318  1.2906
 5975TIP3    H239417   5.423   1.777  11.867 -0.4408  0.0281 -0.6896
 5976TIP3   OH239418   3.234   1.054   1.454 -0.4407  0.1260  0.2280
 5976TIP3    H139419   3.326   1.074   1.474 -0.1558 -1.6816  0.9463
 5976TIP3    H239420   3.209   0.992   1.522 -1.5645 -1.0191 -1.1861
 5977TIP3   OH239421   3.685   6.000   2.767 -0.0180 -0.5654 -0.6577
 5977TIP3    H139422   3.676   6.044   2.682 -0.3686 -1.0424 -0.8712
 5977TIP3    H239423   3.766   5.950   2.759  0.8457  0.6926 -0.1099
 5978TIP3   OH239424   0.461   4.293   5.703 -1.1303  0.0762 -0.2106
 5978TIP3    H139425   0.478   4.364   5.765 -1.3808  0.0064 -0.0590
 5978TIP3    H239426   0.508   4.318   5.624  2.7387 -1.7240  1.2332
 5979TIP3   OH239427   4.742   4.789   1.795 -0.7908  0.2750 -0.2294
 5979TIP3    H139428   4.690   4.764   1.871 -1.2032  2.4001  0.2342
 5979TIP3    H239429   4.706   4.735   1.724  1.2973 -3.7202  1.4121
 5980TIP3   OH239430   4.568   5.560   3.861  0.0647 -0.0172  0.2028
 5980TIP3    H139431   4.632   5.501   3.821 -0.7766 -0.8936  0.1141
 5980TIP3    H239432   4.496   5.503   3.888 -2.3414  1.2494 -2.9016
 5981TIP3   OH239433   1.508   4.301   6.277 -0.3139 -0.1580 -0.3664
 5981TIP3    H139434   1.422   4.336   6.255 -1.5353 -0.9971  2.5577
 5981TIP3    H239435   1.537   4.355   6.351  0.2990 -1.7338  0.5875
 5982TIP3   OH239436   6.030   6.420  16.918 -0.0554  0.1343  0.1507
 5982TIP3    H139437   5.953   6.466  16.950 -1.2879 -0.2574 -2.0444
 5982TIP3    H239438   6.059   6.367  16.992 -2.9431 -0.9940  0.6220
 5983TIP3   OH239439   1.433   0.593  10.834 -0.3532 -0.3582  0.3399
 5983TIP3    H139440   1.449   0.687  10.827 -1.3829 -0.1492  0.7094
 5983TIP3    H239441   1.386   0.571  10.754  2.3026 -1.1323 -1.1501
 5984TIP3   OH239442   2.511   4.980  11.409 -0.2611  0.1360 -0.5830
 5984TIP3    H139443   2.437   4.990  11.470  1.2153 -0.8081  1.4781
 5984TIP3    H239444   2.536   5.070  11.389 -1.6504  0.4729 -0.9473
 5985TIP3   OH239445   2.478   4.684  15.543  0.4926  0.8894  0.0495
 5985TIP3    H139446   2.384   4.667  15.531  1.0280 -0.4764 -3.4031
 5985TIP3    H239447   2.494   4.765  15.496  0.9248  1.7906  1.6589
 5986TIP3   OH239448   5.986   0.278   2.289  0.1413 -0.2248  0.3089
 5986TIP3    H139449   5.998   0.210   2.223  0.7061  0.5648 -0.4301
 5986TIP3    H239450   5.915   0.246   2.344  0.0472 -1.1665 -0.3340
 5987TIP3   OH239451   2.094   2.011  12.903  0.5796  0.0119  0.1723
 5987TIP3    H139452   2.102   2.105  12.918 -1.3333  0.1993  0.2082
 5987TIP3    H239453   2.166   1.990  12.843 -0.7979  2.1039 -2.3827
 5988TIP3   OH239454   1.270   0.157  13.429  0.1225 -0.1231  0.3661
 5988TIP3    H139455   1.182   0.140  13.462 -0.3399  1.2546 -0.0791
 5988TIP3    H239456   1.290   0.081  13.374 -0.7523 -0.4888  0.5409
 5989TIP3   OH239457   2.221   1.881   4.944  0.1064  0.0041  0.1028
 5989TIP3    H139458   2.295   1.925   4.987  1.0937  1.7843 -3.0048
 5989TIP3    H239459   2.255   1.794   4.921  0.2335 -0.2219  1.1010
 5990TIP3   OH239460   4.040   3.900  11.444 -0.5028  0.1145  0.1674
 5990TIP3    H139461   4.009   3.860  11.363  1.2939  2.0089 -1.5795
 5990TIP3    H239462   4.118   3.850  11.468  1.7709  2.3304 -2.0423
 5991TIP3   OH239463   3.500   1.478   4.109 -0.3445 -0.0517  0.2594
 5991TIP3    H139464   3.588   1.442   4.122 -1.4784 -3.2372 -0.1133
 5991TIP3    H239465   3.472   1.504   4.197  0.9323  1.1358  0.3670
 5992TIP3   OH239466   6.380   6.335   2.098  0.3874  0.4283  0.0704
 5992TIP3    H139467   6.439   6.321   2.172 -0.1075 -0.6313  0.2769
 5992TIP3    H239468   6.427   6.300   2.022  0.4462  0.5282  0.0603
 5993TIP3   OH239469   1.302   0.087  11.336 -0.2006 -0.5744 -0.0290
 5993TIP3    H139470   1.274   0.114  11.248 -1.9866  3.3467  1.4719
 5993TIP3    H239471   1.256   0.004  11.351 -2.4535  0.2472 -1.7158
 5994TIP3   OH239472   6.052   2.603   3.143 -0.2434  0.1376  0.7619
 5994TIP3    H139473   6.068   2.560   3.227 -0.8272 -1.7968 -0.0591
 5994TIP3    H239474   5.995   2.543   3.096 -2.7201  2.7029  0.2123
 5995TIP3   OH239475   4.240   4.611   2.586  0.2055  0.3807 -0.0137
 5995TIP3    H139476   4.293   4.683   2.551  0.1719  0.7765  0.7309
 5995TIP3    H239477   4.209   4.644   2.671  0.4137 -0.6239  0.4608
 5996TIP3   OH239478   5.374   1.400  13.118  0.1730 -0.2889 -0.3579
 5996TIP3    H139479   5.449   1.385  13.176  1.3140  0.1345 -1.6586
 5996TIP3    H239480   5.351   1.314  13.085 -0.6018 -0.5569  0.8373
 5997TIP3   OH239481   1.239   0.867   5.163 -0.5385  0.1158  0.1243
 5997TIP3    H139482   1.187   0.913   5.097 -1.3286 -1.2688 -0.2436
 5997TIP3    H239483   1.184   0.868   5.242 -0.2816  0.3542  0.3023
 5998TIP3   OH239484   4.053   5.150  13.754 -0.1061  0.2873 -0.0496
 5998TIP3    H139485   4.118   5.128  13.686 -0.4849 -2.0466  0.2457
 5998TIP3    H239486   4.105   5.177  13.829  0.4029  0.8288 -0.5832
 5999TIP3   OH239487   4.539   3.397   3.581  0.1737 -0.4315 -0.0792
 5999TIP3    H139488   4.607   3.438   3.528  1.2973 -0.1921  1.4987
 5999TIP3    H239489   4.568   3.409   3.671 -1.1501 -1.7770  0.5619
 6000TIP3   OH239490   4.141   2.480  16.707  0.9071  0.3934  0.7652
 6000TIP3    H139491   4.103   2.556  16.751 -0.3561 -0.5732  1.3953
 6000TIP3    H239492   4.196   2.438  16.774  0.0987 -0.2929  1.0102
 6001TIP3   OH239493   2.819   2.596   0.955 -0.1755 -0.3351 -0.1131
 6001TIP3    H139494   2.784   2.645   0.880 -0.2353 -1.4346 -0.8339
 6001TIP3    H239495   2.891   2.546   0.918  0.2387 -0.3683  0.7298
 6002TIP3   OH239496   0.362   5.473   3.079  0.0409  0.2284  0.2925
 6002TIP3    H139497   0.407   5.444   2.999  1.7251  0.1728  1.2046
 6002TIP3    H239498   0.272   5.488   3.051  0.0999 -1.6870 -1.1752
 6003TIP3   OH239499   3.403   2.398   6.656 -0.1215 -0.0770 -0.2086
 6003TIP3    H139500   3.360   2.396   6.742  1.3311  0.2125  0.5612
 6003TIP3    H239501   3.391   2.487   6.625 -2.2043 -0.6334 -1.1774
 6004TIP3   OH239502   0.494   4.895   5.734  0.2074  0.1552 -0.1828
 6004TIP3    H139503   0.446   4.976   5.752  0.5686 -0.1799  2.6447
 6004TIP3    H239504   0.586   4.922   5.737  0.3067 -0.0833 -0.8972
 6005TIP3   OH239505   3.524   4.559   0.751 -0.2443 -0.1383 -0.8122
 6005TIP3    H139506   3.560   4.544   0.663  2.0900 -0.4548  0.1278
 6005TIP3    H239507   3.592   4.609   0.796 -0.9002 -0.9292  1.1396
 6006TIP3   OH239508   1.244   1.093  14.094 -0.5172 -0.0501 -0.3696
 6006TIP3    H139509   1.270   1.065  14.006  1.6180  1.3495 -0.2678
 6006TIP3    H239510   1.165   1.144  14.080 -1.9391 -2.3128 -1.0622
 6007TIP3   OH239511   1.786   1.682   5.099 -0.3469 -0.1186 -0.4964
 6007TIP3    H139512   1.878   1.681   5.071 -0.4853  1.3723 -1.0821
 6007TIP3    H239513   1.787   1.638   5.184  0.4262 -2.7913 -1.7480
 6008TIP3   OH239514   0.307   4.110   2.846 -0.0841  0.0204 -0.0645
 6008TIP3    H139515   0.320   4.039   2.910 -1.1659  1.7913  2.2779
 6008TIP3    H239516   0.231   4.157   2.879  0.1193  1.8013 -2.0085
 6009TIP3   OH239517   5.277   1.220   2.123  0.2216  0.7266 -0.1300
 6009TIP3    H139518   5.204   1.211   2.185 -2.1147 -0.5325 -2.8067
 6009TIP3    H239519   5.335   1.146   2.144 -2.1154 -1.5876 -1.2445
 6010TIP3   OH239520   0.062   4.123  15.632 -0.3492 -0.0418  0.5935
 6010TIP3    H139521   0.110   4.178  15.570 -1.7744  0.9480  0.3300
 6010TIP3    H239522   0.044   4.043  15.584  0.9402 -0.4150  0.6776
 6011TIP3   OH239523   6.020   6.115  16.252 -0.5760  0.3175  0.4077
 6011TIP3    H139524   6.113   6.139  16.258  0.0144 -1.3882 -1.0700
 6011TIP3    H239525   6.005   6.059  16.328 -0.8105  1.6930  1.4213
 6012TIP3   OH239526   2.479   0.857   5.699  0.0852  0.3060  0.0846
 6012TIP3    H139527   2.523   0.941   5.708  1.4377 -0.1327 -2.0080
 6012TIP3    H239528   2.386   0.879   5.693  0.3089  1.5246  0.8312
 6013TIP3   OH239529   1.039   2.203   6.686  0.0331  0.3462 -0.2113
 6013TIP3    H139530   1.110   2.263   6.707  1.5800 -1.0609 -1.1675
 6013TIP3    H239531   1.081   2.133   6.636 -2.0049 -0.6410 -0.6397
 6014TIP3   OH239532   6.445   3.391   5.218 -0.2788  0.3233  0.1314
 6014TIP3    H139533   6.514   3.386   5.284 -1.3421 -0.1912  1.2467
 6014TIP3    H239534   6.373   3.435   5.262 -1.3288 -0.8253 -0.3861
 6015TIP3   OH239535   0.132   4.218   5.026 -0.5933 -0.3048 -0.1500
 6015TIP3    H139536   0.183   4.299   5.036 -1.2822  0.1479 -0.2078
 6015TIP3    H239537   0.162   4.182   4.943  0.4837 -0.6754  0.3826
 6016TIP3   OH239538   4.259   3.487  14.234 -0.4508 -0.8535  0.7143
 6016TIP3    H139539   4.298   3.533  14.160 -1.9638 -2.0451 -0.9260
 6016TIP3    H239540   4.325   3.491  14.303  2.4509 -2.4411 -1.7530
 6017TIP3   OH239541   3.073   5.364   1.223 -0.2545 -0.0382 -0.0017
 6017TIP3    H139542   3.000   5.303   1.219 -1.7052  1.4248  1.8272
 6017TIP3    H239543   3.039   5.444   1.182  0.8022  0.2543 -0.3373
 6018TIP3   OH239544   2.659   5.317   0.659 -0.7116 -0.2371  0.2493
 6018TIP3    H139545   2.582   5.364   0.626 -0.5753  0.1333  0.4589
 6018TIP3    H239546   2.734   5.370   0.630 -0.5468 -0.4457  0.2918
 6019TIP3   OH239547   3.745   0.104  12.241 -0.0832 -0.4089  0.2128
 6019TIP3    H139548   3.756   0.181  12.185  0.0823 -0.0758  0.7009
 6019TIP3    H239549   3.680   0.131  12.306  1.1273 -0.1367  1.3452
 6020TIP3   OH239550   0.935   3.125   5.132  0.0453  0.1230  0.6161
 6020TIP3    H139551   0.910   3.161   5.217  0.9910 -1.5245  1.6576
 6020TIP3    H239552   1.023   3.089   5.146 -0.0297 -0.7555 -0.8717
 6021TIP3   OH239553   4.826   4.268   4.081  0.1930 -0.5931 -0.1651
 6021TIP3    H139554   4.822   4.358   4.114  0.0045 -0.5365 -0.3420
 6021TIP3    H239555   4.856   4.217   4.156  1.3927 -0.2234 -0.3561
 6022TIP3   OH239556   5.128   2.163  12.544 -0.1780 -0.0823  0.0066
 6022TIP3    H139557   5.088   2.077  12.525  0.5082 -0.3409 -0.3114
 6022TIP3    H239558   5.062   2.226  12.518 -1.5617 -0.5116  2.2110
 6023TIP3   OH239559   5.693   4.244   6.613  0.1261 -0.0515  0.4652
 6023TIP3    H139560   5.642   4.220   6.690 -0.0665 -0.9436  0.0669
 6023TIP3    H239561   5.696   4.339   6.615  1.4555 -0.0621  2.4581
 6024TIP3   OH239562   3.575   1.726  15.186  0.2168  0.1866  0.0313
 6024TIP3    H139563   3.657   1.726  15.137 -0.3673  2.0542 -1.0508
 6024TIP3    H239564   3.584   1.799  15.247 -0.5796  0.3399 -0.0266
 6025TIP3   OH239565   1.466   6.060   0.872  0.0660  0.2327 -0.3258
 6025TIP3    H139566   1.386   6.101   0.841 -0.4970 -0.1969  0.5202
 6025TIP3    H239567   1.536   6.115   0.837 -0.6629  2.0109  0.8365
 6026TIP3   OH239568   4.627   2.633  16.855  0.2786 -0.5742 -0.3501
 6026TIP3    H139569   4.719   2.614  16.875  0.7098  1.6709  0.0581
 6026TIP3    H239570   4.580   2.553  16.877  2.0304 -1.4809  0.2307
 6027TIP3   OH239571   0.860   5.679  10.872  0.1629 -0.3866 -0.1729
 6027TIP3    H139572   0.945   5.635  10.879  1.2448  1.5771 -0.0783
 6027TIP3    H239573   0.871   5.759  10.924 -1.9881 -0.3970  0.3781
 6028TIP3   OH239574   2.528   3.875  16.159  0.2017  0.1055  0.1472
 6028TIP3    H139575   2.506   3.782  16.154 -2.4015  0.6663 -0.3346
 6028TIP3    H239576   2.465   3.912  16.221  2.3734  1.3011  1.7895
 6029TIP3   OH239577   4.474   3.636   0.048 -0.0100 -0.2122 -0.2143
 6029TIP3    H139578   4.442   3.553   0.083 -0.9373  0.3671  0.3524
 6029TIP3    H239579   4.514   3.680   0.122  0.3148 -0.0708 -0.4720
 6030TIP3   OH239580   1.945   1.183   4.257  0.1057 -0.4974  0.3597
 6030TIP3    H139581   2.023   1.130   4.244 -0.5835 -1.2496 -0.9037
 6030TIP3    H239582   1.966   1.266   4.213  0.4913 -0.3988  0.7244
 6031TIP3   OH239583   2.164   1.461  13.390  0.1326 -0.0501  0.1580
 6031TIP3    H139584   2.101   1.393  13.413 -0.4903  0.7914  1.0597
 6031TIP3    H239585   2.244   1.414  13.366 -0.7617 -1.1288 -0.8011
 6032TIP3   OH239586   6.693   2.638  17.067  0.3159 -0.3011 -0.3825
 6032TIP3    H139587   6.718   2.598  16.984  0.0174 -0.2630 -0.4914
 6032TIP3    H239588   6.759   2.607  17.129  0.9838  0.2929 -0.7909
 6033TIP3   OH239589   3.910   3.026   1.396  0.1563  0.0982  0.1845
 6033TIP3    H139590   3.882   3.104   1.443 -0.2838  0.9780 -1.4514
 6033TIP3    H239591   3.993   3.051   1.354  0.2584 -0.4670  0.0395
 6034TIP3   OH239592   0.555   5.636   0.749  0.4194  0.1307 -0.1385
 6034TIP3    H139593   0.495   5.666   0.681  0.4235  2.4846  0.7828
 6034TIP3    H239594   0.642   5.655   0.714  0.3983  2.2356  0.8203
 6035TIP3   OH239595   5.082   1.820   4.563 -0.0763  0.1369  0.0229
 6035TIP3    H139596   5.041   1.759   4.625  0.3924 -0.5330 -0.3199
 6035TIP3    H239597   5.016   1.889   4.552 -1.7655 -1.5946 -1.5762
 6036TIP3   OH239598   0.622   5.140   3.516 -0.7222 -0.0333  0.5508
 6036TIP3    H139599   0.677   5.203   3.563  0.1804 -0.9561  0.7784
 6036TIP3    H239600   0.614   5.176   3.428 -0.5987  0.6195  0.8009
 6037TIP3   OH239601   0.436   4.079  16.014  0.1352  0.0869 -0.6021
 6037TIP3    H139602   0.453   4.133  16.091 -1.7686  0.6772 -0.5212
 6037TIP3    H239603   0.373   4.131  15.963  0.7341 -0.6564 -2.1536
 6038TIP3   OH239604   2.520   3.538   3.583 -0.2343  0.0186 -0.8823
 6038TIP3    H139605   2.538   3.467   3.522  2.5514  1.0858 -1.4552
 6038TIP3    H239606   2.564   3.511   3.664  0.3214  0.8025 -0.9182
 6039TIP3   OH239607   5.752   1.191   6.422  0.0983  0.2547  0.1617
 6039TIP3    H139608   5.742   1.114   6.478 -0.5528  0.1723 -0.0648
 6039TIP3    H239609   5.664   1.229   6.418  0.4352  1.0710  0.3568
 6040TIP3   OH239610   1.030   0.836   1.830 -0.5239 -0.7696 -0.0349
 6040TIP3    H139611   1.026   0.773   1.902 -0.1123 -1.6450 -0.7577
 6040TIP3    H239612   0.941   0.840   1.796 -0.5096 -1.0941 -0.1047
 6041TIP3   OH239613   5.734   0.501  15.481  0.4082  0.0994 -0.4547
 6041TIP3    H139614   5.670   0.553  15.529 -0.3734 -2.8951  2.0330
 6041TIP3    H239615   5.681   0.437  15.432  1.3800 -1.5631  0.5777
 6042TIP3   OH239616   4.970   1.918   5.320 -0.1187 -0.4073 -0.4383
 6042TIP3    H139617   5.060   1.900   5.347 -0.0584  1.2534  0.5680
 6042TIP3    H239618   4.979   1.976   5.245 -0.3634 -1.2994 -1.1805
 6043TIP3   OH239619   5.204   5.636  12.857 -0.2664  0.1968  0.2002
 6043TIP3    H139620   5.161   5.599  12.934 -0.8844  1.4019  0.4533
 6043TIP3    H239621   5.133   5.667  12.802  0.2114  0.1450 -0.4582
 6044TIP3   OH239622   1.046   4.753   4.105  1.7732 -0.0700 -0.2040
 6044TIP3    H139623   1.042   4.678   4.164  2.4990 -1.6363 -2.0124
 6044TIP3    H239624   0.988   4.730   4.032  1.8213  1.2388 -0.6894
 6045TIP3   OH239625   3.798   4.155   3.505 -0.0103  0.2897 -0.4200
 6045TIP3    H139626   3.718   4.197   3.537 -0.7950 -1.9629  0.8410
 6045TIP3    H239627   3.818   4.201   3.424 -2.7122  0.8389 -0.8906
 6046TIP3   OH239628   2.821   6.558  12.359 -0.6857 -0.1938 -0.2913
 6046TIP3    H139629   2.867   6.600  12.432 -0.8796 -2.8578  1.4686
 6046TIP3    H239630   2.890   6.515  12.309 -0.8353 -0.6253 -0.1238
 6047TIP3   OH239631   5.243   4.087   3.115  0.4430 -0.4260  1.0172
 6047TIP3    H139632   5.272   4.068   3.026  0.9767 -2.1225  1.5138
 6047TIP3    H239633   5.171   4.026   3.131  1.1827 -1.0272  2.1686
 6048TIP3   OH239634   6.592   2.566   5.431  0.0272  0.2275 -0.1598
 6048TIP3    H139635   6.634   2.532   5.511  0.8418 -1.3358 -1.1967
 6048TIP3    H239636   6.653   2.633   5.400  0.1621  0.2102  0.0577
 6049TIP3   OH239637   3.979   1.367   0.739  0.1302 -1.3045  0.2497
 6049TIP3    H139638   3.990   1.440   0.801 -0.1752  0.3111 -1.4986
 6049TIP3    H239639   3.887   1.374   0.712 -0.1393 -2.9021  0.6644
 6050TIP3   OH239640   1.855   2.702   4.805  0.3005  0.0301  0.5445
 6050TIP3    H139641   1.929   2.749   4.766  1.8637 -1.0523  2.0618
 6050TIP3    H239642   1.889   2.668   4.888 -1.7555 -0.9688  1.0418
 6051TIP3   OH239643   3.750   5.469   0.645 -0.2676 -0.0421  0.8420
 6051TIP3    H139644   3.825   5.523   0.668 -0.2442  1.2424 -1.8089
 6051TIP3    H239645   3.675   5.528   0.653 -0.9643 -1.1353  2.8645
 6052TIP3   OH239646   3.799   3.241  12.538 -0.3445 -0.2121 -0.3374
 6052TIP3    H139647   3.742   3.303  12.584 -1.6997 -1.6045 -0.0305
 6052TIP3    H239648   3.880   3.240  12.589 -0.3154  1.2593 -0.3359
 6053TIP3   OH239649   1.144   0.155  15.386 -0.2606  0.0553  0.0055
 6053TIP3    H139650   1.237   0.155  15.407 -0.5257  0.5033  1.2845
 6053TIP3    H239651   1.101   0.181  15.467 -1.7130 -3.1405  0.4062
 6054TIP3   OH239652   6.742   1.621   1.327 -0.2676  0.2937 -0.2344
 6054TIP3    H139653   6.770   1.552   1.387 -1.2785 -0.0405 -0.1370
 6054TIP3    H239654   6.821   1.643   1.277  0.1089 -0.7916 -0.1379
 6055TIP3   OH239655   4.991   6.042   1.673  0.0905 -0.6113  0.2068
 6055TIP3    H139656   5.003   5.984   1.598  0.9282 -0.4362  0.1951
 6055TIP3    H239657   4.951   6.121   1.636 -0.3847 -0.8924  0.1078
 6056TIP3   OH239658   3.124   5.455  11.207  0.6442  0.0869 -0.1083
 6056TIP3    H139659   3.179   5.414  11.141 -0.6801 -0.8274 -0.6912
 6056TIP3    H239660   3.063   5.509  11.158 -0.9275 -1.2781  0.2372
 6057TIP3   OH239661   5.979   0.343  15.856  0.3327 -0.2364  0.1218
 6057TIP3    H139662   6.013   0.355  15.945  1.6581  0.4879 -0.4624
 6057TIP3    H239663   6.052   0.306  15.807 -0.5379 -1.0690 -0.5782
 6058TIP3   OH239664   3.109   3.214   5.781  0.4469 -0.0161 -0.3865
 6058TIP3    H139665   3.157   3.161   5.717 -1.1487 -0.2598 -1.4446
 6058TIP3    H239666   3.026   3.233   5.738 -0.0168  1.2342  0.9885
 6059TIP3   OH239667   0.705   2.816   1.553  0.3319  0.0243 -0.7363
 6059TIP3    H139668   0.768   2.770   1.497  1.7717 -0.7548  1.4273
 6059TIP3    H239669   0.631   2.756   1.560  1.4624 -1.2859  0.6462
 6060TIP3   OH239670   5.327   0.642   2.277 -0.1413  0.2191 -0.1952
 6060TIP3    H139671   5.395   0.578   2.298  0.5993  1.1223  0.1906
 6060TIP3    H239672   5.359   0.724   2.314 -0.8601  0.9183 -1.1022
 6061TIP3   OH239673   6.369   5.074   4.442 -0.2576 -0.0508  0.2586
 6061TIP3    H139674   6.283   5.115   4.445 -0.2994 -0.1107 -0.1336
 6061TIP3    H239675   6.370   5.016   4.519  0.0006  1.0578  1.1222
 6062TIP3   OH239676   2.896   4.355   5.593  0.2745 -0.0410 -0.5965
 6062TIP3    H139677   2.880   4.445   5.621  0.2758 -0.4138  0.6744
 6062TIP3    H239678   2.809   4.315   5.589  0.4132 -0.5710  1.0062
 6063TIP3   OH239679   0.713   2.816   0.878 -0.0790 -0.4312 -0.2130
 6063TIP3    H139680   0.631   2.838   0.922 -0.1654 -0.7483 -0.2077
 6063TIP3    H239681   0.723   2.722   0.893  0.4049 -0.3489 -0.0194
 6064TIP3   OH239682   6.525   1.432  11.120 -0.6413  0.0661  0.5630
 6064TIP3    H139683   6.608   1.478  11.109 -0.6842 -0.1165 -0.6498
 6064TIP3    H239684   6.530   1.395  11.209  0.5543  0.0959  0.5276
 6065TIP3   OH239685   3.718   5.818   5.362 -0.2370  0.5997 -0.0279
 6065TIP3    H139686   3.636   5.778   5.335 -0.5543  1.6442 -0.7040
 6065TIP3    H239687   3.699   5.855   5.448 -0.1125 -0.1899  0.3422
 6066TIP3   OH239688   0.504   3.494  10.959  0.6545 -0.0494  0.2260
 6066TIP3    H139689   0.547   3.543  10.889  0.3039 -0.4027 -0.2472
 6066TIP3    H239690   0.501   3.404  10.927 -0.1597 -0.0832  0.3716
 6067TIP3   OH239691   6.343   5.226   1.596 -0.4398 -0.3728  0.1239
 6067TIP3    H139692   6.255   5.189   1.604  0.3129 -2.0803  1.1798
 6067TIP3    H239693   6.381   5.215   1.683  0.2561  1.9624  0.1825
 6068TIP3   OH239694   0.573   3.916  11.224  0.1297  0.2099 -0.1208
 6068TIP3    H139695   0.526   3.943  11.146 -0.4173  0.1639  0.1916
 6068TIP3    H239696   0.630   3.990  11.245 -2.8461  2.1428  1.9562
 6069TIP3   OH239697   5.998   3.991  15.981  0.4512  0.3462  0.3269
 6069TIP3    H139698   6.002   4.084  16.002 -0.7751  0.0807  1.9112
 6069TIP3    H239699   5.913   3.962  16.014  0.7190 -1.2897 -0.3197
 6070TIP3   OH239700   6.156   6.217   3.154  0.5507  0.0212 -0.2266
 6070TIP3    H139701   6.121   6.212   3.065  0.1186  1.6773 -0.1916
 6070TIP3    H239702   6.121   6.299   3.189 -0.2191 -1.1204  1.8840
 6071TIP3   OH239703   1.772   5.501   1.208 -0.1397  0.3566 -0.7079
 6071TIP3    H139704   1.752   5.465   1.122 -0.3964 -2.4571  0.4086
 6071TIP3    H239705   1.765   5.426   1.268  0.9492  1.9838  1.6417
 6072TIP3   OH239706   5.921   1.581  16.045 -0.0522  0.5544 -0.3765
 6072TIP3    H139707   5.861   1.546  15.978 -0.9024  1.8156 -0.3145
 6072TIP3    H239708   5.894   1.538  16.126 -1.1148  1.3169 -0.2959
 6073TIP3   OH239709   2.740   3.870   0.808 -0.0257  0.3582  0.2600
 6073TIP3    H139710   2.710   3.801   0.749 -1.1935  1.5256 -0.5998
 6073TIP3    H239711   2.768   3.825   0.887  0.8255 -1.2052 -0.8857
 6074TIP3   OH239712   5.089   1.832  12.555 -0.1663  0.4825 -0.6032
 6074TIP3    H139713   5.005   1.790  12.574  0.1735 -0.8574 -1.9638
 6074TIP3    H239714   5.141   1.817  12.634 -0.7510  0.1498 -0.2705
 6075TIP3   OH239715   0.092   4.089   0.341  0.6593 -0.9342 -0.8280
 6075TIP3    H139716   0.152   4.135   0.400  1.1521  0.5907 -2.3884
 6075TIP3    H239717   0.027   4.049   0.398 -0.4502  2.6502  0.6990
 6076TIP3   OH239718   1.340   0.775   4.898 -0.2740  0.0930 -0.6531
 6076TIP3    H139719   1.305   0.804   4.982  1.6836 -2.0306  1.0264
 6076TIP3    H239720   1.377   0.855   4.859  1.6315  0.6534  2.0369
 6077TIP3   OH239721   2.996   1.460  15.775  0.4815  0.1260  0.5977
 6077TIP3    H139722   2.983   1.511  15.695  0.2194  1.0938  1.2473
 6077TIP3    H239723   2.934   1.387  15.767  0.0192  0.5573  0.2088
 6078TIP3   OH239724   2.783   5.923  12.676 -0.2234  0.4230 -0.6923
 6078TIP3    H139725   2.708   5.887  12.723 -0.2128  0.8547 -0.3297
 6078TIP3    H239726   2.855   5.917  12.739  0.0185  0.1220 -0.9963
 6079TIP3   OH239727   1.115   4.354  16.236 -0.0502  0.1222  0.2753
 6079TIP3    H139728   1.056   4.280  16.247  0.1799 -0.2029 -0.5784
 6079TIP3    H239729   1.153   4.342  16.149  1.7300 -0.0086  1.0324
 6080TIP3   OH239730   1.706   0.452  14.634 -0.4489  0.0753 -0.3102
 6080TIP3    H139731   1.773   0.439  14.701  0.1433  2.0685 -0.4688
 6080TIP3    H239732   1.754   0.450  14.552 -0.9613 -0.8807 -0.6023
 6081TIP3   OH239733   4.347   1.540   4.087  0.4245 -0.1665  0.1085
 6081TIP3    H139734   4.346   1.471   4.020 -0.3629 -0.4071  0.3614
 6081TIP3    H239735   4.292   1.610   4.050 -2.8537 -1.6216  1.8394
 6082TIP3   OH239736   6.267   1.651  11.768 -0.7382 -0.1694 -0.1786
 6082TIP3    H139737   6.331   1.714  11.736 -2.6388  1.5049 -0.8512
 6082TIP3    H239738   6.239   1.604  11.689 -1.4148  0.1607 -0.1440
 6083TIP3   OH239739   4.979   3.309   1.853  0.3124 -0.1016  0.1297
 6083TIP3    H139740   5.026   3.286   1.934 -0.3863 -1.1021  0.2753
 6083TIP3    H239741   5.037   3.281   1.783  0.0619 -1.0957  0.3071
 6084TIP3   OH239742   3.508   0.684   0.066 -0.3574 -0.2568 -0.0622
 6084TIP3    H139743   3.582   0.742   0.085  0.5477 -0.8976 -1.4424
 6084TIP3    H239744   3.476   0.713  -0.019 -2.6450  0.9130  1.1336
 6085TIP3   OH239745   5.325   2.275  15.883 -0.2200 -0.4566 -0.4213
 6085TIP3    H139746   5.371   2.322  15.952 -1.2842 -2.5718  1.9415
 6085TIP3    H239747   5.264   2.218  15.931 -1.3083 -1.7672 -3.1682
 6086TIP3   OH239748   1.378   1.800   0.618 -0.6841 -0.1359  0.0258
 6086TIP3    H139749   1.357   1.754   0.536 -0.8708  1.6738 -1.0020
 6086TIP3    H239750   1.293   1.829   0.652 -0.4810  0.4770  0.0155
 6087TIP3   OH239751   4.803   6.768   4.436 -0.5786  0.9265  0.6787
 6087TIP3    H139752   4.818   6.718   4.516  1.1668  0.6410  0.2143
 6087TIP3    H239753   4.707   6.773   4.429 -0.8484 -1.9445  0.9878
 6088TIP3   OH239754   0.181   4.823   3.291  0.5335 -0.1979 -0.2916
 6088TIP3    H139755   0.260   4.775   3.317  0.7798  1.6686  2.7884
 6088TIP3    H239756   0.132   4.834   3.372 -1.6318  1.0106 -1.6843
 6089TIP3   OH239757   2.784   4.021  16.470 -0.1532  0.6929 -0.1625
 6089TIP3    H139758   2.701   4.040  16.515 -0.2953 -1.5394  0.6535
 6089TIP3    H239759   2.825   3.953  16.523  0.9702 -0.1096 -1.9755
 6090TIP3   OH239760   3.631   3.890  13.531  0.3394 -0.7653  0.2286
 6090TIP3    H139761   3.599   3.813  13.579 -0.4889 -0.9124 -0.5345
 6090TIP3    H239762   3.564   3.906  13.465  1.6697 -0.8482 -1.1952
 6091TIP3   OH239763   3.178   3.348  13.030 -0.2421 -0.2145  0.4327
 6091TIP3    H139764   3.146   3.361  12.941  0.4832 -1.1491  0.0164
 6091TIP3    H239765   3.267   3.382  13.030 -0.0694 -0.6594  0.6695
 6092TIP3   OH239766   6.643   6.187  16.785  0.2823  0.0470 -0.2524
 6092TIP3    H139767   6.570   6.143  16.742 -0.1822  0.3452  0.2178
 6092TIP3    H239768   6.707   6.118  16.802  1.0115  0.1100 -2.4723
 6093TIP3   OH239769   4.077   3.577   4.660  0.1873 -0.4343 -0.6169
 6093TIP3    H139770   4.172   3.576   4.673 -0.1207  0.4287  2.6002
 6093TIP3    H239771   4.041   3.576   4.749 -2.8398 -0.7764 -1.7363
 6094TIP3   OH239772   5.950   2.196   3.199  0.2789  0.0633  0.4989
 6094TIP3    H139773   5.950   2.158   3.111 -1.1296  0.0954  0.4532
 6094TIP3    H239774   6.042   2.196   3.225  0.6047 -1.0038 -0.5200
 6095TIP3   OH239775   2.870   3.424   4.435  0.2154  0.2037  0.0199
 6095TIP3    H139776   2.890   3.375   4.515 -1.0289  0.3880  0.4735
 6095TIP3    H239777   2.939   3.399   4.374  2.1268  1.2770  1.6365
 6096TIP3   OH239778   5.823   1.047  15.906  0.0345  0.6872 -0.4066
 6096TIP3    H139779   5.849   1.129  15.949  0.8841  0.4825 -0.5219
 6096TIP3    H239780   5.785   0.995  15.976  1.3592  0.3797  0.1185
 6097TIP3   OH239781   4.697   2.368  12.571  0.0875  0.1681 -0.0782
 6097TIP3    H139782   4.758   2.358  12.644 -0.9310 -0.1295  0.7593
 6097TIP3    H239783   4.751   2.359  12.493  0.6929 -3.2383  0.5894
 6098TIP3   OH239784   3.836   3.493  17.395 -0.1255  0.2318 -0.6041
 6098TIP3    H139785   3.806   3.455  17.477 -0.8030  0.0063 -0.9526
 6098TIP3    H239786   3.888   3.569  17.422 -0.0794 -0.0199  0.0395
 6099TIP3   OH239787   2.356   3.667  15.491  0.8124 -0.0051 -0.8188
 6099TIP3    H139788   2.360   3.591  15.433  1.9227 -0.3430 -0.3422
 6099TIP3    H239789   2.430   3.654  15.551 -1.4209 -0.7144  1.9706
 6100TIP3   OH239790   0.284   2.593  13.958  0.2780  0.3865 -0.2806
 6100TIP3    H139791   0.353   2.638  13.910  0.7734  0.2058  0.2424
 6100TIP3    H239792   0.313   2.502  13.961  1.5458  0.7755  2.4538
 6101TIP3   OH239793   1.216   6.444   1.271 -0.8495  0.0265 -0.1395
 6101TIP3    H139794   1.203   6.481   1.183  1.6028 -1.7867 -1.4084
 6101TIP3    H239795   1.286   6.380   1.259  1.1443  1.2228  3.5828
 6102TIP3   OH239796   1.006   1.793   0.001 -0.4080  0.5462 -0.7581
 6102TIP3    H139797   1.026   1.847  -0.076 -0.9942  1.1782 -0.4856
 6102TIP3    H239798   1.085   1.797   0.054  0.1936 -0.3226 -1.5591
 6103TIP3   OH239799   4.345   6.322   3.558  0.4277 -0.5567  0.3060
 6103TIP3    H139800   4.376   6.401   3.514 -2.0943  0.1560 -0.3307
 6103TIP3    H239801   4.409   6.306   3.627  2.2441  0.6747 -1.0077
 6104TIP3   OH239802   6.015   2.591   5.053  0.1674 -0.3101  0.1123
 6104TIP3    H139803   6.088   2.653   5.065 -0.4215  0.3334  0.5007
 6104TIP3    H239804   5.944   2.646   5.020 -0.0913 -0.9660 -0.4233
 6105TIP3   OH239805   3.682   1.102  11.962  0.5488 -0.4156  0.0376
 6105TIP3    H139806   3.761   1.052  11.983 -0.5870 -1.8946  0.9477
 6105TIP3    H239807   3.615   1.036  11.946 -0.4231  0.8068 -1.1950
 6106TIP3   OH239808   6.276   0.340   5.087  0.4411 -0.2387  0.0343
 6106TIP3    H139809   6.329   0.272   5.045  1.3532 -0.1404  0.9972
 6106TIP3    H239810   6.253   0.399   5.015  0.9673 -0.7229 -0.5438
 6107TIP3   OH239811   4.362   6.010  14.754  0.2745 -0.3880  0.0066
 6107TIP3    H139812   4.457   5.995  14.752  0.1314 -1.2909 -0.8806
 6107TIP3    H239813   4.326   5.932  14.796 -0.0484  0.1337  0.7074
 6108TIP3   OH239814   3.848   5.351  13.415 -0.0717  0.3399 -0.1721
 6108TIP3    H139815   3.811   5.416  13.355 -0.1420  2.0964  1.6325
 6108TIP3    H239816   3.940   5.344  13.390 -0.0774  1.1225 -0.4483
 6109TIP3   OH239817   3.560   0.925  14.067 -0.5217 -0.5570  0.0061
 6109TIP3    H139818   3.568   0.990  13.998 -1.8898 -1.6433 -1.2667
 6109TIP3    H239819   3.642   0.876  14.064  1.5337  2.3732  2.5071
 6110TIP3   OH239820   5.093   6.292   1.059  0.4135 -0.4980 -0.5081
 6110TIP3    H139821   5.093   6.225   1.127  1.1053 -1.0122 -0.9910
 6110TIP3    H239822   5.006   6.288   1.020 -0.7739  1.2991  1.7387
 6111TIP3   OH239823   3.586   5.390   5.446 -0.0018 -0.8318 -0.3048
 6111TIP3    H139824   3.582   5.478   5.485 -0.4353 -1.4782  1.1825
 6111TIP3    H239825   3.679   5.368   5.447 -0.0282 -0.9667  0.7378
 6112TIP3   OH239826   3.307   0.300  16.480 -0.0272 -0.8445  0.3216
 6112TIP3    H139827   3.380   0.352  16.511 -1.3746  2.1402 -1.1183
 6112TIP3    H239828   3.233   0.326  16.535 -1.1617  0.3274 -1.6237
 6113TIP3   OH239829   4.781   6.022   0.291  0.2019 -0.1344  0.0204
 6113TIP3    H139830   4.806   6.106   0.330  0.6557 -0.4261  0.3644
 6113TIP3    H239831   4.811   5.956   0.354  1.1483 -0.6321 -0.9283
 6114TIP3   OH239832   1.712   4.327   4.163 -0.2142 -0.6609 -0.1494
 6114TIP3    H139833   1.779   4.370   4.110  0.3026 -0.0332  0.9762
 6114TIP3    H239834   1.756   4.250   4.199  1.2883  1.6293  3.6248
 6115TIP3   OH239835   0.546   3.406  16.943 -0.4447 -0.6008 -0.8719
 6115TIP3    H139836   0.579   3.388  17.031  0.0416  0.8154 -0.7360
 6115TIP3    H239837   0.451   3.402  16.953 -0.4422  0.7544  0.0345
 6116TIP3   OH239838   3.598   4.270   3.161  0.7708 -0.5548 -0.1498
 6116TIP3    H139839   3.667   4.232   3.216  1.3171  1.7794  0.9040
 6116TIP3    H239840   3.517   4.253   3.208  0.7867 -1.8425 -0.5528
 6117TIP3   OH239841   2.351   2.893   2.344  0.0894  0.1488  0.0546
 6117TIP3    H139842   2.372   2.838   2.419  0.7303  0.1318 -0.1373
 6117TIP3    H239843   2.406   2.970   2.355  0.7980 -0.2157 -0.8263
 6118TIP3   OH239844   2.894   5.924  13.850  0.3529  0.5774  0.4561
 6118TIP3    H139845   2.949   5.847  13.834  0.6423  0.7646  0.5519
 6118TIP3    H239846   2.847   5.937  13.767  1.2875  1.0895 -0.0094
 6119TIP3   OH239847   3.622   3.002  13.987  0.2355 -0.1564  0.5317
 6119TIP3    H139848   3.529   2.996  13.966  0.8519 -0.4986 -2.5005
 6119TIP3    H239849   3.642   3.095  13.985  0.1769 -0.1538  0.1450
 6120TIP3   OH239850   2.952   3.951  12.342 -0.4376  0.2349 -0.0057
 6120TIP3    H139851   3.026   4.012  12.346 -1.2776  1.5962 -2.6507
 6120TIP3    H239852   2.985   3.876  12.293 -0.6395  0.6326 -0.7692
 6121TIP3   OH239853   4.129   5.701  15.245 -0.5022  0.0788 -0.2326
 6121TIP3    H139854   4.192   5.766  15.213  0.2218 -0.8600 -0.7550
 6121TIP3    H239855   4.096   5.738  15.327  0.9102  0.4906  0.1838
 6122TIP3   OH239856   4.837   1.474   0.528  0.1243  0.0781 -0.0637
 6122TIP3    H139857   4.804   1.485   0.439  1.4961  1.1640 -0.4591
 6122TIP3    H239858   4.917   1.423   0.518 -0.4176 -0.9784  0.7132
 6123TIP3   OH239859   3.344   1.465   4.651 -0.0395 -0.8592 -0.9498
 6123TIP3    H139860   3.275   1.474   4.716  0.1287 -1.3225 -0.7054
 6123TIP3    H239861   3.324   1.532   4.585  0.2871  0.2210  0.0145
 6124TIP3   OH239862   5.733   3.555   1.381 -0.0246 -0.7359  0.7842
 6124TIP3    H139863   5.662   3.492   1.370 -1.0542  0.5228 -0.2495
 6124TIP3    H239864   5.708   3.628   1.323  1.8740 -0.0493  0.7828
 6125TIP3   OH239865   2.209   6.645   3.020  0.3408  0.5535 -0.0872
 6125TIP3    H139866   2.239   6.606   2.938 -1.2857  1.7137 -1.3218
 6125TIP3    H239867   2.269   6.612   3.086  1.2505 -1.0418 -1.6185
 6126TIP3   OH239868   4.673   2.030  13.540  0.0770  0.3763  0.4803
 6126TIP3    H139869   4.598   2.011  13.484 -0.0725 -0.0342  0.8098
 6126TIP3    H239870   4.646   1.999  13.627  0.6418  0.1843  0.5918
 6127TIP3   OH239871   4.162   5.542   2.777  0.0301  0.7139  0.3680
 6127TIP3    H139872   4.161   5.522   2.870 -0.2608  0.5930  0.3385
 6127TIP3    H239873   4.237   5.495   2.742 -1.1488 -1.0708  0.1300
 6128TIP3   OH239874   4.435   3.035  16.986 -0.3816 -0.1679  0.4982
 6128TIP3    H139875   4.458   3.002  16.899  1.9078  1.4165  0.3991
 6128TIP3    H239876   4.402   3.123  16.970 -0.8112 -0.2001  1.1842
 6129TIP3   OH239877   2.183   6.634   1.325  0.5386 -0.4806  0.1858
 6129TIP3    H139878   2.238   6.626   1.247 -1.9469 -0.2095 -1.7131
 6129TIP3    H239879   2.200   6.722   1.358  0.2956  0.0900 -1.1597
 6130TIP3   OH239880   4.269   1.901   5.168  0.5654 -0.3596  0.3528
 6130TIP3    H139881   4.196   1.859   5.122 -0.9204  1.1220  1.2748
 6130TIP3    H239882   4.291   1.977   5.113  2.0381 -1.2495 -0.3640
 6131TIP3   OH239883   4.329   0.267  12.596  0.0251  0.1054 -0.0542
 6131TIP3    H139884   4.308   0.350  12.555  0.6969  0.5426  0.4756
 6131TIP3    H239885   4.424   0.268  12.607 -0.1126 -0.0319  1.3932
 6132TIP3   OH239886   1.465   4.134  10.992  0.7133 -0.0152  0.4879
 6132TIP3    H139887   1.408   4.079  10.938 -0.3030  0.9962  0.4928
 6132TIP3    H239888   1.462   4.220  10.950  1.9102  0.1677  0.7450
 6133TIP3   OH239889   2.033   4.936   5.671  0.4987 -0.0385  0.2693
 6133TIP3    H139890   2.001   4.930   5.761 -0.0875 -0.2839  0.0500
 6133TIP3    H239891   1.997   5.018   5.638 -0.4891 -0.6336 -0.1923
 6134TIP3   OH239892   3.386   1.855  12.273 -0.4487  0.4138  0.0021
 6134TIP3    H139893   3.425   1.888  12.192 -0.8767  1.1723  0.0969
 6134TIP3    H239894   3.312   1.914  12.290 -1.4493 -0.8039 -0.0080
 6135TIP3   OH239895   0.074   5.780   3.153  0.1100  0.0262  0.2561
 6135TIP3    H139896   0.062   5.761   3.060 -0.0737 -0.3864  0.3671
 6135TIP3    H239897  -0.008   5.821   3.181 -0.2098 -0.7614  0.4767
 6136TIP3   OH239898   4.837   4.609  16.263  0.4330 -0.3391  0.6163
 6136TIP3    H139899   4.835   4.686  16.321 -0.2132 -0.2658  0.4964
 6136TIP3    H239900   4.836   4.535  16.323 -0.3184 -0.2631  0.6985
 6137TIP3   OH239901   1.860   1.055  15.848 -0.3719 -0.0825 -0.4217
 6137TIP3    H139902   1.805   1.132  15.830 -0.5163  0.1717  1.0244
 6137TIP3    H239903   1.949   1.091  15.858 -0.5040 -0.0330  0.6638
 6138TIP3   OH239904   6.255   5.100  15.718  0.0918  0.0148 -0.4338
 6138TIP3    H139905   6.250   5.173  15.780  0.9189 -0.2732 -0.0221
 6138TIP3    H239906   6.346   5.099  15.689 -0.4354  0.6170 -2.2452
 6139TIP3   OH239907   5.235   6.386   2.748 -0.0286  0.2211  0.3901
 6139TIP3    H139908   5.156   6.439   2.740  0.4375  0.7643 -0.9238
 6139TIP3    H239909   5.205   6.304   2.788 -0.5098  1.9267  3.8349
 6140TIP3   OH239910   5.804   3.644  12.430  0.1896  0.0238 -0.2002
 6140TIP3    H139911   5.821   3.659  12.337 -1.4330  3.7685 -0.0675
 6140TIP3    H239912   5.853   3.713  12.475 -0.6967 -0.4251  1.5575
 6141TIP3   OH239913   1.122   4.439   2.623 -0.4831  0.1621  0.0757
 6141TIP3    H139914   1.071   4.379   2.676 -1.1851  0.9759  0.3360
 6141TIP3    H239915   1.078   4.439   2.538 -0.9119  0.8506  0.2948
 6142TIP3   OH239916   3.443   6.314   2.628  0.3035  0.5177 -0.1311
 6142TIP3    H139917   3.519   6.257   2.619  0.5336  0.8100 -0.0544
 6142TIP3    H239918   3.464   6.391   2.576  0.2877  0.8324  0.3213
 6143TIP3   OH239919   2.864   5.454   5.110 -0.3371  0.0539 -0.3701
 6143TIP3    H139920   2.839   5.533   5.157 -1.1063 -0.5707  0.3061
 6143TIP3    H239921   2.959   5.452   5.113 -0.3409  0.6197  0.1654
 6144TIP3   OH239922   1.632   4.434  12.251 -0.7140  0.2715 -0.5446
 6144TIP3    H139923   1.648   4.527  12.268  0.1828 -0.3737  3.0930
 6144TIP3    H239924   1.549   4.416  12.296 -1.0532 -0.6592 -1.5023
 6145TIP3   OH239925   4.146   6.663  14.135  0.2403  0.1897  0.3167
 6145TIP3    H139926   4.185   6.636  14.219  1.4560  0.2252 -0.2109
 6145TIP3    H239927   4.057   6.690  14.158  0.5623  0.2491  1.6050
 6146TIP3   OH239928   3.965   0.839   5.367  0.1183 -0.1069  0.0403
 6146TIP3    H139929   4.016   0.880   5.298 -0.3835 -1.9840 -1.5224
 6146TIP3    H239930   4.014   0.858   5.447  2.0443  0.0699 -1.1144
 6147TIP3   OH239931   4.468   5.831   5.885 -0.3855 -0.0780 -0.0486
 6147TIP3    H139932   4.444   5.747   5.924 -0.0300 -0.2048 -0.1031
 6147TIP3    H239933   4.521   5.875   5.952  0.5820 -0.4713 -0.5409
 6148TIP3   OH239934   0.390   1.054  17.341 -0.0710 -0.5706 -0.0446
 6148TIP3    H139935   0.362   1.146  17.341 -0.2112 -0.6067  0.8738
 6148TIP3    H239936   0.342   1.015  17.268 -1.0201 -0.2004  0.3613
 6149TIP3   OH239937   0.939   2.609   3.571 -0.5174  0.4714  0.0833
 6149TIP3    H139938   0.861   2.655   3.538  0.4852  0.2323 -2.8862
 6149TIP3    H239939   0.976   2.669   3.636 -1.2331  2.2421 -1.0681
 6150TIP3   OH239940   6.358   1.990  14.447 -0.1422  0.3995 -0.0319
 6150TIP3    H139941   6.399   1.959  14.367 -0.8465  0.5833 -0.4754
 6150TIP3    H239942   6.376   1.923  14.512 -0.7542 -0.4407 -0.7080
 6151TIP3   OH239943   6.014   4.939   3.536  0.2778 -0.0623 -0.1055
 6151TIP3    H139944   5.999   4.855   3.580 -0.7745 -0.1840 -0.6787
 6151TIP3    H239945   6.069   4.988   3.597 -0.5508 -0.5032  1.0226
 6152TIP3   OH239946   0.589   2.734  15.283 -0.1665 -0.1528 -0.1105
 6152TIP3    H139947   0.593   2.669  15.353  0.5719 -0.7593 -0.7020
 6152TIP3    H239948   0.559   2.685  15.206 -1.2092  0.5562 -0.1800
 6153TIP3   OH239949   1.045   4.348   3.305 -0.0614 -0.5078 -0.6980
 6153TIP3    H139950   1.126   4.297   3.315 -0.2096 -0.5798  0.2730
 6153TIP3    H239951   1.009   4.319   3.222  0.0140 -1.7878 -0.3153
 6154TIP3   OH239952   4.038   0.562  11.553  0.2743 -0.8309  0.2354
 6154TIP3    H139953   4.040   0.625  11.482 -0.5856 -1.0718 -0.0074
 6154TIP3    H239954   4.079   0.607  11.627 -3.2894  1.3120  1.1078
 6155TIP3   OH239955   1.598   6.016   2.401 -0.1914 -0.4442 -0.1196
 6155TIP3    H139956   1.630   5.995   2.313  0.2248 -1.0112  0.1623
 6155TIP3    H239957   1.664   5.979   2.460  0.7441  1.9369  0.4108
 6156TIP3   OH239958   6.006   2.130  16.140 -0.0858  0.3220 -0.3543
 6156TIP3    H139959   5.920   2.159  16.170  0.6690 -0.0176  2.4171
 6156TIP3    H239960   6.042   2.206  16.094 -0.7015  1.5651  1.1083
 6157TIP3   OH239961   3.465   0.849  17.356  0.2683  0.1394  0.3983
 6157TIP3    H139962   3.428   0.933  17.381 -0.1998 -0.4517  1.7793
 6157TIP3    H239963   3.392   0.801  17.316  0.8527  0.8344 -1.6449
 6158TIP3   OH239964   4.477   5.364   3.663  0.0949  0.3539  0.2788
 6158TIP3    H139965   4.391   5.368   3.705  0.5755  0.9227  1.2575
 6158TIP3    H239966   4.481   5.444   3.610 -1.0165 -0.9805 -1.9414
 6159TIP3   OH239967   6.117   1.032  15.981 -0.4313  0.0020  0.2851
 6159TIP3    H139968   6.063   0.982  15.919 -0.0283  1.1150 -1.0019
 6159TIP3    H239969   6.111   1.123  15.952  1.5841  0.2666  0.5044
 6160TIP3   OH239970   4.119   3.513  12.821  0.6351  0.4719 -0.0499
 6160TIP3    H139971   4.162   3.534  12.738  0.5535  0.5560 -0.0713
 6160TIP3    H239972   4.188   3.519  12.887  0.6123  0.7928 -0.0574
 6161TIP3   OH239973   4.174   6.204  17.082 -0.0271  0.3773 -0.6909
 6161TIP3    H139974   4.251   6.225  17.134 -1.0231  0.6028  0.7589
 6161TIP3    H239975   4.196   6.233  16.993  1.3971  0.7870 -0.2286
 6162TIP3   OH239976   0.449   2.438  17.284 -0.0965 -0.1187 -0.4408
 6162TIP3    H139977   0.428   2.405  17.371  1.0455 -0.7289 -0.3702
 6162TIP3    H239978   0.519   2.380  17.253 -0.4239  0.1434 -1.7274
 6163TIP3   OH239979   6.436   4.674   2.029 -0.0707 -0.1385 -0.6241
 6163TIP3    H139980   6.526   4.708   2.029  0.1732 -0.6852  0.8926
 6163TIP3    H239981   6.441   4.594   2.081 -1.7921  0.9093  1.3212
 6164TIP3   OH239982   2.685   3.057   0.031 -0.4706  0.1869 -0.5058
 6164TIP3    H139983   2.647   3.112   0.099  0.9175  0.9106 -0.2927
 6164TIP3    H239984   2.609   3.026  -0.019 -1.7587 -1.9967  2.4909
 6165TIP3   OH239985   0.107   6.273  17.446 -0.5936 -0.0421 -0.2984
 6165TIP3    H139986   0.093   6.361  17.482 -0.4163 -0.4257  0.7348
 6165TIP3    H239987   0.195   6.249  17.475 -0.2370 -0.1558 -1.4507
 6166TIP3   OH239988   3.376   2.151  14.522 -0.3555 -0.0704  0.3113
 6166TIP3    H139989   3.355   2.058  14.517 -3.1756  0.4981 -0.3894
 6166TIP3    H239990   3.310   2.187  14.582 -1.0043  1.8316 -1.4315
 6167TIP3   OH239991   3.913   2.616  16.121 -0.0201 -0.2338  0.5279
 6167TIP3    H139992   3.984   2.590  16.063 -0.7493 -1.0209 -0.0250
 6167TIP3    H239993   3.900   2.709  16.104  2.0796  0.3820  1.9476
 6168TIP3   OH239994   0.759   2.097  12.736  0.6438  0.0143 -0.1563
 6168TIP3    H139995   0.676   2.075  12.694 -1.6472  0.8753  3.4478
 6168TIP3    H239996   0.786   2.016  12.780  2.2517 -0.4905 -1.9551
 6169TIP3   OH239997   1.093   0.611   4.305 -0.4354  0.2126  0.1073
 6169TIP3    H139998   1.009   0.570   4.323  0.1973 -1.0392  0.2831
 6169TIP3    H239999   1.085   0.699   4.341 -1.1686 -0.3728  1.4295
 6170TIP3   OH240000   2.700   3.854   3.615 -0.1833 -0.8250 -0.4801
 6170TIP3    H140001   2.780   3.889   3.576  0.8502 -1.1946  1.2420
 6170TIP3    H240002   2.634   3.865   3.546  0.8426  1.4163 -1.1864
 6171TIP3   OH240003   3.344   4.510   1.172 -0.3651 -0.1357  0.1431
 6171TIP3    H140004   3.408   4.451   1.133 -0.4080 -0.0274 -0.0953
 6171TIP3    H240005   3.259   4.476   1.144 -0.4315 -0.5085  0.7839
 6172TIP3   OH240006   4.645   2.902  14.779 -0.3594 -0.4218  0.3930
 6172TIP3    H140007   4.653   2.997  14.780 -0.6650 -0.3939  1.8689
 6172TIP3    H240008   4.731   2.870  14.804  0.2260 -0.6228 -1.6364
 6173TIP3   OH240009   1.236   3.395  10.635 -0.7434 -0.4938 -0.6366
 6173TIP3    H140010   1.214   3.377  10.726  1.5712 -1.7109 -0.2441
 6173TIP3    H240011   1.192   3.325  10.585 -0.2929 -1.0916 -0.2106
 6174TIP3   OH240012   0.712   2.610   4.649 -0.4579 -0.4525 -0.1310
 6174TIP3    H140013   0.754   2.587   4.566 -0.4091 -0.9379  0.0274
 6174TIP3    H240014   0.676   2.698   4.634 -0.3393 -0.4862 -0.6246
 6175TIP3   OH240015   5.138   2.288  12.267 -0.8111 -0.0720  0.1067
 6175TIP3    H140016   5.161   2.333  12.185 -1.8515 -1.5081 -1.0282
 6175TIP3    H240017   5.210   2.309  12.327 -1.1170  2.8777 -0.4044
 6176TIP3   OH240018   4.243   4.718  16.573  0.2459 -0.3845 -0.0880
 6176TIP3    H140019   4.196   4.665  16.508 -2.2539  0.4663  0.9135
 6176TIP3    H240020   4.232   4.671  16.655  1.5796 -0.3651  0.1287
 6177TIP3   OH240021   0.333   6.268   3.938 -0.6260  0.2839  0.4246
 6177TIP3    H140022   0.345   6.363   3.926 -0.8924  0.1934 -0.6740
 6177TIP3    H240023   0.241   6.258   3.959 -1.0097  0.1538 -1.1572
 6178TIP3   OH240024   5.265   3.581  16.919 -0.5633 -0.1989 -0.4949
 6178TIP3    H140025   5.271   3.597  17.013 -1.9489 -2.9309  0.1907
 6178TIP3    H240026   5.183   3.623  16.892 -0.5003  0.0228 -0.3374
 6179TIP3   OH240027   4.148   6.134   0.503 -0.1771  0.1898 -0.2636
 6179TIP3    H140028   4.182   6.058   0.456 -0.2514  0.0310 -0.0640
 6179TIP3    H240029   4.121   6.194   0.434  1.1523  0.6250 -0.4275
 6180TIP3   OH240030   0.514   4.094  13.611  0.1627 -0.1023 -0.1223
 6180TIP3    H140031   0.441   4.136  13.566 -1.7639 -1.5894  1.4527
 6180TIP3    H240032   0.581   4.163  13.618 -1.5439  1.6786 -0.5044
 6181TIP3   OH240033   1.232   4.814  14.402  0.0922 -0.7440 -0.0834
 6181TIP3    H140034   1.254   4.899  14.440 -1.2291 -0.1552 -0.5567
 6181TIP3    H240035   1.295   4.802  14.331  1.2399 -0.8741  0.9380
 6182TIP3   OH240036   4.632   4.714  16.102 -0.0882  0.3098  0.6141
 6182TIP3    H140037   4.686   4.699  16.179  0.1824  0.9030  0.5455
 6182TIP3    H240038   4.582   4.792  16.122  1.3848  1.6218 -0.5252
 6183TIP3   OH240039   2.700   4.498  12.510  0.2152  0.3545 -0.0549
 6183TIP3    H140040   2.625   4.548  12.543 -1.2618 -1.8612  0.1117
 6183TIP3    H240041   2.732   4.451  12.587 -0.7525 -1.7660 -0.8824
 6184TIP3   OH240042   4.275   6.261  14.624  0.2720 -0.0735 -0.0519
 6184TIP3    H140043   4.370   6.250  14.622  0.1983 -1.6698  1.7279
 6184TIP3    H240044   4.242   6.172  14.641 -1.3968  0.7565  1.3382
 6185TIP3   OH240045   4.138   1.705  13.160  0.3127 -0.4040 -0.0961
 6185TIP3    H140046   4.045   1.694  13.180  0.2000  2.0271  1.0663
 6185TIP3    H240047   4.151   1.800  13.157  2.4074 -0.6689 -2.1035
 6186TIP3   OH240048   4.991   4.677   4.377 -0.6166 -0.6132 -0.0690
 6186TIP3    H140049   5.064   4.630   4.336  0.6084  2.4419 -1.6631
 6186TIP3    H240050   4.995   4.765   4.340 -4.1800  0.1583  1.0215
 6187TIP3   OH240051   0.102   2.384   0.373  0.2849  0.0432  0.4794
 6187TIP3    H140052   0.177   2.357   0.319  0.1973 -1.5960  1.1031
 6187TIP3    H240053   0.110   2.479   0.380  0.8146  0.2249 -1.6428
 6188TIP3   OH240054   3.062   3.157  11.511  0.2909 -0.7543 -0.0549
 6188TIP3    H140055   3.057   3.126  11.421  0.1861 -1.5243  0.2144
 6188TIP3    H240056   2.984   3.122  11.553  0.4167 -0.5222  0.3756
 6189TIP3   OH240057   3.449   4.522   3.505 -0.0103 -0.1640 -0.4786
 6189TIP3    H140058   3.459   4.484   3.592  2.3934 -0.5757 -0.8780
 6189TIP3    H240059   3.526   4.578   3.494 -0.4433  0.1495 -2.2041
 6190TIP3   OH240060   0.164   6.281  10.738 -0.4185  0.2249 -0.4224
 6190TIP3    H140061   0.181   6.294  10.644  1.2697  0.9585 -0.0569
 6190TIP3    H240062   0.245   6.308  10.781 -0.8403 -0.9530  1.2122
 6191TIP3   OH240063   6.663   4.111   4.912  0.0945  0.0717  0.5413
 6191TIP3    H140064   6.733   4.140   4.971  1.3427 -1.1024 -0.3081
 6191TIP3    H240065   6.699   4.122   4.824 -0.9882 -0.1009  0.0599
 6192TIP3   OH240066   3.200   4.530  16.255  0.6879 -0.2820 -0.0708
 6192TIP3    H140067   3.251   4.539  16.336  1.5096 -2.5256 -0.2663
 6192TIP3    H240068   3.197   4.619  16.219  2.2345  0.3842  1.2931
 6193TIP3   OH240069   5.468   1.454  15.442  0.3629 -0.0706 -0.0798
 6193TIP3    H140070   5.501   1.364  15.446 -0.4953 -0.3482  1.4133
 6193TIP3    H240071   5.542   1.506  15.411  1.1098 -1.1744 -0.1972
 6194TIP3   OH240072   5.391   1.917  10.970 -0.1338 -0.3609 -0.0391
 6194TIP3    H140073   5.441   1.948  10.894  0.4813 -0.4431  0.3277
 6194TIP3    H240074   5.300   1.913  10.939  0.2676 -1.5788 -1.1458
 6195TIP3   OH240075   0.354   0.515  15.590 -0.5372 -0.0849 -0.4593
 6195TIP3    H140076   0.380   0.567  15.667 -2.6251  2.0964 -1.0953
 6195TIP3    H240077   0.368   0.574  15.516  0.1448 -1.6735 -1.6591
 6196TIP3   OH240078   3.581   6.355   4.501 -0.8329 -0.6667 -0.0058
 6196TIP3    H140079   3.633   6.435   4.509 -0.3570 -0.9161 -0.4979
 6196TIP3    H240080   3.494   6.385   4.475 -0.8170 -0.2752  0.3796
 6197TIP3   OH240081   5.891   6.707  10.794 -0.5098  0.1620  0.3167
 6197TIP3    H140082   5.966   6.743  10.842 -0.7924  1.4043 -0.1296
 6197TIP3    H240083   5.824   6.694  10.861  0.0775 -0.9518  0.7192
 6198TIP3   OH240084   1.121   6.326  17.249 -0.3158 -0.1844 -0.1867
 6198TIP3    H140085   1.171   6.380  17.188  1.6498 -0.6827  0.8973
 6198TIP3    H240086   1.061   6.387  17.291 -1.2107  0.2876 -2.0834
 6199TIP3   OH240087   3.446   6.358   0.889 -0.0868 -0.5050 -0.0596
 6199TIP3    H140088   3.507   6.312   0.831 -0.1601 -1.0715  0.3146
 6199TIP3    H240089   3.384   6.399   0.829  1.8336  1.8680 -0.6106
 6200TIP3   OH240090   2.178   0.855   1.856 -0.2309 -0.9625 -0.5161
 6200TIP3    H140091   2.107   0.807   1.814  0.3407 -2.4529  0.1358
 6200TIP3    H240092   2.134   0.919   1.912 -1.0249  1.4778 -3.6371
 6201TIP3   OH240093   2.945   5.469   3.809 -0.4925  0.3632 -0.7495
 6201TIP3    H140094   3.021   5.490   3.755 -1.3168 -0.0944 -2.1091
 6201TIP3    H240095   2.974   5.395   3.863  0.1334  0.4323 -0.9842
 6202TIP3   OH240096   2.635   2.300  15.172 -0.5509 -0.5059 -0.4127
 6202TIP3    H140097   2.659   2.215  15.136  2.7452 -0.4626  1.2697
 6202TIP3    H240098   2.653   2.292  15.266 -4.8708  0.6148  0.7778
 6203TIP3   OH240099   3.407   1.018   5.048 -0.3707  1.0179 -0.0875
 6203TIP3    H140100   3.397   0.925   5.024  0.1777  0.9596 -0.1154
 6203TIP3    H240101   3.339   1.063   4.999 -0.4552  0.6619 -0.3004
 6204TIP3   OH240102   0.831   4.382   3.940  0.0591 -0.1960  0.7787
 6204TIP3    H140103   0.915   4.380   3.894 -0.8483 -1.2738 -0.9475
 6204TIP3    H240104   0.828   4.300   3.988 -0.4203 -0.6595 -0.0146
 6205TIP3   OH240105   0.844   1.607   6.018  0.5176  0.0407 -0.4651
 6205TIP3    H140106   0.850   1.691   6.064 -0.7753 -0.7131  1.2121
 6205TIP3    H240107   0.834   1.543   6.088 -0.4990 -1.2868 -1.7744
 6206TIP3   OH240108   0.095   2.221  16.381  0.0367  0.1616 -0.6691
 6206TIP3    H140109   0.091   2.310  16.415  0.9242 -0.1996  0.4420
 6206TIP3    H240110   0.170   2.182  16.425  0.1276 -0.9068 -1.7207
 6207TIP3   OH240111   4.845   3.149  16.323  0.2377 -0.2661 -0.2447
 6207TIP3    H140112   4.793   3.220  16.362 -0.0095  0.2341 -1.4442
 6207TIP3    H240113   4.913   3.194  16.272 -0.2228 -0.8577 -1.4294
 6208TIP3   OH240114   0.093   4.875   4.468 -0.0952  0.5948  0.0996
 6208TIP3    H140115   0.058   4.858   4.381  1.3199  2.0667 -0.8120
 6208TIP3    H240116   0.043   4.951   4.500 -1.7035 -0.8888  1.2885
 6209TIP3   OH240117   1.687   0.596  12.045 -0.3798  0.2693 -0.0655
 6209TIP3    H140118   1.637   0.555  11.975 -1.4116  0.5537  0.4805
 6209TIP3    H240119   1.766   0.629  12.002  0.1316 -1.6033 -0.6523
 6210TIP3   OH240120   2.320   0.150  11.661 -0.0405  0.5359  0.2316
 6210TIP3    H140121   2.285   0.239  11.650  1.1030  0.9001 -0.6381
 6210TIP3    H240122   2.244   0.098  11.686 -0.6792  1.8104  1.0900
 6211TIP3   OH240123   3.646   3.408   5.709 -0.6346  0.0031 -0.4370
 6211TIP3    H140124   3.568   3.445   5.750  0.5955  1.1266  0.9980
 6211TIP3    H240125   3.668   3.469   5.638  0.3385  1.1167  0.7659
 6212TIP3   OH240126   3.940   3.906   0.024  0.1436  0.3905 -0.1427
 6212TIP3    H140127   3.882   3.849   0.075 -0.4696  1.1269  0.0194
 6212TIP3    H240128   3.972   3.970   0.088  0.4531  0.5041 -0.4092
 6213TIP3   OH240129   2.485   3.801   5.938  0.0494  0.1161 -0.6789
 6213TIP3    H140130   2.503   3.884   5.983 -0.6782 -0.1887  0.1939
 6213TIP3    H240131   2.509   3.733   6.002 -2.5511 -0.3170 -0.0467
 6214TIP3   OH240132   1.604   2.381   0.957 -0.3003  0.4991  0.1888
 6214TIP3    H140133   1.535   2.316   0.973  0.1999  0.5022  2.9089
 6214TIP3    H240134   1.557   2.459   0.929 -1.2666  0.0894  0.6213
 6215TIP3   OH240135   4.779   0.902   2.952  0.2185  0.4313  0.1093
 6215TIP3    H140136   4.771   0.838   2.882  1.1185 -1.6870  1.8194
 6215TIP3    H240137   4.732   0.863   3.026  1.2458  1.4962  1.3814
 6216TIP3   OH240138   0.732   5.821   3.782  0.0856 -0.0825 -0.0436
 6216TIP3    H140139   0.644   5.783   3.781 -0.7422  1.7394 -1.3005
 6216TIP3    H240140   0.768   5.802   3.696  0.1820  0.7591 -0.2010
 6217TIP3   OH240141   3.579   4.069   2.247  0.1804  0.3263 -0.0536
 6217TIP3    H140142   3.499   4.100   2.290  0.4844  0.8715  0.1181
 6217TIP3    H240143   3.649   4.120   2.286  0.7769 -1.0103  0.6932
 6218TIP3   OH240144   0.136   2.856   0.849 -0.0261  0.6583  0.4622
 6218TIP3    H140145   0.098   2.865   0.937 -1.3099  0.2557 -0.0261
 6218TIP3    H240146   0.123   2.941   0.808 -0.1520  0.6123  0.4032
 6219TIP3   OH240147   5.570   1.733   6.200  0.2037 -0.0975 -0.2313
 6219TIP3    H140148   5.664   1.714   6.203 -0.0428 -2.0153 -2.2926
 6219TIP3    H240149   5.564   1.822   6.167  1.3074 -0.2953 -1.0175
 6220TIP3   OH240150   2.656   2.727   4.787  0.3433 -0.1685  0.2056
 6220TIP3    H140151   2.627   2.708   4.877 -1.4691  3.1436  0.4808
 6220TIP3    H240152   2.588   2.688   4.732 -0.6577  1.0254  0.5293
 6221TIP3   OH240153   5.153   3.527  15.388 -0.1342 -0.4569 -0.1592
 6221TIP3    H140154   5.154   3.525  15.292 -0.6204  0.1542 -0.1849
 6221TIP3    H240155   5.185   3.441  15.414 -1.8925 -1.3727 -0.8731
 6222TIP3   OH240156   5.644   0.314  12.793  0.0155 -0.3026  0.7712
 6222TIP3    H140157   5.719   0.367  12.821  0.0376 -0.8061  1.7451
 6222TIP3    H240158   5.585   0.314  12.869 -1.1795  0.4193 -0.1256
 6223TIP3   OH240159   5.285   5.181  16.210 -0.4781  0.4449  0.7391
 6223TIP3    H140160   5.233   5.102  16.195 -3.1432  2.1554  0.2550
 6223TIP3    H240161   5.238   5.228  16.279  0.2279  2.2708  0.0409
 6224TIP3   OH240162   6.012   1.320   3.341  0.3152 -0.1448  0.1991
 6224TIP3    H140163   5.925   1.330   3.380  1.0720 -2.3345  2.7772
 6224TIP3    H240164   6.061   1.397   3.372 -0.2808  0.3570 -0.0797
 6225TIP3   OH240165   0.049   4.398  15.695 -0.0386 -0.2942 -0.0655
 6225TIP3    H140166   0.078   4.307  15.702  0.8839 -0.0407 -0.5096
 6225TIP3    H240167  -0.031   4.401  15.748 -0.7938 -1.6672 -1.0435
 6226TIP3   OH240168   4.816   6.057  11.741 -0.2347 -0.0580  0.3713
 6226TIP3    H140169   4.760   5.996  11.790 -0.5473 -0.9640 -1.0487
 6226TIP3    H240170   4.901   6.014  11.737 -1.2023 -2.0876 -3.3069
 6227TIP3   OH240171   0.155   2.316  11.571 -0.0142  0.0264 -0.1342
 6227TIP3    H140172   0.175   2.223  11.581  1.9028  0.4429  0.2888
 6227TIP3    H240173   0.170   2.334  11.478 -0.0646 -0.0259 -0.1516
 6228TIP3   OH240174   6.339   2.922  13.916  0.8014  0.0437 -0.3753
 6228TIP3    H140175   6.376   3.009  13.905  1.5045 -0.3777 -1.5238
 6228TIP3    H240176   6.279   2.912  13.843 -0.5396  0.1675  0.6702
 6229TIP3   OH240177   6.550   3.500   1.102 -0.5193  0.6029  0.3539
 6229TIP3    H140178   6.510   3.435   1.158  0.0483  1.0409  1.2899
 6229TIP3    H240179   6.644   3.488   1.114 -0.3717  0.4315 -0.8280
 6230TIP3   OH240180   1.302   6.172   3.663 -0.2056  0.5205 -0.4694
 6230TIP3    H140181   1.349   6.134   3.737 -0.9311 -0.8969 -0.6987
 6230TIP3    H240182   1.210   6.160   3.684 -0.4331  0.6637 -1.3220
 6231TIP3   OH240183   3.414   2.635  10.967  0.2718 -0.1634  0.1176
 6231TIP3    H140184   3.394   2.607  11.056  1.2849 -2.4150 -0.3076
 6231TIP3    H240185   3.338   2.609  10.916 -0.0381  0.5535  0.2068
 6232TIP3   OH240186   5.935   0.104   0.661 -0.2923  0.6243  0.2823
 6232TIP3    H140187   5.860   0.069   0.613 -0.3314 -0.0532  0.8224
 6232TIP3    H240188   5.919   0.080   0.752  1.7946 -1.8157  0.1118
 6233TIP3   OH240189   1.064   4.042   4.319  0.1257  0.0577  0.0607
 6233TIP3    H140190   1.140   3.996   4.284 -0.4150 -0.5071 -0.3799
 6233TIP3    H240191   1.048   4.001   4.404 -0.1503 -0.3396 -0.1828
 6234TIP3   OH240192   4.773   0.842  14.637  0.0522 -0.0745 -0.1623
 6234TIP3    H140193   4.811   0.778  14.697 -0.5709 -0.6056 -0.3185
 6234TIP3    H240194   4.848   0.876  14.588  0.4273 -0.4701  0.1255
 6235TIP3   OH240195   4.169   4.913  12.895  0.4899 -0.0994 -0.0322
 6235TIP3    H140196   4.135   4.916  12.984  0.2118 -0.2407 -0.1341
 6235TIP3    H240197   4.120   4.842  12.853  2.1517 -1.5497  0.3474
 6236TIP3   OH240198   5.691   6.226  11.233 -0.4559 -0.4320 -0.3576
 6236TIP3    H140199   5.709   6.293  11.167 -0.0421  0.1519  0.3375
 6236TIP3    H240200   5.624   6.265  11.289  1.2734  0.3041  1.3162
 6237TIP3   OH240201   6.003   3.833   1.064  0.3315 -0.2908  0.1236
 6237TIP3    H140202   5.980   3.797   0.978  1.5164  0.1660 -0.3940
 6237TIP3    H240203   6.076   3.779   1.094  1.4482  0.9985 -0.1994
 6238TIP3   OH240204   3.344   1.889  14.066  0.6210 -0.2087 -0.2415
 6238TIP3    H140205   3.385   1.924  14.145  1.9181  0.3227 -1.1001
 6238TIP3    H240206   3.417   1.850  14.017  0.1931  1.1065 -2.0162
 6239TIP3   OH240207   3.548   4.222   3.623 -0.0377 -0.1553 -0.0409
 6239TIP3    H140208   3.528   4.304   3.669  1.8008  0.3223 -0.0163
 6239TIP3    H240209   3.587   4.166   3.690 -1.8565 -1.3322  0.0956
 6240TIP3   OH240210   0.797   1.126   5.678  0.0441  0.4720 -0.1498
 6240TIP3    H140211   0.779   1.160   5.591 -1.2466  1.9338  0.6332
 6240TIP3    H240212   0.862   1.186   5.715 -0.3295  0.5924  0.3281
 6241TIP3   OH240213   5.874   2.301   4.600  0.4071  0.3075 -0.6736
 6241TIP3    H140214   5.886   2.383   4.648  1.7458 -0.3247  0.1112
 6241TIP3    H240215   5.779   2.295   4.588  0.2986  2.0877 -0.9846
 6242TIP3   OH240216   5.305   1.202   0.714  0.2514 -0.3151  0.2227
 6242TIP3    H140217   5.368   1.274   0.718 -0.7028  0.4676  1.9576
 6242TIP3    H240218   5.348   1.130   0.761  0.7600 -0.5502 -0.5786
 6243TIP3   OH240219   1.949   3.571  13.107 -0.0580 -0.7772  0.2116
 6243TIP3    H140220   1.976   3.582  13.015  1.4144 -0.9926  0.5831
 6243TIP3    H240221   2.027   3.596  13.157  0.1000 -3.2393  1.3448
 6244TIP3   OH240222   1.928   5.973  10.865 -0.1078  0.3180 -0.0437
 6244TIP3    H140223   1.916   5.878  10.870 -0.7330  0.4572  1.8670
 6244TIP3    H240224   1.844   6.006  10.831 -0.3124  0.2653  0.4040
 6245TIP3   OH240225   1.144   2.777   3.465 -0.6893  0.1762 -0.9119
 6245TIP3    H140226   1.088   2.762   3.541  0.1487 -0.3011 -0.3696
 6245TIP3    H240227   1.114   2.713   3.400 -2.4492  1.6114 -1.6103
 6246TIP3   OH240228   0.806   3.594  11.440 -0.0289  0.0994 -0.5021
 6246TIP3    H140229   0.759   3.553  11.512 -1.2520 -1.1238 -1.9501
 6246TIP3    H240230   0.898   3.582  11.462 -0.3725 -0.3612  0.7860
 6247TIP3   OH240231   0.717   6.143  13.150 -0.4918  0.3052 -0.3698
 6247TIP3    H140232   0.672   6.142  13.235 -1.0112  0.6236 -0.6385
 6247TIP3    H240233   0.699   6.230  13.114  0.4685  0.4989 -0.4222
 6248TIP3   OH240234   4.500   4.906  16.999 -0.7399  0.0991 -0.2529
 6248TIP3    H140235   4.493   4.896  17.094  1.1692  1.6523  0.0966
 6248TIP3    H240236   4.557   4.835  16.972 -1.5557 -0.5502 -0.3168
 6249TIP3   OH240237   1.776   6.032   3.212  0.0615  0.1711  0.1529
 6249TIP3    H140238   1.794   6.121   3.241  0.0392 -0.4787  2.3264
 6249TIP3    H240239   1.680   6.030   3.201  0.2490  0.9761 -2.0742
 6250TIP3   OH240240   5.308   0.445   1.986  0.8160  0.0730  0.3896
 6250TIP3    H140241   5.376   0.422   2.050  2.2600 -1.6596 -1.6193
 6250TIP3    H240242   5.357   0.465   1.906 -1.0079 -0.9005 -1.0477
 6251TIP3   OH240243   6.578   6.656  11.541 -0.4315  0.6276  0.1099
 6251TIP3    H140244   6.536   6.588  11.488 -0.7773 -0.3184  1.5232
 6251TIP3    H240245   6.506   6.713  11.568 -0.7972 -0.6729  2.0691
 6252TIP3   OH240246   4.412   2.900  16.718 -0.2047 -0.9529 -0.4221
 6252TIP3    H140247   4.502   2.930  16.710  0.0429 -0.5490  2.5651
 6252TIP3    H240248   4.362   2.956  16.658  1.4342 -0.8104 -1.7037
 6253TIP3   OH240249   1.613   5.244  13.179  0.2433 -0.3451  0.1171
 6253TIP3    H140250   1.696   5.205  13.207  0.8174  1.6897  1.4175
 6253TIP3    H240251   1.579   5.287  13.257 -1.3014  0.1636 -0.7908
 6254TIP3   OH240252   3.260   3.848  17.103  0.4003  0.1391 -0.0969
 6254TIP3    H140253   3.224   3.830  17.190 -0.7830  0.5173 -0.4814
 6254TIP3    H240254   3.335   3.789  17.094 -1.2121 -2.0414  0.0364
 6255TIP3   OH240255   4.291   0.179  16.467 -0.0425  0.3029 -0.1645
 6255TIP3    H140256   4.207   0.146  16.497  0.9326 -2.2748 -0.0213
 6255TIP3    H240257   4.313   0.124  16.392  2.5202 -0.7349  1.2123
 6256TIP3   OH240258   6.167   5.968  11.256 -0.1146 -0.3192 -0.3436
 6256TIP3    H140259   6.095   5.992  11.199  1.3499  0.7083 -1.8720
 6256TIP3    H240260   6.212   6.051  11.274  0.8463 -0.9623  0.3341
 6257TIP3   OH240261   2.075   1.312  11.127  0.5682  0.0213 -0.9500
 6257TIP3    H140262   2.035   1.300  11.214  1.0970  1.2958 -0.5055
 6257TIP3    H240263   2.168   1.320  11.145  0.5845  1.2864 -1.5322
 6258TIP3   OH240264   4.988   0.535  16.868  0.0701 -0.1703 -0.0790
 6258TIP3    H140265   5.070   0.537  16.917  1.1727  4.0832 -1.6317
 6258TIP3    H240266   4.968   0.442  16.858  5.4023 -1.5623 -0.7680
 6259TIP3   OH240267   4.079   0.642  14.847  0.2466 -0.1305  0.1292
 6259TIP3    H140268   4.150   0.682  14.797 -1.1420  1.9905 -0.2877
 6259TIP3    H240269   4.112   0.639  14.937  1.1961 -0.0564 -0.2022
 6260TIP3   OH240270   2.808   1.807   6.900  0.2718  0.5540 -0.2000
 6260TIP3    H140271   2.901   1.827   6.894  0.4446 -0.3162 -0.5146
 6260TIP3    H240272   2.801   1.744   6.972  0.1298 -0.5111 -1.1204
 6261TIP3   OH240273   6.417   4.766  16.272  0.5416 -0.6688  0.0223
 6261TIP3    H140274   6.491   4.743  16.215 -1.0654 -2.5151 -1.4589
 6261TIP3    H240275   6.350   4.799  16.212 -0.1794  0.1217  1.2258
 6262TIP3   OH240276   3.508   0.530  15.821  0.0674 -0.1776  0.1680
 6262TIP3    H140277   3.522   0.621  15.845  1.6317 -0.3896  0.1703
 6262TIP3    H240278   3.521   0.482  15.903 -0.8473 -0.3946  0.1861
 6263TIP3   OH240279   6.545   3.364   2.592  0.2244  0.0822 -0.2017
 6263TIP3    H140280   6.574   3.455   2.602 -0.8809  0.3295  1.0617
 6263TIP3    H240281   6.608   3.326   2.531  1.6960  1.2437  0.5145
 6264TIP3   OH240282   3.112   0.934  15.825 -0.1318  0.0921 -0.4727
 6264TIP3    H140283   3.200   0.961  15.801 -0.1389  1.6668  1.0649
 6264TIP3    H240284   3.055   1.004  15.793 -0.5316  0.3199  0.6663
 6265TIP3   OH240285   4.238   2.424  12.110  0.1900  0.3622  0.6750
 6265TIP3    H140286   4.204   2.376  12.185 -0.4393  1.4065  1.0781
 6265TIP3    H240287   4.303   2.365  12.071 -0.1531 -0.5715  1.4742
 6266TIP3   OH240288   3.811   3.350   3.315 -0.3904 -0.5917  0.6690
 6266TIP3    H140289   3.890   3.403   3.308 -0.2859 -0.7589  0.5735
 6266TIP3    H240290   3.742   3.401   3.273 -0.3180 -0.4767  0.6921
 6267TIP3   OH240291   2.348   3.046  12.955 -0.0822  0.2876  0.8271
 6267TIP3    H140292   2.282   3.099  12.912  0.2413 -0.1823 -0.2917
 6267TIP3    H240293   2.411   3.024  12.886  1.3529  0.8625  1.8777
 6268TIP3   OH240294   2.693   0.508   2.904  0.1041  0.7220 -0.8736
 6268TIP3    H140295   2.699   0.454   2.825 -1.4584 -0.1338 -0.4560
 6268TIP3    H240296   2.599   0.528   2.912  0.4808  2.4583 -0.3014
 6269TIP3   OH240297   5.531   5.431   4.607  0.0869  0.2251 -0.2244
 6269TIP3    H140298   5.469   5.358   4.608  0.6684 -0.3634  2.6767
 6269TIP3    H240299   5.598   5.405   4.543 -1.0166 -0.5552 -1.1018
 6270TIP3   OH240300   0.595   1.723   3.717  0.8138  0.2386 -0.0747
 6270TIP3    H140301   0.573   1.645   3.768  1.4061 -0.7589 -1.2861
 6270TIP3    H240302   0.511   1.763   3.695  0.5670  1.2959  2.5230
 6271TIP3   OH240303   5.379   1.510   6.600  0.3020  0.2750 -0.6462
 6271TIP3    H140304   5.423   1.539   6.680 -0.4713 -0.9146  0.2413
 6271TIP3    H240305   5.369   1.590   6.548  0.6930  1.0972  0.5003
 6272TIP3   OH240306   5.264   6.535  15.600  0.6099 -0.1239  0.0521
 6272TIP3    H140307   5.305   6.552  15.685 -1.8597 -1.4051  1.6188
 6272TIP3    H240308   5.236   6.622  15.570  1.2562  0.3155  0.6728
 6273TIP3   OH240309   0.432   4.017   0.242  0.2885  0.0815  0.4051
 6273TIP3    H140310   0.513   4.015   0.191  1.0019  3.1256  1.2422
 6273TIP3    H240311   0.453   3.968   0.322  1.2781  0.7360  0.5582
 6274TIP3   OH240312   3.912   6.512   3.206 -0.2225 -0.1403 -0.0209
 6274TIP3    H140313   3.859   6.444   3.164 -0.2180  1.8988 -3.7052
 6274TIP3    H240314   3.856   6.545   3.277 -0.8129 -2.8279  0.8891
 6275TIP3   OH240315   5.920   5.385   3.405  0.0781 -0.0468  0.0637
 6275TIP3    H140316   5.880   5.342   3.480 -1.8659  0.7923 -0.4235
 6275TIP3    H240317   5.922   5.317   3.337  0.2876 -0.3419  0.3617
 6276TIP3   OH240318   4.499   3.401   3.919 -0.0520 -0.3895  0.0131
 6276TIP3    H140319   4.582   3.430   3.881  0.8543 -1.8680  0.7827
 6276TIP3    H240320   4.490   3.453   3.999  0.6755 -0.9643  0.4763
 6277TIP3   OH240321   3.235   4.314  15.769 -0.1961 -0.1469 -0.1415
 6277TIP3    H140322   3.214   4.235  15.820 -1.8104  0.6983  0.5923
 6277TIP3    H240323   3.298   4.361  15.823 -0.3429 -0.2291  0.1026
 6278TIP3   OH240324   3.216   6.417   4.163 -0.0885  0.6080  0.2931
 6278TIP3    H140325   3.283   6.436   4.098  0.2569 -1.5232 -0.0710
 6278TIP3    H240326   3.215   6.321   4.168  0.0769  0.6778  3.6078
 6279TIP3   OH240327   1.697   5.946  17.236  0.2398 -0.0569  0.4233
 6279TIP3    H140328   1.750   5.875  17.201  0.4781 -0.1669  0.9980
 6279TIP3    H240329   1.757   5.997  17.291 -0.2860 -0.3147  1.2595
 6280TIP3   OH240330   6.637   4.578   5.133 -0.3448 -0.2681 -0.4326
 6280TIP3    H140331   6.629   4.672   5.151  0.0477 -0.1746 -0.7254
 6280TIP3    H240332   6.647   4.538   5.219 -0.1842 -0.0048 -0.3271
 6281TIP3   OH240333   6.142   0.000  12.519  0.3553  0.2463 -0.7164
 6281TIP3    H140334   6.051  -0.027  12.508  0.6065 -0.9363 -0.0324
 6281TIP3    H240335   6.192  -0.082  12.520  1.3790  0.8487 -0.5980
 6282TIP3   OH240336   3.072   3.803   1.235  0.3387  0.5190  0.4124
 6282TIP3    H140337   3.053   3.837   1.148  1.3102  0.7069  0.2733
 6282TIP3    H240338   3.164   3.780   1.233  0.1689 -0.2833  1.1264
 6283TIP3   OH240339   3.323   4.720  14.507 -0.0974  0.6462 -0.1529
 6283TIP3    H140340   3.333   4.625  14.505  1.2753  0.6421  2.6117
 6283TIP3    H240341   3.329   4.744  14.599  1.6751  3.6087 -0.8799
 6284TIP3   OH240342   5.622   4.020   0.471  0.0178  0.7372 -0.0666
 6284TIP3    H140343   5.601   4.113   0.469 -0.1479  0.7088  0.3303
 6284TIP3    H240344   5.698   4.011   0.414  0.1858  1.1544  0.0900
 6285TIP3   OH240345   4.194   6.385  11.688  0.6360  0.2985  0.3043
 6285TIP3    H140346   4.173   6.297  11.720  1.9765 -0.3817 -0.5653
 6285TIP3    H240347   4.241   6.426  11.761 -0.8885  0.6978  1.0941
 6286TIP3   OH240348   2.684   2.587  13.915 -0.6890 -0.5645  0.0317
 6286TIP3    H140349   2.684   2.536  13.834 -1.8699  0.6869 -0.8197
 6286TIP3    H240350   2.597   2.571  13.952  0.4857 -2.6382  2.1196
 6287TIP3   OH240351   6.451   1.592  12.321 -0.0050 -0.3419 -0.1101
 6287TIP3    H140352   6.395   1.524  12.286  0.6523 -0.4879 -0.9033
 6287TIP3    H240353   6.504   1.620  12.247  0.6025  0.1566  0.5008
 6288TIP3   OH240354   4.813   2.988   6.262  0.0774 -0.3334 -0.3793
 6288TIP3    H140355   4.806   2.996   6.357  1.2710 -1.4610 -0.1746
 6288TIP3    H240356   4.762   3.062   6.228 -0.4818  0.0067  1.1204
 6289TIP3   OH240357   6.424   4.259   5.235  0.7983  0.1889  0.1767
 6289TIP3    H140358   6.375   4.178   5.246  1.7654 -0.3241  0.9309
 6289TIP3    H240359   6.416   4.280   5.142  0.6262 -0.8447 -0.0581
 6290TIP3   OH240360   2.388   3.246   1.988  0.1187 -0.2756  0.1663
 6290TIP3    H140361   2.434   3.302   2.051 -1.1751 -0.5130  1.3734
 6290TIP3    H240362   2.305   3.291   1.972 -0.4985 -1.3215  0.3534
 6291TIP3   OH240363   0.890   1.154  14.969  0.1703  0.1497  0.2434
 6291TIP3    H140364   0.969   1.170  14.917  0.4372  0.0804  0.6201
 6291TIP3    H240365   0.821   1.140  14.905  0.6798 -0.8702 -0.1059
 6292TIP3   OH240366   3.100   5.750  13.886  0.1666  0.0542 -0.0972
 6292TIP3    H140367   3.109   5.673  13.941  0.1613 -0.0253 -0.2064
 6292TIP3    H240368   3.137   5.723  13.802 -1.9591 -0.6416 -0.9038
 6293TIP3   OH240369   0.810   5.805   2.701  0.5266  0.6803 -0.0706
 6293TIP3    H140370   0.843   5.826   2.788  1.9959  1.4285 -0.7716
 6293TIP3    H240371   0.715   5.799   2.712  0.6760  0.8902  1.5440
 6294TIP3   OH240372   3.166   1.497  13.596  0.1226 -0.3973 -0.2864
 6294TIP3    H140373   3.155   1.512  13.502  1.4126 -0.4210 -0.4637
 6294TIP3    H240374   3.248   1.449  13.603 -0.4719 -1.2967  0.7914
 6295TIP3   OH240375   4.842   0.856  10.720  0.1786 -0.5328  0.7974
 6295TIP3    H140376   4.800   0.874  10.636 -2.1036 -0.5369  1.8426
 6295TIP3    H240377   4.921   0.910  10.719  0.3167 -0.6736 -1.3922
 6296TIP3   OH240378   2.195   4.933   4.208 -0.5929 -0.2867 -0.4139
 6296TIP3    H140379   2.227   5.007   4.259  0.4413 -0.0396 -1.3884
 6296TIP3    H240380   2.102   4.953   4.194 -0.9490 -0.4416  1.4531
 6297TIP3   OH240381   1.909   3.093   2.497  0.4118 -0.5618  0.1352
 6297TIP3    H140382   1.936   3.003   2.481  0.5048 -0.5732  0.3426
 6297TIP3    H240383   1.954   3.144   2.430  0.2927 -0.6788 -0.0343
 6298TIP3   OH240384   6.204   1.583  13.125  0.0381 -0.3134  0.1551
 6298TIP3    H140385   6.123   1.616  13.086  0.2995 -0.2961 -0.3761
 6298TIP3    H240386   6.220   1.500  13.081  1.6183  0.8175 -1.5453
 6299TIP3   OH240387   0.321   0.640  11.796  0.4290  0.2497  0.1717
 6299TIP3    H140388   0.307   0.732  11.819  0.6984  0.4505 -0.4313
 6299TIP3    H240389   0.239   0.597  11.819 -0.8271  1.1692 -2.1436
 6300TIP3   OH240390   3.074   3.977   1.785  0.4196  0.2302  0.3736
 6300TIP3    H140391   3.124   4.059   1.783  0.9979 -0.1172  0.3157
 6300TIP3    H240392   2.997   3.994   1.731  0.2526  0.9153  0.8216
 6301TIP3   OH240393   3.582   6.618  14.597  0.3042 -0.5150  0.0304
 6301TIP3    H140394   3.667   6.573  14.592  1.3755  1.3347  0.6682
 6301TIP3    H240395   3.526   6.558  14.646  1.2221 -1.7990 -0.4370
 6302TIP3   OH240396   3.211   3.799   4.457 -0.0203 -0.1828 -0.1776
 6302TIP3    H140397   3.196   3.730   4.521 -2.1900 -0.0448 -0.4663
 6302TIP3    H240398   3.228   3.753   4.375 -0.8632 -0.3980 -0.2411
 6303TIP3   OH240399   6.319   3.616   3.574  0.2803 -0.0840  0.1122
 6303TIP3    H140400   6.294   3.677   3.644 -1.1002  0.3631 -0.7409
 6303TIP3    H240401   6.353   3.672   3.505  0.2066 -0.3885 -0.1711
 6304TIP3   OH240402   6.286   3.072   1.291  0.1200  0.4370 -0.3295
 6304TIP3    H140403   6.330   3.069   1.376  0.6007 -0.1028 -0.5918
 6304TIP3    H240404   6.200   3.109   1.309 -0.3709 -1.1426  0.6441
 6305TIP3   OH240405   0.578   4.700  11.955 -0.1789  0.3183  0.1198
 6305TIP3    H140406   0.582   4.653  11.871 -0.7331  0.3194  0.0840
 6305TIP3    H240407   0.609   4.637  12.020  1.3571  0.6894 -0.2198
 6306TIP3   OH240408   3.145   6.038  14.072 -0.5561 -0.6540 -0.7620
 6306TIP3    H140409   3.199   5.959  14.064 -0.4426 -0.5031 -1.5908
 6306TIP3    H240410   3.082   6.031  14.000 -0.6028 -0.0350 -0.7848
 6307TIP3   OH240411   5.665   4.889  16.831 -0.1508 -0.1446 -0.2820
 6307TIP3    H140412   5.751   4.906  16.869 -0.0827  1.2792 -0.9954
 6307TIP3    H240413   5.665   4.796  16.809  0.7929 -0.3952  0.7159
 6308TIP3   OH240414   2.201   5.236   6.464 -0.5153 -0.2338  0.1759
 6308TIP3    H140415   2.128   5.255   6.522 -0.3903 -2.2194  1.0693
 6308TIP3    H240416   2.195   5.302   6.395 -2.3291  0.4645  0.9438
 6309TIP3   OH240417   6.685   3.345   5.347 -0.3643  0.0655  0.2501
 6309TIP3    H140418   6.768   3.391   5.336 -0.7731  0.7170 -0.1902
 6309TIP3    H240419   6.682   3.322   5.440 -0.4414  1.5290  0.6311
 6310TIP3   OH240420   6.752   2.145   5.477  0.2291 -0.4572 -0.3664
 6310TIP3    H140421   6.813   2.185   5.415 -0.0585 -0.0153 -0.3623
 6310TIP3    H240422   6.792   2.158   5.563 -0.1087  0.2651 -0.3169
 6311TIP3   OH240423   2.763   4.731   2.102  0.0439  0.1402 -0.0584
 6311TIP3    H140424   2.814   4.794   2.052  0.1762  1.7826  2.0115
 6311TIP3    H240425   2.676   4.732   2.061  0.5498  0.2842 -1.1575
 6312TIP3   OH240426   1.861   3.171   5.221 -0.6694  0.8765 -0.3758
 6312TIP3    H140427   1.957   3.173   5.222 -0.6669  0.7886 -0.6136
 6312TIP3    H240428   1.836   3.261   5.202 -0.6456  1.1227  0.6779
 6313TIP3   OH240429   1.100   5.434  12.332  0.7688 -0.5717 -0.1315
 6313TIP3    H140430   1.020   5.391  12.363  0.4881 -0.6043 -0.8694
 6313TIP3    H240431   1.171   5.377  12.360  0.4244 -1.3187 -0.7639
 6314TIP3   OH240432   4.646   6.299  14.072  0.1919 -0.2834 -0.1226
 6314TIP3    H140433   4.596   6.339  14.001  0.4372  0.3954  0.0843
 6314TIP3    H240434   4.686   6.372  14.118 -2.1267 -0.4292  2.4118
 6315TIP3   OH240435   3.502   3.149   0.932 -0.2315  0.3528  0.2196
 6315TIP3    H140436   3.553   3.106   0.864  0.0526  0.9782  0.0320
 6315TIP3    H240437   3.504   3.088   1.006  0.9295  0.4378  0.2766
 6316TIP3   OH240438   0.977   4.713  14.872  0.0651 -0.1201 -0.1917
 6316TIP3    H140439   1.063   4.687  14.902 -0.5741 -0.2271  1.6685
 6316TIP3    H240440   0.930   4.631  14.857 -0.2454 -0.0843  0.5087
 6317TIP3   OH240441   5.023   5.496   2.204 -0.5186 -0.2732  1.0899
 6317TIP3    H140442   5.077   5.484   2.126 -1.6690 -1.1924  0.3921
 6317TIP3    H240443   5.085   5.518   2.273  0.5564  0.2877 -0.0176
 6318TIP3   OH240444   6.635   3.479  17.190  0.3054 -0.7640  0.2927
 6318TIP3    H140445   6.648   3.465  17.096 -0.2015 -2.3700  0.4243
 6318TIP3    H240446   6.710   3.434  17.231  2.1435  2.3019  0.6467
 6319TIP3   OH240447   5.267   1.475  11.530  0.4651  0.1556 -0.1494
 6319TIP3    H140448   5.330   1.547  11.520  3.2942 -2.1933 -0.6404
 6319TIP3    H240449   5.235   1.459  11.441  1.7171 -0.6699 -0.4889
 6320TIP3   OH240450   4.198   1.360  12.765  0.1255  0.2624  0.4536
 6320TIP3    H140451   4.181   1.417  12.690  1.7004  0.3641  0.1373
 6320TIP3    H240452   4.257   1.412  12.820 -1.2459  0.3218  1.9556
 6321TIP3   OH240453   6.374   4.398   4.269 -0.2782  0.3892 -0.4547
 6321TIP3    H140454   6.344   4.413   4.358  0.4410  0.0773 -0.1548
 6321TIP3    H240455   6.293   4.383   4.219 -0.7599  1.5534 -0.0623
 6322TIP3   OH240456   2.554   0.371   3.903  0.3881  0.1443  0.2158
 6322TIP3    H140457   2.555   0.460   3.867  1.9960 -0.9206 -2.6351
 6322TIP3    H240458   2.480   0.329   3.859  0.6425 -0.3857  0.2925
 6323TIP3   OH240459   3.758   6.420  13.601 -0.2274  0.2702 -0.5317
 6323TIP3    H140460   3.848   6.413  13.632 -0.4024 -1.1819 -0.2797
 6323TIP3    H240461   3.764   6.474  13.522  0.6396  1.4554  0.3099
 6324TIP3   OH240462   2.858   5.260   0.864  0.5102  0.3000  0.4868
 6324TIP3    H140463   2.809   5.265   0.781  2.1048 -0.0096 -0.5090
 6324TIP3    H240464   2.790   5.260   0.931 -0.8296  0.7065 -0.8049
 6325TIP3   OH240465   4.972   1.774  12.855 -0.1825 -0.2673  0.0094
 6325TIP3    H140466   4.988   1.680  12.858  1.7640  0.0566  2.0141
 6325TIP3    H240467   5.054   1.811  12.823 -0.9443  0.7992 -0.8199
 6326TIP3   OH240468   1.214   3.719  13.718 -0.0144  0.3737 -0.0555
 6326TIP3    H140469   1.221   3.767  13.636 -2.0373 -1.3622 -1.3765
 6326TIP3    H240470   1.281   3.651  13.712  0.7800  1.0984  0.4085
 6327TIP3   OH240471   3.280   2.308  14.296  0.1423  0.2911 -0.2951
 6327TIP3    H140472   3.186   2.318  14.313 -0.5553  0.5760 -3.6530
 6327TIP3    H240473   3.312   2.257  14.370 -2.7902 -0.4227  0.6282
 6328TIP3   OH240474   3.536   1.465  14.067  0.5246 -0.3326 -0.1371
 6328TIP3    H140475   3.624   1.485  14.099  0.4709  1.4352 -0.9938
 6328TIP3    H240476   3.485   1.542  14.088 -0.0386 -0.0200 -2.4616
 6329TIP3   OH240477   5.234   2.004  15.208  0.1837  0.2910 -0.0724
 6329TIP3    H140478   5.209   2.092  15.181  2.2615  0.6852 -0.9346
 6329TIP3    H240479   5.330   2.008  15.215  0.1921 -1.4397  1.5882
 6330TIP3   OH240480   2.027   5.350  15.697 -0.4073  0.1577 -0.1018
 6330TIP3    H140481   2.091   5.417  15.672  0.7950 -0.8448  0.1441
 6330TIP3    H240482   1.944   5.381  15.663  0.2589  1.3976 -0.6520
 6331TIP3   OH240483   0.530   0.338  17.119  0.5640 -0.1930 -0.1148
 6331TIP3    H140484   0.443   0.307  17.093  0.6363  0.6152 -1.3874
 6331TIP3    H240485   0.566   0.379  17.040  2.6873 -1.7446 -0.0713
 6332TIP3   OH240486   4.223   3.805  14.400  0.0700 -0.5256  0.0792
 6332TIP3    H140487   4.257   3.716  14.402 -0.5662 -0.7619  1.0991
 6332TIP3    H240488   4.298   3.860  14.423 -0.0207 -0.9841  1.5993
 6333TIP3   OH240489   0.232   2.676   2.998  0.2293  0.3091 -0.6867
 6333TIP3    H140490   0.197   2.589   3.020  0.5561  0.1563 -0.7622
 6333TIP3    H240491   0.302   2.658   2.936 -0.1766  0.6841 -1.2572
 6334TIP3   OH240492   5.984   1.082  16.227 -0.1355 -0.6896  0.0064
 6334TIP3    H140493   6.035   1.082  16.145 -0.6339 -2.5197 -0.3382
 6334TIP3    H240494   5.956   0.992  16.238  0.6691 -0.6902  2.7172
 6335TIP3   OH240495   6.462   1.965  11.996  0.0619 -0.0678  0.3660
 6335TIP3    H140496   6.370   1.941  12.001  0.6382 -2.3148  1.1040
 6335TIP3    H240497   6.463   2.040  11.936 -1.8360 -2.5389 -3.1527
 6336TIP3   OH240498   4.108   5.448  17.339  0.0840 -0.2950  0.1589
 6336TIP3    H140499   4.120   5.504  17.263 -0.2660 -0.6219 -0.1410
 6336TIP3    H240500   4.197   5.427  17.369  0.2183  0.6055  0.4156
 6337TIP3   OH240501   5.715   2.950   4.300  0.1421 -0.1624  0.2393
 6337TIP3    H140502   5.669   2.962   4.217  1.2954  0.8925 -0.2726
 6337TIP3    H240503   5.645   2.937   4.364 -0.8018 -0.0252 -0.7349
 6338TIP3   OH240504   0.546   6.332  14.281  0.0013 -0.7068 -0.3777
 6338TIP3    H140505   0.576   6.351  14.192  2.4253  1.2474  0.7226
 6338TIP3    H240506   0.473   6.392  14.295  1.5205  1.1812 -0.1408
 6339TIP3   OH240507   4.830   2.577  12.147 -0.4034  0.1065 -0.0007
 6339TIP3    H140508   4.778   2.567  12.227  1.0054 -1.2485  0.7996
 6339TIP3    H240509   4.902   2.635  12.173  0.5892 -1.1063  0.0093
 6340TIP3   OH240510   2.032   4.304   0.251  0.4730  0.2947 -0.4588
 6340TIP3    H140511   2.106   4.248   0.277  0.7210  0.7026 -0.2718
 6340TIP3    H240512   2.019   4.362   0.326 -1.5089 -1.2355  0.4724
 6341TIP3   OH240513   5.173   3.517  15.723 -0.0939 -0.0233  0.0064
 6341TIP3    H140514   5.098   3.514  15.663 -1.2250 -3.8010  1.3581
 6341TIP3    H240515   5.240   3.464  15.680  1.1059  1.5328 -0.1644
 6342TIP3   OH240516   1.014   3.156  12.202 -0.0071 -0.1507  0.3414
 6342TIP3    H140517   0.935   3.199  12.235 -1.0272 -1.1055 -0.7807
 6342TIP3    H240518   0.982   3.083  12.150  1.5695  0.3615 -1.4502
 6343TIP3   OH240519   5.901   1.977   4.332  0.5308 -0.0313  0.0651
 6343TIP3    H140520   5.807   1.991   4.322  0.6609  1.7008  0.7824
 6343TIP3    H240521   5.908   1.905   4.395 -0.2773 -1.1191 -1.0405
 6344TIP3   OH240522   6.693   2.005  12.129 -0.4487  0.1696 -0.1961
 6344TIP3    H140523   6.606   1.998  12.091 -1.3659  0.3134  1.8014
 6344TIP3    H240524   6.744   2.050  12.062 -0.9071 -2.9233 -2.9185
 6345TIP3   OH240525   1.649   4.592   0.603 -1.0068  0.1127  0.2591
 6345TIP3    H140526   1.638   4.555   0.515  0.2933 -0.7296  0.4196
 6345TIP3    H240527   1.600   4.533   0.660  1.5433 -1.8810  0.5946
 6346TIP3   OH240528   1.504   4.698  15.033  0.6876  0.5340  0.3078
 6346TIP3    H140529   1.525   4.606  15.050  1.0378  0.6999  0.8157
 6346TIP3    H240530   1.477   4.732  15.119  0.1246  0.7931  0.0324
 6347TIP3   OH240531   6.461   4.341   4.658 -0.2413 -0.1648  0.0939
 6347TIP3    H140532   6.369   4.367   4.654  0.1947  1.4525 -0.0422
 6347TIP3    H240533   6.459   4.246   4.650 -1.7542 -0.0019 -2.2648
 6348TIP3   OH240534   5.446   0.118   6.056  0.4586  0.2341 -0.0465
 6348TIP3    H140535   5.515   0.144   5.994  0.9396 -0.5557  0.1462
 6348TIP3    H240536   5.462   0.173   6.133  1.2382 -0.3517  0.2186
 6349TIP3   OH240537   4.814   3.146   2.159  0.6046 -0.3251  0.2457
 6349TIP3    H140538   4.838   3.193   2.239 -0.0589  0.0171  0.2494
 6349TIP3    H240539   4.896   3.140   2.110  1.0269 -0.5534  0.9511
 6350TIP3   OH240540   2.832   2.003   2.053  0.4660  0.6719 -0.5225
 6350TIP3    H140541   2.833   2.099   2.055 -0.1043  0.6748 -0.0886
 6350TIP3    H240542   2.769   1.979   2.120  0.0226  0.0028 -1.1727
 6351TIP3   OH240543   1.823   6.519  11.307  0.1987  0.3634  0.3221
 6351TIP3    H140544   1.851   6.433  11.339 -2.8404 -1.3484 -1.1388
 6351TIP3    H240545   1.863   6.526  11.221 -0.2274 -0.0114  0.0882
 6352TIP3   OH240546   3.937   5.251   5.222  0.0809 -0.0570  0.2033
 6352TIP3    H140547   3.951   5.157   5.228  0.6261 -0.0843 -1.1966
 6352TIP3    H240548   3.905   5.266   5.133 -3.9399  0.6490  1.5466
 6353TIP3   OH240549   0.840   0.848  11.690 -0.3678  0.1014  0.3706
 6353TIP3    H140550   0.868   0.864  11.780  0.2342  0.1092  0.1874
 6353TIP3    H240551   0.876   0.762  11.669 -1.7571 -0.5702  0.6237
 6354TIP3   OH240552   2.884   5.855   6.319  0.4694  0.6991  0.0053
 6354TIP3    H140553   2.820   5.801   6.365 -0.9445  1.6791 -0.7167
 6354TIP3    H240554   2.926   5.907   6.388  1.8183 -1.2005  0.7036
 6355TIP3   OH240555   1.488   2.411   4.643  0.3085 -0.6172 -0.7399
 6355TIP3    H140556   1.432   2.459   4.704 -0.5644 -2.7345  0.2167
 6355TIP3    H240557   1.577   2.424   4.678  0.6916  3.3062 -2.6425
 6356TIP3   OH240558   0.910   2.908   2.521  0.1038  0.5074  0.4922
 6356TIP3    H140559   0.996   2.881   2.488 -0.0907 -0.2239  0.5729
 6356TIP3    H240560   0.862   2.935   2.442 -1.3598 -3.8958 -0.4331
 6357TIP3   OH240561   0.068   1.325  10.940  0.3665  0.4151  0.1284
 6357TIP3    H140562   0.023   1.300  10.859 -0.1045 -0.1343  0.5526
 6357TIP3    H240563   0.049   1.419  10.949  0.1571  0.4103 -0.2297
 6358TIP3   OH240564   6.349   3.733  11.795 -1.1371  0.3911  0.2878
 6358TIP3    H140565   6.266   3.725  11.748 -1.0285  2.4602 -0.3576
 6358TIP3    H240566   6.413   3.756  11.727  0.1589 -1.8798  0.6532
 6359TIP3   OH240567   1.740   4.108  13.856  0.6102  0.5196 -0.3651
 6359TIP3    H140568   1.729   4.194  13.898  1.2832  0.7551 -0.6484
 6359TIP3    H240569   1.829   4.081  13.881  0.7523  0.3411 -1.0580
 6360TIP3   OH240570   0.211   2.053  14.898 -0.4331  0.6844 -0.1356
 6360TIP3    H140571   0.215   2.100  14.981 -3.3251 -0.6413  0.8960
 6360TIP3    H240572   0.143   2.099  14.847 -0.4939 -0.0121 -0.7065
 6361TIP3   OH240573   4.063   0.589  13.373 -0.0320 -0.2227 -0.4393
 6361TIP3    H140574   4.149   0.615  13.408  0.0651  1.3582 -1.7532
 6361TIP3    H240575   4.001   0.649  13.416 -0.1305  0.4805 -1.5330
 6362TIP3   OH240576   4.831   3.286   1.237 -0.2568  0.7241  0.1435
 6362TIP3    H140577   4.919   3.253   1.224  0.0002  2.0602 -1.8831
 6362TIP3    H240578   4.838   3.341   1.316  0.4636  0.0510  0.5651
 6363TIP3   OH240579   6.343   1.335   4.130 -0.1555  0.2485  0.2832
 6363TIP3    H140580   6.389   1.397   4.073  1.9855  0.0981  1.7516
 6363TIP3    H240581   6.338   1.254   4.079  1.9642  0.0337  0.3481
 6364TIP3   OH240582   6.316   3.212   6.232 -0.3069 -0.5710 -0.7374
 6364TIP3    H140583   6.409   3.230   6.225 -0.9162  2.2584 -4.1669
 6364TIP3    H240584   6.285   3.272   6.300  0.1852 -0.8613 -0.2450
 6365TIP3   OH240585   2.650   2.789   0.140 -0.5435  0.3583 -0.1995
 6365TIP3    H140586   2.559   2.787   0.111 -0.1602  1.2498 -1.5808
 6365TIP3    H240587   2.673   2.882   0.137  1.3399 -0.0748 -3.0691
 6366TIP3   OH240588   5.371   3.155   4.654  0.1139  0.2604  0.0166
 6366TIP3    H140589   5.299   3.092   4.655 -0.7085  1.1090 -1.9049
 6366TIP3    H240590   5.330   3.239   4.671  0.8507  0.6009  0.1490
 6367TIP3   OH240591   4.318   6.382   1.789 -0.3118 -0.8542 -0.4551
 6367TIP3    H140592   4.383   6.451   1.797  0.8892 -2.0767  0.7433
 6367TIP3    H240593   4.264   6.409   1.714  0.8459  0.7605 -0.7588
 6368TIP3   OH240594   6.218   3.224   3.208  0.2114  0.7414 -0.2312
 6368TIP3    H140595   6.242   3.138   3.172 -0.3596  0.8162 -0.8149
 6368TIP3    H240596   6.163   3.263   3.140  0.5970  1.6383 -0.0289
 6369TIP3   OH240597   0.436   0.526  10.834 -0.4318 -0.1176  0.3396
 6369TIP3    H140598   0.399   0.441  10.814 -2.3388  0.7632 -0.1400
 6369TIP3    H240599   0.365   0.588  10.816  0.8073  1.5514  0.9016
 6370TIP3   OH240600   5.142   0.895   1.449 -0.2364 -0.4263 -0.1998
 6370TIP3    H140601   5.167   0.963   1.511  0.6594 -0.7980 -0.1237
 6370TIP3    H240602   5.055   0.919   1.419 -0.7497 -0.3092  1.3049
 6371TIP3   OH240603   1.944   2.686   2.651 -0.3766 -0.2581  0.2582
 6371TIP3    H140604   1.936   2.591   2.638  0.7306 -0.4078  0.6313
 6371TIP3    H240605   1.856   2.713   2.678 -0.3805 -1.3986  1.5071
 6372TIP3   OH240606   5.150   2.929  16.164 -0.1467  0.4453 -0.0860
 6372TIP3    H140607   5.131   2.895  16.252 -0.5809  2.2504  0.5678
 6372TIP3    H240608   5.131   2.856  16.105 -0.4798 -0.6028  1.2738
 6373TIP3   OH240609   2.276   5.626   6.042  0.1147 -0.1032 -0.1496
 6373TIP3    H140610   2.181   5.619   6.051 -0.1093 -0.2247 -2.0662
 6373TIP3    H240611   2.303   5.545   5.999  1.1320 -0.1597  0.5528
 6374TIP3   OH240612   2.719   5.813  12.128 -0.1088 -0.0902  0.9333
 6374TIP3    H140613   2.779   5.843  12.196 -0.0678 -0.0354  0.8728
 6374TIP3    H240614   2.653   5.761  12.175  0.5835 -1.0672  0.8703
 6375TIP3   OH240615   0.394   2.833   3.447  0.1880  0.6858 -0.7717
 6375TIP3    H140616   0.342   2.910   3.467 -1.0539 -0.0751 -0.9627
 6375TIP3    H240617   0.424   2.802   3.533 -0.4226  0.6431 -0.5644
 6376TIP3   OH240618   0.539   3.816  11.823 -0.1638  0.3212  0.2547
 6376TIP3    H140619   0.449   3.785  11.831 -0.7865  1.4204 -1.6400
 6376TIP3    H240620   0.542   3.895  11.877 -0.3954  0.3624  0.2102
 6377TIP3   OH240621   6.288   5.243   2.909 -0.2003 -0.3594  0.0866
 6377TIP3    H140622   6.336   5.193   2.842  0.0057  0.4632 -0.3900
 6377TIP3    H240623   6.301   5.193   2.989  2.3956  0.3684  0.2081
 6378TIP3   OH240624   2.587   1.988   4.579 -0.1186 -0.1489  0.2421
 6378TIP3    H140625   2.609   1.896   4.571 -0.2718 -0.1488 -0.1791
 6378TIP3    H240626   2.656   2.025   4.634  2.2405  0.3109 -2.7862
 6379TIP3   OH240627   3.913   6.241   4.347 -0.6825  0.2466 -0.4743
 6379TIP3    H140628   3.963   6.178   4.398 -4.1088 -1.6935  0.8084
 6379TIP3    H240629   3.902   6.201   4.261 -1.7037 -0.3505 -0.0883
 6380TIP3   OH240630   2.251   4.596   4.589 -0.0025  0.1614  0.1952
 6380TIP3    H140631   2.194   4.527   4.620  0.2278 -0.4978 -0.7963
 6380TIP3    H240632   2.194   4.673   4.581 -0.8659 -0.5720 -1.1229
 6381TIP3   OH240633   1.039   5.826  12.970 -0.0791 -0.3404  0.3884
 6381TIP3    H140634   0.964   5.884  12.979 -0.9308 -1.5773  1.9692
 6381TIP3    H240635   1.070   5.813  13.060  0.9342 -1.2315 -0.0562
 6382TIP3   OH240636   1.063   5.568   4.969 -0.5022 -0.2868  0.4898
 6382TIP3    H140637   1.062   5.473   4.979  0.1100 -0.2677  0.7670
 6382TIP3    H240638   1.004   5.585   4.895  1.0386 -1.0512 -0.9767
 6383TIP3   OH240639   5.175   6.701  14.518 -0.0492 -0.1909  0.1205
 6383TIP3    H140640   5.201   6.766  14.584 -1.2218 -0.1155  0.5415
 6383TIP3    H240641   5.257   6.667  14.484  0.6308 -1.0673  2.4334
 6384TIP3   OH240642   4.147   6.361   3.217  0.3815 -0.3108 -0.2751
 6384TIP3    H140643   4.158   6.338   3.125  0.6927 -0.0015 -0.3228
 6384TIP3    H240644   4.125   6.454   3.216  0.0034 -0.3976 -0.0552
 6385TIP3   OH240645   4.623   0.848   1.122  0.2303  0.2959  0.0374
 6385TIP3    H140646   4.582   0.821   1.040  3.1226 -2.4005 -0.7218
 6385TIP3    H240647   4.567   0.812   1.190 -0.8618  0.3595 -0.8005
 6386TIP3   OH240648   4.331   5.866  15.134  0.3803 -0.4875  0.0906
 6386TIP3    H140649   4.339   5.943  15.191  1.5543 -1.8769  1.9467
 6386TIP3    H240650   4.420   5.847  15.107  0.2091 -1.5655  0.2247
 6387TIP3   OH240651   4.328   0.381  14.654  0.8470  0.6945 -0.2741
 6387TIP3    H140652   4.385   0.310  14.624 -1.3703 -0.7045 -1.4560
 6387TIP3    H240653   4.374   0.419  14.729  2.8501 -0.9561 -0.5800
 6388TIP3   OH240654   5.421   3.211   5.020  0.0858 -0.0231  0.2131
 6388TIP3    H140655   5.413   3.302   5.048 -0.7524 -0.0145 -0.0204
 6388TIP3    H240656   5.472   3.169   5.090  0.7941  0.6941  0.1452
 6389TIP3   OH240657   2.467   0.725  13.346  0.4454  0.3031  0.6098
 6389TIP3    H140658   2.467   0.629  13.344  0.9208  0.3090 -0.0351
 6389TIP3    H240659   2.449   0.750  13.255  2.0334  0.8200  0.4096
 6390TIP3   OH240660   1.949   3.203  12.982 -0.8926 -0.3209  0.1768
 6390TIP3    H140661   1.914   3.284  13.018  2.1104  1.3257 -0.2435
 6390TIP3    H240662   1.976   3.152  13.059  3.1203  2.0533  0.6235
 6391TIP3   OH240663   5.372   1.589  16.848 -0.5288  0.3632  0.6089
 6391TIP3    H140664   5.355   1.652  16.919 -0.3898 -1.8435  2.7383
 6391TIP3    H240665   5.299   1.527  16.853 -0.6587  0.2793 -1.4206
 6392TIP3   OH240666   1.610   1.186  15.917 -0.2322 -0.1016 -0.3312
 6392TIP3    H140667   1.576   1.101  15.946 -1.5484 -0.2125 -2.0482
 6392TIP3    H240668   1.533   1.232  15.882  0.5352  1.6337  0.1471
 6393TIP3   OH240669   4.433   1.118   2.047 -0.5139  0.4688 -0.9336
 6393TIP3    H140670   4.424   1.186   1.980 -2.9601 -0.4924 -1.7038
 6393TIP3    H240671   4.525   1.092   2.044 -0.0062  2.2719 -2.0700
 6394TIP3   OH240672   2.631   0.824  13.866  0.3178  0.2382 -0.1942
 6394TIP3    H140673   2.539   0.852  13.868 -0.3342 -1.6472 -1.1187
 6394TIP3    H240674   2.635   0.763  13.792  2.7268  1.5311 -1.2325
 6395TIP3   OH240675   3.155   3.454  12.097  0.3944  0.0284  0.1652
 6395TIP3    H140676   3.136   3.410  12.013  1.7558  1.6068 -1.0357
 6395TIP3    H240677   3.249   3.472  12.094  0.9559 -1.7604  3.0329
 6396TIP3   OH240678   6.617   0.718  11.375 -0.4688  0.2449 -0.0590
 6396TIP3    H140679   6.704   0.758  11.366 -0.6380  0.5102 -0.5616
 6396TIP3    H240680   6.589   0.704  11.284 -1.2212  0.7251  0.1030
 6397TIP3   OH240681   0.142   3.030   5.435  0.2140  0.4072  0.1142
 6397TIP3    H140682   0.143   3.066   5.346 -1.6649  1.4065  0.4264
 6397TIP3    H240683   0.173   3.102   5.490 -0.7790  0.5931  0.4580
 6398TIP3   OH240684   3.961   6.528  11.676 -0.3885 -0.1975  0.0512
 6398TIP3    H140685   3.926   6.469  11.743  0.0833 -1.6020 -0.8675
 6398TIP3    H240686   4.054   6.505  11.671  0.1788  1.7518  0.7448
 6399TIP3   OH240687   1.145   4.424   1.718  0.1663 -0.0334  0.0244
 6399TIP3    H140688   1.223   4.386   1.759  0.4812  1.6676  1.0975
 6399TIP3    H240689   1.160   4.518   1.722 -0.1669  0.2551 -3.3643
 6400TIP3   OH240690   0.786   1.642   3.307  0.1110  0.4667  0.2115
 6400TIP3    H140691   0.842   1.670   3.380  0.7031 -0.0662 -0.0322
 6400TIP3    H240692   0.702   1.623   3.347  1.5250 -4.1231  1.6125
 6401TIP3   OH240693   0.603   6.222   6.449 -0.2564  0.1506  0.1661
 6401TIP3    H140694   0.581   6.143   6.499 -1.6477 -0.0157 -0.6580
 6401TIP3    H240695   0.522   6.244   6.403  0.5969  1.0968 -0.9266
 6402TIP3   OH240696   3.504   5.086   3.408  0.2297 -0.2610 -0.1672
 6402TIP3    H140697   3.430   5.040   3.448  0.2113  0.1977  0.3262
 6402TIP3    H240698   3.500   5.061   3.315 -0.4453 -0.3701 -0.1123
 6403TIP3   OH240699   1.949   0.651  11.621  0.6972 -0.7801  0.8327
 6403TIP3    H140700   1.977   0.562  11.600 -0.0558 -0.7586 -0.3932
 6403TIP3    H240701   1.886   0.673  11.552 -0.8425 -0.1264  2.3573
 6404TIP3   OH240702   5.612   3.620   1.652  0.0357 -0.1152 -0.4043
 6404TIP3    H140703   5.644   3.646   1.739  1.0845 -0.8357 -0.5576
 6404TIP3    H240704   5.640   3.691   1.594 -1.6971  0.9645 -0.0033
 6405TIP3   OH240705   5.036   3.377   4.887  0.7097 -0.1613 -0.1910
 6405TIP3    H140706   4.994   3.447   4.837  1.4495  1.2634  1.1181
 6405TIP3    H240707   5.032   3.406   4.978  2.2305 -1.1971  0.2460
 6406TIP3   OH240708   2.030   4.279  15.054  0.2094 -0.3171  0.5084
 6406TIP3    H140709   2.035   4.373  15.072  1.1581 -0.2790  0.1189
 6406TIP3    H240710   1.987   4.242  15.131  0.8192  0.3083  1.1698
 6407TIP3   OH240711   1.349   3.535   2.797  0.1927  0.8378 -0.0065
 6407TIP3    H140712   1.350   3.482   2.717 -1.1359 -0.9152  1.0587
 6407TIP3    H240713   1.424   3.505   2.847  0.7762  1.6324 -0.3860
 6408TIP3   OH240714   0.584   1.676  16.184 -0.6051 -0.1065  0.0253
 6408TIP3    H140715   0.596   1.648  16.094  0.4098 -0.4121  0.2415
 6408TIP3    H240716   0.648   1.625  16.234 -0.9029  0.3174  0.8673
 6409TIP3   OH240717   6.353   1.124  13.665  0.2704  0.4659  0.4647
 6409TIP3    H140718   6.325   1.039  13.698 -1.9894  0.9151 -0.1020
 6409TIP3    H240719   6.384   1.172  13.742  0.0444 -0.3019  1.0412
 6410TIP3   OH240720   4.283   2.543   5.982 -0.3631  0.2072  0.0419
 6410TIP3    H140721   4.213   2.586   5.934  0.3637  1.0997 -0.2602
 6410TIP3    H240722   4.361   2.556   5.928 -0.0781 -1.3526  0.0394
 6411TIP3   OH240723   0.810   3.979   4.226  0.4729 -0.6443 -0.0327
 6411TIP3    H140724   0.903   3.987   4.249  0.5998 -0.6254 -0.5213
 6411TIP3    H240725   0.789   3.887   4.243  0.2131 -0.3425  1.3634
 6412TIP3   OH240726   3.699   3.591   5.510  0.8742  0.5349  0.1579
 6412TIP3    H140727   3.616   3.638   5.507  0.4074 -0.1845  1.0653
 6412TIP3    H240728   3.758   3.641   5.454 -0.2385  0.9256 -0.7047
 6413TIP3   OH240729   4.194   6.489  16.151  0.1380  1.5335 -0.3422
 6413TIP3    H140730   4.261   6.525  16.094  0.3598  1.1324 -0.3337
 6413TIP3    H240731   4.227   6.403  16.176 -0.9515  0.7844 -1.3618
 6414TIP3   OH240732   2.754   2.544   1.695  0.3500  0.1268  0.2504
 6414TIP3    H140733   2.693   2.617   1.707  1.6215  1.0731  1.1736
 6414TIP3    H240734   2.761   2.534   1.600 -0.3656  0.7530  0.1205
 6415TIP3   OH240735   4.209   4.729  15.506  0.7269 -0.0278  0.1173
 6415TIP3    H140736   4.239   4.640  15.526 -1.3812 -0.6029  1.0231
 6415TIP3    H240737   4.207   4.773  15.591  0.6924  0.5246 -0.1682
 6416TIP3   OH240738   6.121   4.791  15.437  0.3699 -0.2471 -0.0546
 6416TIP3    H140739   6.084   4.878  15.424 -1.2382 -0.8289  0.4063
 6416TIP3    H240740   6.138   4.786  15.531  2.6304  0.3623 -0.3788
 6417TIP3   OH240741   3.196   5.408   5.610  0.3287  0.0865 -0.1468
 6417TIP3    H140742   3.246   5.338   5.568 -1.1256 -1.6606  0.8380
 6417TIP3    H240743   3.150   5.451   5.538  1.8199  0.5354 -0.8531
 6418TIP3   OH240744   3.234   4.394  12.921 -0.3336 -0.6537 -0.5092
 6418TIP3    H140745   3.265   4.485  12.914  0.8347 -0.8909  1.0240
 6418TIP3    H240746   3.269   4.351  12.844  0.4954 -0.1623 -0.4176
 6419TIP3   OH240747   4.973   5.431   5.999  0.1173 -0.3199 -0.2525
 6419TIP3    H140748   5.027   5.489   5.945  2.0549 -0.3840  1.4740
 6419TIP3    H240749   4.959   5.480   6.080  0.6987 -1.7181  0.7347
 6420TIP3   OH240750   4.944   0.201  15.770  0.1007  0.0750 -0.0885
 6420TIP3    H140751   4.946   0.297  15.764 -0.2084  0.0465 -0.8352
 6420TIP3    H240752   4.881   0.175  15.703  0.3260 -0.6653 -0.0170
 6421TIP3   OH240753   2.895   5.262   0.477  0.3973 -0.8098 -0.4457
 6421TIP3    H140754   2.966   5.199   0.467  0.0388 -1.1036 -1.1761
 6421TIP3    H240755   2.815   5.212   0.459  0.0411 -0.3614 -0.1468
 6422TIP3   OH240756   4.096   6.616  16.692 -0.1045  0.0501  0.0225
 6422TIP3    H140757   4.132   6.570  16.617 -1.0055  0.6696 -0.8173
 6422TIP3    H240758   4.172   6.641  16.745  0.5233 -0.5634 -0.5856
 6423TIP3   OH240759   0.449   6.377   1.137  0.5755  0.2560  0.4279
 6423TIP3    H140760   0.538   6.343   1.146  0.2060 -1.1243 -0.6872
 6423TIP3    H240761   0.396   6.300   1.119 -0.4610  1.2952 -1.3577
 6424TIP3   OH240762   3.110   1.501  15.180 -0.3850 -0.0463 -0.3290
 6424TIP3    H140763   3.063   1.516  15.262 -0.3622 -0.7202 -0.1828
 6424TIP3    H240764   3.061   1.550  15.114  0.0625  1.1770  0.2145
 6425TIP3   OH240765   3.676   4.050  12.998  0.4309  0.2471 -0.0371
 6425TIP3    H140766   3.583   4.072  12.999  0.6946  1.4079  0.0050
 6425TIP3    H240767   3.718   4.125  12.955  1.4332  0.1154  0.6795
 6426TIP3   OH240768   4.572   1.882   6.212  0.4312  0.4504 -0.1077
 6426TIP3    H140769   4.645   1.822   6.195  1.0937  0.6714  1.6467
 6426TIP3    H240770   4.527   1.842   6.287 -1.5043  0.1317 -1.3955
 6427TIP3   OH240771   3.722   4.225   6.406 -0.0488  0.1214 -0.1489
 6427TIP3    H140772   3.711   4.266   6.320  0.5520 -0.5396 -0.5556
 6427TIP3    H240773   3.755   4.137   6.386 -0.5198 -0.2661  0.7358
 6428TIP3   OH240774   1.893   6.306  17.142 -0.5867 -1.2884  0.3080
 6428TIP3    H140775   1.943   6.273  17.067 -1.5504  0.5650 -1.2637
 6428TIP3    H240776   1.950   6.371  17.182 -0.7390 -0.9721  0.0290
 6429TIP3   OH240777   1.725   6.106  11.753 -1.2513  0.4476 -0.2999
 6429TIP3    H140778   1.671   6.080  11.679 -1.5488  1.1143 -0.3326
 6429TIP3    H240779   1.662   6.124  11.824 -0.9047 -1.3453  0.5061
 6430TIP3   OH240780   3.756   1.658  15.623 -0.0979  0.7956 -0.5995
 6430TIP3    H140781   3.704   1.592  15.577  0.7844 -0.1374 -0.3088
 6430TIP3    H240782   3.843   1.617  15.632  0.8180  2.4676 -1.4521
 6431TIP3   OH240783   5.023   5.924   4.053 -0.1995  0.0649 -0.8202
 6431TIP3    H140784   4.943   5.936   4.104 -1.6651  3.7551 -3.5704
 6431TIP3    H240785   5.091   5.968   4.104 -0.4881 -0.6143  0.1908
 6432TIP3   OH240786   0.887   6.327  13.720  0.1000 -0.3819 -0.1704
 6432TIP3    H140787   0.854   6.301  13.806 -0.4466  0.0672 -0.2382
 6432TIP3    H240788   0.904   6.245  13.674 -0.7708 -0.6273 -0.0703
 6433TIP3   OH240789   4.671   5.647   5.144 -0.1508  0.9561 -0.0443
 6433TIP3    H140790   4.663   5.739   5.171  1.2975  0.8880  0.7162
 6433TIP3    H240791   4.740   5.612   5.201  1.7052  0.2763 -2.5764
 6434TIP3   OH240792   0.494   0.743  17.279 -0.0630  0.3483  0.1820
 6434TIP3    H140793   0.506   0.721  17.371  0.3112 -1.1300 -0.1865
 6434TIP3    H240794   0.408   0.708  17.257  0.8474 -1.5565 -0.6023
 6435TIP3   OH240795   1.080   2.270  14.294 -0.1628 -0.6018 -0.3795
 6435TIP3    H140796   1.102   2.363  14.290 -1.9176 -0.1181  0.2561
 6435TIP3    H240797   1.059   2.254  14.386 -2.0099 -1.0699 -0.8385
 6436TIP3   OH240798   1.962   4.476  16.465  0.0994 -0.6857 -0.2118
 6436TIP3    H140799   2.050   4.482  16.427 -0.4894 -0.6644 -1.6211
 6436TIP3    H240800   1.938   4.384  16.455 -0.1151 -0.6575  0.0341
 6437TIP3   OH240801   4.898   3.096  15.789 -0.3177  0.3273  0.3789
 6437TIP3    H140802   4.977   3.043  15.796 -0.8911 -1.5107 -3.8985
 6437TIP3    H240803   4.830   3.041  15.828 -0.3645 -0.8305 -1.2164
 6438TIP3   OH240804   4.967   4.758  14.672  0.4770  0.1254  0.0855
 6438TIP3    H140805   5.005   4.715  14.595  3.1342  0.9901  0.8125
 6438TIP3    H240806   4.945   4.686  14.731  0.8838 -0.4206 -0.4200
 6439TIP3   OH240807   3.222   3.113   2.838  0.0940 -0.8182  0.6697
 6439TIP3    H140808   3.199   3.205   2.843 -1.8670 -1.1993 -0.3347
 6439TIP3    H240809   3.279   3.107   2.761 -1.7706 -0.7514 -0.7821
 6440TIP3   OH240810   2.451   0.626  12.704 -0.1902  0.1400 -0.8663
 6440TIP3    H140811   2.490   0.674  12.631 -0.6183  1.9273  0.0193
 6440TIP3    H240812   2.357   0.625  12.685 -0.1015 -1.1483 -1.3043
 6441TIP3   OH240813   2.452   5.833  11.549  0.2681 -0.1633 -0.0173
 6441TIP3    H140814   2.498   5.808  11.469  1.0113 -0.3384  0.4459
 6441TIP3    H240815   2.522   5.857  11.610 -0.3019  0.3375  0.4553
 6442TIP3   OH240816   0.748   4.284   5.903 -0.2333 -0.2677 -0.1828
 6442TIP3    H140817   0.678   4.219   5.892 -0.8782  0.5841 -1.3340
 6442TIP3    H240818   0.794   4.283   5.820  2.6925 -2.4706  1.2760
 6443TIP3   OH240819   0.388   1.141   3.877  0.2112 -0.5266 -0.3388
 6443TIP3    H140820   0.397   1.147   3.781 -4.5215  0.0019 -0.9777
 6443TIP3    H240821   0.336   1.217   3.901 -1.4492 -2.3208  2.1780
 6444TIP3   OH240822   4.570   6.067  12.009 -0.5078 -0.4131 -0.4383
 6444TIP3    H140823   4.567   6.157  11.975  0.7989 -0.4215 -0.6294
 6444TIP3    H240824   4.479   6.046  12.029 -0.6399  1.7979  1.7911
 6445TIP3   OH240825   5.844   5.209  17.335  0.7796 -0.3031  0.5431
 6445TIP3    H140826   5.863   5.198  17.241  0.2875  1.6924  0.1737
 6445TIP3    H240827   5.750   5.221  17.339  0.6348 -1.5178  1.4564
 6446TIP3   OH240828   5.903   0.376   0.269 -0.2287 -0.1619  0.5036
 6446TIP3    H140829   5.940   0.443   0.212  1.1471 -0.9416  0.4275
 6446TIP3    H240830   5.935   0.293   0.232 -2.7691 -0.9873 -0.0649
 6447TIP3   OH240831   6.610   0.879   5.363  0.2818  0.8510 -0.1920
 6447TIP3    H140832   6.687   0.837   5.324  0.6575 -0.2019  1.5509
 6447TIP3    H240833   6.644   0.922   5.442 -0.8587  0.7208  0.3884
 6448TIP3   OH240834   4.580   0.033  11.090  0.7681 -0.0900 -0.2294
 6448TIP3    H140835   4.529  -0.016  11.154 -0.5253  0.7074 -0.6014
 6448TIP3    H240836   4.644   0.081  11.141  0.8078 -0.6975  0.3016
 6449TIP3   OH240837   5.743   0.448   5.801 -0.0021 -0.3813 -0.2172
 6449TIP3    H140838   5.809   0.423   5.866  0.4079 -0.0352 -0.4944
 6449TIP3    H240839   5.780   0.419   5.717 -0.1735 -0.1232 -0.3828
 6450TIP3   OH240840   1.907   6.230   3.335  0.1130  0.1163 -0.0346
 6450TIP3    H140841   1.896   6.228   3.430  1.6969 -1.1128  0.1725
 6450TIP3    H240842   2.001   6.240   3.322 -0.1675  1.3224 -1.5144
 6451TIP3   OH240843   3.990   4.962  13.116  0.1867  0.2872  0.3330
 6451TIP3    H140844   3.900   4.982  13.144  0.4179  1.2376  0.4207
 6451TIP3    H240845   4.042   5.035  13.149  0.9547 -0.1336  0.0632
 6452TIP3   OH240846   2.440   6.322  14.818 -0.2236 -0.5546  0.8703
 6452TIP3    H140847   2.463   6.263  14.890 -0.2364 -1.1236  0.4157
 6452TIP3    H240848   2.388   6.268  14.758  0.2324 -0.2374  0.1723
 6453TIP3   OH240849   2.236   4.943   1.186  0.6265  0.1832  0.4089
 6453TIP3    H140850   2.247   4.930   1.092 -1.5193 -2.9839  0.4193
 6453TIP3    H240851   2.325   4.956   1.219  1.4730  0.9237 -1.9684
 6454TIP3   OH240852   0.139   5.839  12.778 -0.2581 -0.1477 -0.3940
 6454TIP3    H140853   0.084   5.890  12.837  1.8759  1.7103  0.1201
 6454TIP3    H240854   0.217   5.818  12.829  0.2377 -1.3416 -1.5626
 6455TIP3   OH240855   5.863   4.446  15.660  0.1339 -0.1120  0.3430
 6455TIP3    H140856   5.900   4.360  15.678  1.6292 -0.0499 -2.0420
 6455TIP3    H240857   5.802   4.432  15.588 -0.6021  0.6550  0.7925
 6456TIP3   OH240858   4.537   4.700  11.967  0.1624  0.1157 -0.0880
 6456TIP3    H140859   4.626   4.708  12.000  0.3305  1.5006 -0.7878
 6456TIP3    H240860   4.521   4.606  11.961  1.9497 -0.1672 -0.9140
 6457TIP3   OH240861   0.054   3.522   5.794 -0.0407 -0.5597 -0.6511
 6457TIP3    H140862   0.126   3.460   5.805  1.4054  1.2031  0.1337
 6457TIP3    H240863   0.086   3.586   5.730 -0.4071  0.9225  0.5975
 6458TIP3   OH240864   3.922   6.729   2.596  0.0481 -0.2099 -0.3910
 6458TIP3    H140865   3.887   6.667   2.660 -0.1850  1.5189  1.2131
 6458TIP3    H240866   3.846   6.781   2.570  0.9163  2.0091  1.3153
 6459TIP3   OH240867   6.736   0.428  13.158  0.1135  0.7867 -0.1142
 6459TIP3    H140868   6.728   0.340  13.122 -0.3113 -0.2546  2.3371
 6459TIP3    H240869   6.658   0.474  13.126 -1.6804 -0.9232  1.5414
 6460TIP3   OH240870   2.080   3.202   0.219  0.6068  0.1724 -0.4198
 6460TIP3    H140871   2.108   3.293   0.221  1.9193 -0.1684  2.9411
 6460TIP3    H240872   1.991   3.203   0.254  0.9372  0.0905  0.4287
 6461TIP3   OH240873   5.888   4.200   0.844 -0.0296  0.2790  0.2864
 6461TIP3    H140874   5.956   4.264   0.823 -0.4825  0.9801  0.9127
 6461TIP3    H240875   5.935   4.128   0.885  0.3560  0.6892  0.5756
 6462TIP3   OH240876   0.039   1.893  14.621  0.6299  0.3259 -0.8015
 6462TIP3    H140877  -0.024   1.853  14.561 -1.0914  0.4178  0.8448
 6462TIP3    H240878   0.049   1.983  14.590 -0.9960  0.6612 -0.4371
 6463TIP3   OH240879   0.144   4.067   3.142  0.0884  0.1252  0.5952
 6463TIP3    H140880   0.095   4.108   3.213  0.9255  1.5299  0.4059
 6463TIP3    H240881   0.228   4.042   3.181  0.0623 -0.2767  0.4032
 6464TIP3   OH240882   4.672   2.754  16.394 -0.0026 -0.4034  0.7218
 6464TIP3    H140883   4.753   2.737  16.441 -0.1011 -0.4239  0.8873
 6464TIP3    H240884   4.604   2.751  16.461 -0.3332 -1.9135  0.3475
 6465TIP3   OH240885   6.678   6.330   4.795 -0.3536 -0.0708 -0.4210
 6465TIP3    H140886   6.767   6.343   4.828 -0.4215  0.3248 -0.3892
 6465TIP3    H240887   6.645   6.255   4.845 -0.1403 -0.0348 -0.2244
 6466TIP3   OH240888   4.518   3.745  10.617  0.4348  0.2743 -0.1600
 6466TIP3    H140889   4.488   3.764  10.528  0.6052 -0.2071 -0.3244
 6466TIP3    H240890   4.521   3.650  10.621 -1.6409  0.1876  1.0511
 6467TIP3   OH240891   0.220   6.729   3.576 -0.0214  0.2056 -0.2558
 6467TIP3    H140892   0.250   6.718   3.486  0.0187 -4.3457  0.1296
 6467TIP3    H240893   0.300   6.729   3.628 -0.1684 -0.1017 -0.0280
 6468TIP3   OH240894   6.261   5.092  16.024 -0.0313  0.1984 -0.2926
 6468TIP3    H140895   6.224   5.004  16.033  0.5261  0.0889  0.9733
 6468TIP3    H240896   6.193   5.140  15.977 -0.1014 -1.0422 -1.5330
 6469TIP3   OH240897   6.108   0.696   4.555  0.2593 -0.2753  0.3581
 6469TIP3    H140898   6.097   0.721   4.463  1.7121  0.8639  0.4641
 6469TIP3    H240899   6.039   0.744   4.601  0.3082  0.1229  0.0172
 6470TIP3   OH240900   5.887   1.117   0.636  0.3527  0.1061 -0.1026
 6470TIP3    H140901   5.928   1.034   0.659 -0.2591 -0.2684 -0.3303
 6470TIP3    H240902   5.794   1.096   0.626  0.4950  0.3593 -2.3462
 6471TIP3   OH240903   6.559   2.726  15.620  0.1365 -0.5678  0.3380
 6471TIP3    H140904   6.530   2.792  15.557 -3.0856 -1.2955  0.8940
 6471TIP3    H240905   6.650   2.707  15.595  0.5172  2.5147 -1.1164
 6472TIP3   OH240906   5.252   0.327   1.416 -1.4137  0.3274 -0.3889
 6472TIP3    H140907   5.168   0.329   1.369 -2.6443  0.9169  1.6988
 6472TIP3    H240908   5.231   0.360   1.503  1.0739  0.7076  0.1288
 6473TIP3   OH240909   3.566   4.979  15.809  0.2007 -0.4747 -0.3453
 6473TIP3    H140910   3.507   5.051  15.829  0.2719 -0.6809  0.6544
 6473TIP3    H240911   3.515   4.921  15.753 -0.4936 -0.5687  0.3751
 6474TIP3   OH240912   0.721   3.298  16.359 -0.1555  0.2099  0.5280
 6474TIP3    H140913   0.683   3.214  16.386  1.3637 -0.6983 -0.0662
 6474TIP3    H240914   0.727   3.291  16.263  0.0931  0.9669  0.4846
 6475TIP3   OH240915   1.426   3.185   6.026  0.1102  0.4056 -0.4790
 6475TIP3    H140916   1.503   3.242   6.031  0.4659 -0.1507  1.9510
 6475TIP3    H240917   1.352   3.244   6.043  0.2598  0.5308 -0.2496
 6476TIP3   OH240918   2.579   2.963  11.451  0.1383 -0.2447  0.5171
 6476TIP3    H140919   2.494   2.984  11.414  0.0698 -0.3394  0.6205
 6476TIP3    H240920   2.596   2.873  11.423  0.4400 -0.0484  0.0588
 6477TIP3   OH240921   5.400   0.219   4.004 -0.2108  0.4353 -0.0677
 6477TIP3    H140922   5.397   0.235   3.910 -0.5951  1.2299  0.0736
 6477TIP3    H240923   5.345   0.287   4.042  0.5366  0.5811  0.7842
 6478TIP3   OH240924   5.524   0.434   1.456  0.0490 -0.7596  0.3383
 6478TIP3    H140925   5.440   0.402   1.422  0.0056 -1.0855  0.7457
 6478TIP3    H240926   5.589   0.396   1.397 -0.1275  0.1391 -0.4633
 6479TIP3   OH240927   0.498   1.493   2.719 -0.4693  0.0127 -0.4627
 6479TIP3    H140928   0.558   1.476   2.646  0.6293  1.1140  0.1448
 6479TIP3    H240929   0.447   1.412   2.727  0.2540 -0.5929 -1.6366
 6480TIP3   OH240930   3.059   2.473  14.091 -0.1347  0.4963 -0.5451
 6480TIP3    H140931   3.003   2.428  14.028 -0.9842  1.6717 -0.6613
 6480TIP3    H240932   3.147   2.440  14.072 -0.7946 -1.7811 -0.0135
 6481TIP3   OH240933   4.351   0.570   4.253  0.6296  0.7163  0.0897
 6481TIP3    H140934   4.307   0.655   4.251  0.4491  0.6362  0.4698
 6481TIP3    H240935   4.279   0.506   4.251  0.7380  0.5810  0.3744
 6482TIP3   OH240936   1.861   1.959  14.999  0.0154 -0.0833  0.0030
 6482TIP3    H140937   1.939   1.954  15.054 -0.3330  0.1258  0.5276
 6482TIP3    H240938   1.845   1.869  14.970  0.6910 -0.0657 -0.4618
 6483TIP3   OH240939   0.433   6.011   3.644  0.0127  0.0263  0.6631
 6483TIP3    H140940   0.435   5.984   3.736  2.8716  0.8335  0.9299
 6483TIP3    H240941   0.466   5.935   3.596  0.7131  0.3729  0.5807
 6484TIP3   OH240942   3.389   5.801  17.016  0.3855 -0.4859 -0.2178
 6484TIP3    H140943   3.413   5.874  17.074  0.8068 -0.3404 -0.5613
 6484TIP3    H240944   3.350   5.844  16.939  0.1166 -0.6570 -0.1781
 6485TIP3   OH240945   0.599   3.133  11.516 -0.2240  0.3620 -0.2960
 6485TIP3    H140946   0.558   3.214  11.487  2.0326  0.4043 -3.8965
 6485TIP3    H240947   0.543   3.063  11.482 -1.7940  0.2481  2.2291
 6486TIP3   OH240948   4.650   5.685   6.399 -0.6030  0.3263 -0.4183
 6486TIP3    H140949   4.731   5.675   6.449 -0.6113 -0.1149 -0.4873
 6486TIP3    H240950   4.626   5.776   6.410  0.4176  0.7052 -1.1666
 6487TIP3   OH240951   3.173   1.408  13.306  0.0612 -0.0380 -0.8234
 6487TIP3    H140952   3.216   1.457  13.235  1.9871 -1.4122 -0.7017
 6487TIP3    H240953   3.235   1.338  13.327 -1.0997 -0.5130  1.2762
 6488TIP3   OH240954   5.575   4.432  15.146  0.5011 -0.2805 -0.2968
 6488TIP3    H140955   5.639   4.362  15.138  0.7765  0.0334 -0.9081
 6488TIP3    H240956   5.626   4.513  15.139  0.1505 -0.0123  0.1163
 6489TIP3   OH240957   0.362   4.725  15.023  0.5328  0.0353  0.4552
 6489TIP3    H140958   0.316   4.713  15.106 -0.8527  1.1862 -0.1074
 6489TIP3    H240959   0.362   4.638  14.982 -1.2847  0.0139  0.4270
 6490TIP3   OH240960   2.814   5.990   4.535 -0.2064 -0.3017  0.0816
 6490TIP3    H140961   2.835   6.058   4.471 -0.7532 -0.4156 -0.2297
 6490TIP3    H240962   2.733   5.950   4.502  0.8109 -1.9916 -0.4390
 6491TIP3   OH240963   6.655   0.454   2.577 -0.4872 -0.4170  0.0265
 6491TIP3    H140964   6.567   0.474   2.609 -1.0183 -0.9293 -1.0617
 6491TIP3    H240965   6.665   0.509   2.499  0.4746  0.2192  0.5674
 6492TIP3   OH240966   5.219   1.110  16.038  0.2826 -0.0331  0.0027
 6492TIP3    H140967   5.238   1.154  16.121  0.0571  2.8688 -1.3580
 6492TIP3    H240968   5.158   1.169  15.994 -1.4735 -2.6414 -1.2989
 6493TIP3   OH240969   6.082   5.734  13.246 -0.0416 -0.3160 -0.2070
 6493TIP3    H140970   6.032   5.721  13.326 -0.8897  0.4883 -0.5850
 6493TIP3    H240971   6.071   5.827  13.226  1.9085 -0.0192 -0.1187
 6494TIP3   OH240972   1.661   3.237   2.035  0.4028 -0.2090  0.3548
 6494TIP3    H140973   1.720   3.270   1.967  1.8182 -0.1347  1.5765
 6494TIP3    H240974   1.646   3.145   2.011  1.4798 -0.3833  0.3284
 6495TIP3   OH240975   6.654   4.187   2.080 -0.0501 -0.5392  1.0004
 6495TIP3    H140976   6.579   4.235   2.114 -0.0494 -1.4324  2.3801
 6495TIP3    H240977   6.695   4.149   2.158  1.0970 -1.1124  0.1563
 6496TIP3   OH240978   2.329   3.365  14.842  0.6318  0.4189  0.7821
 6496TIP3    H140979   2.272   3.290  14.824  0.4588  0.9995 -1.2824
 6496TIP3    H240980   2.401   3.328  14.893 -0.5601 -0.6970  1.7502
 6497TIP3   OH240981   1.142   5.608  15.723 -0.3190  0.2683  0.3815
 6497TIP3    H140982   1.132   5.519  15.756  0.4132  0.2421  0.5472
 6497TIP3    H240983   1.058   5.628  15.681 -0.0439 -0.9875 -0.8174
 6498TIP3   OH240984   1.155   1.090  15.905 -0.1579 -0.5612 -0.4669
 6498TIP3    H140985   1.100   1.166  15.924 -0.7338 -0.4748 -2.2575
 6498TIP3    H240986   1.094   1.017  15.900  0.3124 -1.0409  0.5996
 6499TIP3   OH240987   2.045   1.212  13.569  0.4144  0.2915  0.0464
 6499TIP3    H140988   2.099   1.201  13.647 -0.6684  0.1028  0.7854
 6499TIP3    H240989   1.964   1.252  13.600  0.0306  0.3811 -1.0047
 6500TIP3   OH240990   2.527   3.722  12.062 -0.0110 -0.2515 -0.0471
 6500TIP3    H140991   2.542   3.772  12.142 -1.5132  0.6379 -0.2778
 6500TIP3    H240992   2.613   3.715  12.021  0.2579  2.2263 -0.0321
 6501TIP3   OH240993   4.630   3.178   6.209  0.2738 -0.5940  0.5669
 6501TIP3    H140994   4.603   3.258   6.164  2.5544 -0.2283 -0.3305
 6501TIP3    H240995   4.549   3.137   6.238 -1.1177  0.7351 -1.2334
 6502TIP3   OH240996   4.244   0.715  17.422  0.0934 -0.0202  0.1445
 6502TIP3    H140997   4.263   0.796  17.376  1.0049 -0.7269 -0.7542
 6502TIP3    H240998   4.306   0.714  17.495 -1.1956  0.9866  1.3067
 6503TIP3   OH240999   6.125   0.665   3.877  0.7346  0.4707  0.3126
 6503TIP3    H141000   6.150   0.576   3.853  0.5045 -0.0613  1.8866
 6503TIP3    H241001   6.106   0.659   3.971 -2.0221  1.5543 -0.0979
 6504TIP3   OH241002   3.524   0.805  10.679 -0.1115 -0.1671 -0.4591
 6504TIP3    H141003   3.439   0.784  10.717  0.5486 -1.7872  0.2181
 6504TIP3    H241004   3.555   0.722  10.644  0.7005  0.6500 -1.7216
 6505TIP3   OH241005   1.670   1.587   4.217  0.3692  0.1952 -0.1898
 6505TIP3    H141006   1.612   1.562   4.289  1.1073  1.0520  0.7465
 6505TIP3    H241007   1.646   1.530   4.145 -0.7588 -0.3292  0.5794
 6506TIP3   OH241008   0.753   2.033   3.283  0.5142 -0.7203  0.5943
 6506TIP3    H141009   0.738   2.025   3.377  0.0602  1.6143  0.7753
 6506TIP3    H241010   0.670   2.065   3.247  0.6153 -1.7650 -0.6592
 6507TIP3   OH241011   3.033   6.032  10.649  0.2908 -0.5839 -0.4379
 6507TIP3    H141012   3.076   6.044  10.565  0.1315 -1.7454 -0.7029
 6507TIP3    H241013   3.104   6.030  10.713  0.3729  0.9135 -0.4522
 6508TIP3   OH241014   1.477   4.767   2.648 -0.0216 -0.3948  0.0107
 6508TIP3    H141015   1.391   4.736   2.677 -0.1315  0.8549  1.0721
 6508TIP3    H241016   1.458   4.821   2.571  0.0835 -2.0783 -1.2631
 6509TIP3   OH241017   0.571   0.336   5.620  0.1165  0.0568  0.6779
 6509TIP3    H141018   0.538   0.372   5.702 -0.6702  0.0866  0.3546
 6509TIP3    H241019   0.629   0.403   5.585 -1.0174  0.8566  0.2798
 6510TIP3   OH241020   4.604   1.237   3.807  0.4177  0.0297  0.0529
 6510TIP3    H141021   4.691   1.207   3.834  0.0406  0.0747  1.4181
 6510TIP3    H241022   4.620   1.307   3.744  1.3658  0.0234  0.2772
 6511TIP3   OH241023   5.266   4.048   2.835  0.5148  0.2869 -0.0302
 6511TIP3    H141024   5.231   3.961   2.819 -0.0508  0.6400 -0.7986
 6511TIP3    H241025   5.336   4.058   2.770  1.2633  0.0341  0.7202
 6512TIP3   OH241026   2.645   2.001   1.798 -0.3850  0.3312  0.1891
 6512TIP3    H141027   2.639   2.097   1.798 -1.5357  0.2713 -0.3599
 6512TIP3    H241028   2.600   1.974   1.718 -0.9360 -0.7297  0.8413
 6513TIP3   OH241029   1.006   5.003  16.368  0.2559  0.0106 -0.7905
 6513TIP3    H141030   1.004   4.984  16.462  0.6903  0.8185 -0.6088
 6513TIP3    H241031   1.010   5.098  16.363 -0.8772  0.0332 -1.6550
 6514TIP3   OH241032   4.718   6.324   3.109 -0.2219 -0.3190 -0.6536
 6514TIP3    H141033   4.738   6.271   3.186 -0.9576  0.8410  0.3713
 6514TIP3    H241034   4.765   6.281   3.037  4.0859  0.9076  1.1199
 6515TIP3   OH241035   5.850   5.939  12.760 -0.2649  0.1197 -0.0085
 6515TIP3    H141036   5.895   5.956  12.677  0.2992 -0.1989  0.2228
 6515TIP3    H241037   5.797   5.861  12.742 -1.2670  0.8875 -0.4764
 6516TIP3   OH241038   2.649   4.212   4.786 -0.4562  0.3929  0.1040
 6516TIP3    H141039   2.661   4.294   4.834  0.4093 -0.3620  1.2492
 6516TIP3    H241040   2.628   4.148   4.853 -0.0052 -0.5428 -0.6219
 6517TIP3   OH241041   3.791   4.436  14.483 -0.8584 -0.2789  0.3825
 6517TIP3    H141042   3.794   4.433  14.388  0.6280  1.4625  0.3124
 6517TIP3    H241043   3.792   4.529  14.504  1.3588 -0.6101  2.1153
 6518TIP3   OH241044   0.211   0.046  14.251 -0.0357 -0.0289  0.1187
 6518TIP3    H141045   0.140   0.088  14.204 -0.1380  0.4009  0.6408
 6518TIP3    H241046   0.202   0.078  14.341 -0.2074 -1.2794  0.5730
 6519TIP3   OH241047   0.276   3.868   4.117 -0.0796  0.0649 -0.0420
 6519TIP3    H141048   0.370   3.851   4.108 -0.1419 -0.3675  0.0903
 6519TIP3    H241049   0.254   3.835   4.204 -0.3165  0.3314 -0.0011
 6520TIP3   OH241050   5.248   0.436   4.902 -0.0908 -0.3167 -0.5184
 6520TIP3    H141051   5.312   0.506   4.892  1.3672 -1.2519  1.4410
 6520TIP3    H241052   5.228   0.435   4.995 -0.0954 -2.4215 -0.4911
 6521TIP3   OH241053   5.420   2.771  15.452  0.0551  0.1533  0.0493
 6521TIP3    H141054   5.360   2.822  15.506 -0.3596  0.1381 -0.3943
 6521TIP3    H241055   5.378   2.767  15.366  1.2402  1.1562 -0.6087
 6522TIP3   OH241056   3.424   2.525  15.191  0.7152 -0.2784  0.2324
 6522TIP3    H141057   3.425   2.431  15.175 -1.2482 -0.1812 -0.7999
 6522TIP3    H241058   3.510   2.555  15.163  0.4633 -1.4229 -2.0121
 6523TIP3   OH241059   0.812   5.446  16.771  0.9021 -1.0690 -0.0646
 6523TIP3    H141060   0.861   5.507  16.715  0.9743  0.2938  1.4209
 6523TIP3    H241061   0.782   5.499  16.845 -0.7829 -2.4090  0.2834
 6524TIP3   OH241062   3.972   1.892   1.680  0.1776  0.3842  0.4122
 6524TIP3    H141063   3.893   1.843   1.705  1.0448 -1.3872 -0.1700
 6524TIP3    H241064   4.039   1.863   1.743  0.3617  2.0364  1.0426
 6525TIP3   OH241065   2.771   5.442  16.047 -0.3560  0.3310 -0.1675
 6525TIP3    H141066   2.834   5.487  15.990  0.8424  0.3497  1.1283
 6525TIP3    H241067   2.757   5.503  16.120 -3.6117  1.3155 -1.4420
 6526TIP3   OH241068   4.602   6.301  17.073  0.6092 -0.2943  0.2424
 6526TIP3    H141069   4.536   6.352  17.026 -0.7964 -1.3717  0.9896
 6526TIP3    H241070   4.637   6.362  17.138  1.2606  0.6489 -0.9429
 6527TIP3   OH241071   3.180   0.534   1.482  0.1794 -0.5535 -0.0142
 6527TIP3    H141072   3.214   0.602   1.540 -0.2948 -0.5114  0.2224
 6527TIP3    H241073   3.189   0.571   1.394 -0.9871  0.2364  0.1819
 6528TIP3   OH241074   2.007   0.635   6.321  0.3432 -0.2828  0.0061
 6528TIP3    H141075   2.071   0.589   6.374  1.7782 -0.9393 -2.1622
 6528TIP3    H241076   2.052   0.716   6.294  0.9934 -1.4717 -2.8284
 6529TIP3   OH241077   3.203   4.929   3.571 -0.8261  0.4903 -0.4207
 6529TIP3    H141078   3.293   4.916   3.600 -0.9770 -1.4353 -0.7076
 6529TIP3    H241079   3.158   4.965   3.648 -0.0947  0.2583  0.1224
 6530TIP3   OH241080   2.315   2.492   0.221  0.2535  0.1730 -0.0204
 6530TIP3    H141081   2.309   2.500   0.317  0.9556  4.2226 -0.1437
 6530TIP3    H241082   2.402   2.454   0.206 -0.8415 -3.0082  0.8332
 6531TIP3   OH241083   6.606   4.671  15.229  0.1840  0.0567  0.4951
 6531TIP3    H141084   6.602   4.677  15.133 -1.7414 -1.6064  0.3928
 6531TIP3    H241085   6.616   4.577  15.246  0.5623  0.3469  1.9334
 6532TIP3   OH241086   6.412   5.790  15.735  0.4630 -0.2927 -0.3710
 6532TIP3    H141087   6.319   5.804  15.755  0.4208 -1.1361  0.0681
 6532TIP3    H241088   6.445   5.739  15.809  0.9651 -1.1205 -1.1544
 6533TIP3   OH241089   2.174   4.864   1.568 -0.0028 -0.6258  0.4828
 6533TIP3    H141090   2.143   4.880   1.657 -1.8854 -0.9029 -0.0924
 6533TIP3    H241091   2.151   4.773   1.550 -0.8080 -0.2095 -0.7208
 6534TIP3   OH241092   1.672   2.721   1.520 -0.1736  0.2518  0.3696
 6534TIP3    H141093   1.724   2.738   1.442  1.5069  0.1970  1.4200
 6534TIP3    H241094   1.690   2.795   1.578  0.3273 -0.7311  1.5323
 6535TIP3   OH241095   4.608   5.807   0.539  0.0327  0.4972 -0.4834
 6535TIP3    H141096   4.612   5.822   0.634  1.6920  0.4950 -0.5106
 6535TIP3    H241097   4.700   5.802   0.513 -0.3551 -2.8366 -1.5905
 6536TIP3   OH241098   5.138   1.018  12.544  0.4641  0.2664 -0.1114
 6536TIP3    H141099   5.209   1.074  12.575 -0.2149  1.3124 -0.3847
 6536TIP3    H241100   5.093   1.071  12.478  0.0119 -0.7403 -0.6384
 6537TIP3   OH241101   3.831   2.250  14.961 -0.1820 -0.5270  0.6423
 6537TIP3    H141102   3.748   2.208  14.986 -0.9697  0.1892 -0.6563
 6537TIP3    H241103   3.825   2.258  14.866  0.9065  0.5503  0.6522
 6538TIP3   OH241104   1.304   4.002   1.131 -0.2667 -0.0515 -0.0107
 6538TIP3    H141105   1.277   3.977   1.220  1.1500 -1.6091  0.0349
 6538TIP3    H241106   1.335   4.092   1.141  2.2350 -0.9794  1.6992
 6539TIP3   OH241107   0.971   4.121   5.127  0.3962 -0.3810 -0.8608
 6539TIP3    H141108   0.949   4.031   5.152  0.7371 -0.6918 -1.6218
 6539TIP3    H241109   1.059   4.135   5.163 -0.0530  0.0103  0.1162
 6540TIP3   OH241110   2.593   2.129  13.605 -0.1028  0.1000  0.2078
 6540TIP3    H141111   2.588   2.034  13.594 -0.7457  0.0622  0.7784
 6540TIP3    H241112   2.598   2.163  13.515  0.2343 -0.4708  0.0035
 6541TIP3   OH241113   1.243   3.782   3.427  0.1185 -0.1886  0.1230
 6541TIP3    H141114   1.251   3.717   3.358  0.5984  1.6499 -1.6507
 6541TIP3    H241115   1.148   3.788   3.442 -0.2384  1.0749 -2.1668
 6542TIP3   OH241116   6.164   2.887  12.369  0.8019  0.5855  0.2341
 6542TIP3    H141117   6.223   2.951  12.328 -0.2263  0.6523 -1.2372
 6542TIP3    H241118   6.222   2.817  12.399  1.9850  2.3029  2.1728
 6543TIP3   OH241119   3.141   2.624   2.248  0.0110 -0.0477 -0.5402
 6543TIP3    H141120   3.077   2.646   2.180 -0.2803  0.0213 -0.2439
 6543TIP3    H241121   3.113   2.538   2.279  1.0030 -0.7511 -1.5273
 6544TIP3   OH241122   4.082   4.230  16.903  0.4005 -0.2384  0.3379
 6544TIP3    H141123   4.039   4.149  16.879  2.0999 -0.7312 -1.2327
 6544TIP3    H241124   4.097   4.222  16.998 -0.2307 -1.3579  0.3573
 6545TIP3   OH241125   3.664   2.630  11.988  0.2719  0.3297 -0.2203
 6545TIP3    H141126   3.643   2.537  11.985  1.5572  0.0154  0.3293
 6545TIP3    H241127   3.718   2.641  12.066 -0.5339  1.6907  0.1930
 6546TIP3   OH241128   1.214   5.284   6.025  0.2157 -0.2880 -0.4838
 6546TIP3    H141129   1.197   5.211   6.085  0.5739 -0.1294 -0.1906
 6546TIP3    H241130   1.185   5.252   5.940 -2.2469  0.2049  0.0901
 6547TIP3   OH241131   6.505   4.822   2.501  0.0193  0.1296 -0.1426
 6547TIP3    H141132   6.573   4.876   2.543 -1.2911  1.4206  0.4205
 6547TIP3    H241133   6.459   4.781   2.574 -2.2142  2.3158 -0.2069
 6548TIP3   OH241134   3.208   0.221  12.435  0.6456 -0.7071 -0.1547
 6548TIP3    H141135   3.152   0.156  12.393  0.3683 -1.4533  1.3125
 6548TIP3    H241136   3.212   0.195  12.527  3.3185 -0.6114 -0.1496
 6549TIP3   OH241137   6.718   0.797   3.429 -0.0191  0.4251  0.3513
 6549TIP3    H141138   6.725   0.819   3.522 -1.9132  0.2393  0.5831
 6549TIP3    H241139   6.782   0.727   3.416 -1.3697 -1.2449  2.1112
 6550TIP3   OH241140   1.319   5.343   4.818 -0.0158 -0.2573  0.1677
 6550TIP3    H141141   1.242   5.370   4.869  0.4364 -0.9570  1.2553
 6550TIP3    H241142   1.383   5.317   4.883  0.2177 -2.1985 -0.7470
 6551TIP3   OH241143   0.531   0.605   3.041  0.2526  0.3207 -0.1211
 6551TIP3    H141144   0.480   0.636   2.966 -2.5557  0.8444  1.8569
 6551TIP3    H241145   0.585   0.679   3.066 -1.2432  1.3227  0.3022
 6552TIP3   OH241146   5.686   0.163  13.081 -0.4141 -0.3183  0.5773
 6552TIP3    H141147   5.735   0.246  13.078 -1.3329  0.2273 -0.0016
 6552TIP3    H241148   5.753   0.096  13.068  0.1280  0.4305 -0.8419
 6553TIP3   OH241149   3.836   3.831   1.536  0.1855  0.0941 -0.2597
 6553TIP3    H141150   3.743   3.840   1.515  0.1915  0.8739 -0.0183
 6553TIP3    H241151   3.851   3.896   1.605  0.7017 -0.6833  0.3824
 6554TIP3   OH241152   0.441   3.344  16.204 -0.0049  0.1369 -0.3313
 6554TIP3    H141153   0.531   3.358  16.176  0.6265 -0.9342  1.0529
 6554TIP3    H241154   0.422   3.419  16.260 -0.4437  1.0165 -1.6021
 6555TIP3   OH241155   4.562   2.496   1.801 -0.2297  0.1864  0.0763
 6555TIP3    H141156   4.619   2.572   1.786  0.3143 -0.0354  0.9742
 6555TIP3    H241157   4.506   2.493   1.723  3.0099 -1.4257 -2.4346
 6556TIP3   OH241158   1.364   0.914  15.232  0.1809  0.6125 -0.1204
 6556TIP3    H141159   1.445   0.952  15.265 -0.1197  0.0302  1.3745
 6556TIP3    H241160   1.379   0.820  15.236  0.0302  0.5230 -1.4389
 6557TIP3   OH241161   4.996   3.830  14.877 -0.1733 -0.4494 -0.4172
 6557TIP3    H141162   4.906   3.822  14.909  0.3595 -0.2264  1.2215
 6557TIP3    H241163   5.047   3.855  14.954  1.4142 -1.2651 -1.1508
 6558TIP3   OH241164   1.741   5.878   0.525  0.3160  0.8683  0.1958
 6558TIP3    H141165   1.769   5.806   0.469 -0.1254  0.7293  0.1514
 6558TIP3    H241166   1.819   5.900   0.576  0.2898 -0.0508  0.6475
 6559TIP3   OH241167   4.763   0.829  10.425 -0.5073 -0.2737  0.2807
 6559TIP3    H141168   4.780   0.737  10.441  1.0492 -0.3113 -1.2362
 6559TIP3    H241169   4.813   0.849  10.345 -1.4756  1.6695  0.0965
 6560TIP3   OH241170   4.939   6.263  15.804  0.1675  0.7062 -0.2154
 6560TIP3    H141171   4.951   6.354  15.832  0.7128  0.4424  0.4627
 6560TIP3    H241172   5.027   6.234  15.781  0.3563 -0.2316  1.4863
 6561TIP3   OH241173   6.178   0.958   0.538 -0.1339  0.0546  0.3282
 6561TIP3    H141174   6.185   1.019   0.612 -1.6144 -0.5540  1.0158
 6561TIP3    H241175   6.267   0.927   0.523  0.3915  1.2007  0.9841
 6562TIP3   OH241176   3.675   4.035  16.965 -0.0107  0.0651 -0.3982
 6562TIP3    H141177   3.639   3.949  16.983  0.2787 -0.0265 -0.2472
 6562TIP3    H241178   3.764   4.018  16.934 -0.1888  0.2720 -1.0411
 6563TIP3   OH241179   4.391   0.463  16.019  0.3850 -0.5247  0.4521
 6563TIP3    H141180   4.420   0.519  15.947  2.3449 -1.6074  0.3387
 6563TIP3    H241181   4.304   0.433  15.992  0.1971  0.7245 -0.4579
 6564TIP3   OH241182   4.929   0.442  11.312  0.3189  0.0396 -0.9001
 6564TIP3    H141183   5.021   0.445  11.338  0.0893  2.0663 -0.1459
 6564TIP3    H241184   4.886   0.389  11.380  1.3661 -4.0933 -3.1238
 6565TIP3   OH241185   1.914   0.476   3.261 -0.3302  0.2742 -0.3666
 6565TIP3    H141186   1.830   0.437   3.282  0.5570 -1.7756 -0.4393
 6565TIP3    H241187   1.972   0.402   3.242  1.1712  1.6674 -1.5655
 6566TIP3   OH241188   0.872   4.915  14.681 -0.0627 -0.5424  0.4209
 6566TIP3    H141189   0.961   4.950  14.674 -0.2194  0.6310  3.3225
 6566TIP3    H241190   0.880   4.840  14.740 -0.8203 -1.3865 -0.4970
 6567TIP3   OH241191   2.895   4.231  14.826 -0.5558 -0.1014  0.0026
 6567TIP3    H141192   2.911   4.278  14.908  0.3509 -1.0664  0.4062
 6567TIP3    H241193   2.911   4.139  14.848  2.2766 -0.1620 -1.8205
 6568TIP3   OH241194   3.038   4.580  14.124 -0.2768  0.3240  0.0896
 6568TIP3    H141195   3.091   4.625  14.191 -0.7986 -0.5967  1.1626
 6568TIP3    H241196   3.025   4.492  14.160  1.4802 -1.0594 -2.3228
 6569TIP3   OH241197   4.536   6.246  14.829  0.2356  0.7217 -0.0869
 6569TIP3    H141198   4.452   6.201  14.821  0.5480  0.4029 -2.8355
 6569TIP3    H241199   4.514   6.333  14.864 -1.2554  0.6357 -0.7341
 6570TIP3   OH241200   5.645   4.321   2.282  0.3461 -0.2016 -0.4864
 6570TIP3    H141201   5.640   4.232   2.246  1.0325  0.2320 -1.7236
 6570TIP3    H241202   5.594   4.374   2.221  2.0013  0.6409 -1.1935
 6571TIP3   OH241203   3.234   1.415   1.000  0.2725 -0.0567  0.0598
 6571TIP3    H141204   3.321   1.456   0.998  0.6174 -0.7862 -0.1282
 6571TIP3    H241205   3.233   1.367   1.083  0.0607 -0.0773  0.0445
 6572TIP3   OH241206   4.717   5.140   4.414 -0.1856 -0.2466  0.5504
 6572TIP3    H141207   4.697   5.078   4.485  0.6810 -1.9194 -0.5880
 6572TIP3    H241208   4.807   5.167   4.430  0.3530 -1.3752 -0.3718
 6573TIP3   OH241209   5.012   1.012   4.878 -0.1104  0.9991  0.1875
 6573TIP3    H141210   5.036   1.057   4.796  0.0126 -0.1717 -0.4499
 6573TIP3    H241211   4.918   0.995   4.870  0.6266 -3.7535 -2.2614
 6574TIP3   OH241212   4.863   0.066   0.259 -0.2905 -0.1561 -0.4728
 6574TIP3    H141213   4.830   0.155   0.250  0.7121  0.3739  0.8796
 6574TIP3    H241214   4.957   0.077   0.275 -0.3463 -1.3918  0.8438
 6575TIP3   OH241215   0.588   2.316   1.689 -0.8018  0.8145  1.0428
 6575TIP3    H141216   0.492   2.314   1.682 -0.8473  1.6412  1.3513
 6575TIP3    H241217   0.605   2.323   1.783 -0.4540  1.2748  0.9491
 6576TIP3   OH241218   2.866   5.862   5.830 -0.0826  0.1321  0.0299
 6576TIP3    H141219   2.861   5.797   5.900  0.7675 -0.4982 -0.4756
 6576TIP3    H241220   2.949   5.844   5.786 -0.6204  0.4834 -1.1761
 6577TIP3   OH241221   3.826   3.363   6.102 -0.3171  0.7590  0.1545
 6577TIP3    H141222   3.744   3.396   6.064 -0.1908  1.0870  0.1599
 6577TIP3    H241223   3.826   3.398   6.191 -1.6043 -1.6717  1.2047
 6578TIP3   OH241224   4.981   4.805  11.939 -0.2648  0.7060  0.0785
 6578TIP3    H141225   5.038   4.742  11.893 -0.9229  0.2248 -0.0852
 6578TIP3    H241226   4.981   4.882  11.882 -0.7727  0.2523 -0.5493
 6579TIP3   OH241227   5.443   4.338  11.822 -0.0726  0.1890  0.7455
 6579TIP3    H141228   5.472   4.403  11.886  5.5318  1.4357 -2.3953
 6579TIP3    H241229   5.483   4.256  11.852 -0.5033 -0.0620  0.6407
 6580TIP3   OH241230   2.135   3.648  14.639  0.5597  0.5179 -0.0045
 6580TIP3    H141231   2.136   3.729  14.589 -1.3276  0.7310  0.2292
 6580TIP3    H241232   2.152   3.675  14.729  1.5111  0.4370 -0.1499
 6581TIP3   OH241233   2.566   4.941   2.926  0.3558  0.1378  0.4174
 6581TIP3    H141234   2.514   4.879   2.977  0.3261  0.4248  0.7422
 6581TIP3    H241235   2.508   4.967   2.854  0.1541  0.2298  0.6104
 6582TIP3   OH241236   5.530   3.869  13.297 -0.5184  0.2337  0.3136
 6582TIP3    H141237   5.441   3.858  13.265 -0.1236  0.7112 -1.0081
 6582TIP3    H241238   5.553   3.959  13.273  0.5222 -0.0780  0.0923
 6583TIP3   OH241239   0.707   4.676   0.367 -0.9060  0.2424 -0.3439
 6583TIP3    H141240   0.685   4.677   0.273 -1.0580 -0.9363 -0.3435
 6583TIP3    H241241   0.737   4.586   0.383 -0.9693  0.4066  0.7576
 6584TIP3   OH241242   1.720   3.324   6.011 -0.2910 -0.7948  0.1961
 6584TIP3    H141243   1.783   3.396   6.017 -2.0855  0.8642 -0.0880
 6584TIP3    H241244   1.707   3.311   5.918  0.9474 -2.3944  0.2034
 6585TIP3   OH241245   3.316   0.460   6.575  0.3888  0.4770  0.0779
 6585TIP3    H141246   3.223   0.455   6.551  0.3882  0.7036  0.0341
 6585TIP3    H241247   3.342   0.369   6.586  0.2643  0.3908 -0.3138
 6586TIP3   OH241248   5.557   5.892   1.963 -0.2913 -0.7021  0.2755
 6586TIP3    H141249   5.500   5.916   1.890  0.2828 -2.2823 -0.7549
 6586TIP3    H241250   5.508   5.824   2.010  0.6355 -1.9909 -0.5508
 6587TIP3   OH241251   2.374   5.694   3.560  0.6451 -0.4495  0.1239
 6587TIP3    H141252   2.428   5.758   3.513  1.2436 -2.4198 -2.0526
 6587TIP3    H241253   2.435   5.624   3.584 -0.4341 -1.3986  0.1870
 6588TIP3   OH241254   3.029   6.185  14.278  0.3463  0.7793 -0.1667
 6588TIP3    H141255   3.083   6.131  14.220  0.5267 -0.2562  0.9159
 6588TIP3    H241256   2.939   6.166  14.252  0.4400  0.7464 -0.4696
 6589TIP3   OH241257   2.532   3.472   0.227 -0.0227 -0.6826  0.2238
 6589TIP3    H141258   2.558   3.504   0.313 -0.8549 -1.0643  0.6258
 6589TIP3    H241259   2.593   3.514   0.166  0.6242 -0.4789  1.0037
 6590TIP3   OH241260   1.684   5.175   4.669  0.6006  0.0273  0.1545
 6590TIP3    H141261   1.627   5.198   4.742  0.6484 -0.4828  0.3570
 6590TIP3    H241262   1.655   5.231   4.597  1.5236  1.6170  0.9620
 6591TIP3   OH241263   3.663   0.130   4.719  0.1750 -0.8372  0.1991
 6591TIP3    H141264   3.699   0.196   4.778 -0.1614  0.1898 -0.7037
 6591TIP3    H241265   3.580   0.105   4.759  1.4377 -2.6180  1.8616
 6592TIP3   OH241266   0.260   1.919  15.755  0.1795 -0.3580  0.0832
 6592TIP3    H141267   0.313   1.953  15.683  1.0236 -1.3506  0.2118
 6592TIP3    H241268   0.257   1.824  15.740  0.0959 -0.5392  1.1785
 6593TIP3   OH241269   3.327   3.867  16.147 -0.2002 -0.6068  0.3652
 6593TIP3    H141270   3.255   3.805  16.134 -1.5787  0.9115  0.3430
 6593TIP3    H241271   3.285   3.944  16.188  1.8832 -0.6935  2.9761
 6594TIP3   OH241272   3.969   6.720  12.267  0.6243  0.0214 -0.5894
 6594TIP3    H141273   4.015   6.780  12.325  1.2328 -1.1237  0.1657
 6594TIP3    H241274   3.880   6.754  12.264  1.2768  1.7687 -1.3646
 6595TIP3   OH241275   5.460   3.009   2.379 -0.6360 -0.1248  0.6389
 6595TIP3    H141276   5.436   2.916   2.388 -1.6417  0.0720  0.1504
 6595TIP3    H241277   5.503   3.015   2.294 -0.8333 -0.1024  0.5386
 6596TIP3   OH241278   5.018   6.707  15.363  0.0930  0.5834  0.4099
 6596TIP3    H141279   5.064   6.664  15.291 -0.8748 -2.0995  1.2299
 6596TIP3    H241280   5.081   6.768  15.400  2.0035 -0.8966 -0.2384
 6597TIP3   OH241281   1.599   5.046  10.988  0.5755  0.5920 -0.2020
 6597TIP3    H141282   1.644   5.112  10.935  0.1930  2.1064  1.2713
 6597TIP3    H241283   1.667   5.013  11.046  1.0223 -1.1530 -1.6163
 6598TIP3   OH241284   0.659   0.979  14.279 -0.5275 -0.7862 -0.5307
 6598TIP3    H141285   0.685   0.928  14.355 -1.9199 -1.7793 -0.6811
 6598TIP3    H241286   0.682   1.069  14.301  0.7778 -1.2982  0.2790
 6599TIP3   OH241287   0.564   4.277  16.600  0.3159 -0.2189  0.2165
 6599TIP3    H141288   0.510   4.339  16.551  0.2394 -1.9523 -2.0253
 6599TIP3    H241289   0.651   4.318  16.601  0.6227 -0.6012 -2.4908
 6600TIP3   OH241290   5.701   2.306   1.597  0.2778  0.1986 -0.0674
 6600TIP3    H141291   5.759   2.366   1.645 -0.3139  0.6821  0.0563
 6600TIP3    H241292   5.677   2.239   1.662  1.2862 -0.4315 -0.3245
 6601TIP3   OH241293   4.121   1.124  15.335  0.2196  0.1585 -0.6103
 6601TIP3    H141294   4.172   1.163  15.264 -0.4058  1.7141 -0.2466
 6601TIP3    H241295   4.037   1.169  15.330  0.1018  0.1411  0.9857
 6602TIP3   OH241296   0.996   1.965  15.367  0.3021  0.0122 -0.1232
 6602TIP3    H141297   0.966   2.050  15.397 -3.1519 -0.6081 -1.3687
 6602TIP3    H241298   1.027   1.980  15.278 -2.8698 -0.2932 -1.4120
 6603TIP3   OH241299   3.466   2.242   0.559 -0.6844  0.6235  0.0471
 6603TIP3    H141300   3.481   2.201   0.474  0.8934  1.1555  0.0384
 6603TIP3    H241301   3.453   2.335   0.539  0.9760  0.9694  0.4640
 6604TIP3   OH241302   1.791   2.137   3.020  0.5040  0.0225 -0.3990
 6604TIP3    H141303   1.876   2.100   2.995 -0.0394 -1.0556 -0.7227
 6604TIP3    H241304   1.771   2.097   3.105 -0.7829 -1.6860 -1.4386
 6605TIP3   OH241305   5.925   1.562   0.371  0.0885 -0.2063 -0.3880
 6605TIP3    H141306   5.950   1.499   0.438 -0.6169 -1.3176 -1.1440
 6605TIP3    H241307   5.858   1.616   0.413  0.1358 -0.4631  0.0184
 6606TIP3   OH241308   2.788   1.272  16.831 -0.2314  0.1307  0.2444
 6606TIP3    H141309   2.773   1.350  16.777  1.3484  0.5701  0.3980
 6606TIP3    H241310   2.725   1.208  16.798 -0.8308  1.1298 -0.6064
 6607TIP3   OH241311   1.855   1.353  17.495  0.3634  0.2686 -0.5418
 6607TIP3    H141312   1.923   1.397  17.545 -2.8473  4.1502  0.9841
 6607TIP3    H241313   1.858   1.393  17.408 -0.1186  0.7294 -0.3562
 6608TIP3   OH241314   5.115   0.447   3.198  0.2478  0.5035  0.6169
 6608TIP3    H141315   5.060   0.437   3.120  1.3268  1.5553 -0.3197
 6608TIP3    H241316   5.189   0.387   3.183  0.2671  0.4255  1.0197
 6609TIP3   OH241317   5.139   0.806   4.389  0.1186  0.0427 -0.0849
 6609TIP3    H141318   5.099   0.769   4.310  0.3216  0.8420 -0.5677
 6609TIP3    H241319   5.070   0.801   4.455  0.3496 -1.8364  0.0683
 6610TIP3   OH241320   6.542   4.265  16.883  0.1141  0.3549 -0.0985
 6610TIP3    H141321   6.476   4.329  16.910 -0.7896 -1.2808  1.8621
 6610TIP3    H241322   6.626   4.308  16.899 -0.4656  0.8193  1.9315
 6611TIP3   OH241323   5.813   0.565   4.005  0.0441 -0.4856 -0.2099
 6611TIP3    H141324   5.742   0.583   3.944  0.3755  0.5038 -0.3197
 6611TIP3    H241325   5.864   0.497   3.962 -0.4779 -0.7500 -0.4170
 6612TIP3   OH241326   6.690   2.313   3.734 -0.4404  0.1432 -0.2615
 6612TIP3    H141327   6.657   2.387   3.682 -2.9203  0.9834  2.2183
 6612TIP3    H241328   6.783   2.329   3.744 -0.5315  1.7285 -1.6306
 6613TIP3   OH241329   4.542   3.034   2.348 -0.2317 -0.6087  0.9625
 6613TIP3    H141330   4.480   3.104   2.328 -0.2814 -1.0541 -0.5687
 6613TIP3    H241331   4.617   3.052   2.290  0.5919 -0.7253  1.9610
 6614TIP3   OH241332   3.619   6.104  12.583 -0.0117 -0.3903 -0.2231
 6614TIP3    H141333   3.606   6.095  12.677 -0.5325  0.1648 -0.2364
 6614TIP3    H241334   3.712   6.126  12.573  0.3701 -1.8128  0.0597
 6615TIP3   OH241335   0.351   0.593   2.564  0.0879 -0.5088  0.4947
 6615TIP3    H141336   0.347   0.497   2.566 -0.5986 -0.5154 -0.7021
 6615TIP3    H241337   0.261   0.621   2.548  0.3915  0.3218  0.1923
 6616TIP3   OH241338   3.909   5.381   2.571  0.1742 -0.2556 -0.1418
 6616TIP3    H141339   3.957   5.462   2.551 -1.0925  0.5462 -0.0946
 6616TIP3    H241340   3.830   5.411   2.615 -1.6689 -1.2840 -2.5224
 6617TIP3   OH241341   4.654   0.869  12.754  0.0267  0.6848  0.1560
 6617TIP3    H141342   4.646   0.837  12.844 -2.5817 -1.0742 -0.5898
 6617TIP3    H241343   4.713   0.807  12.711 -0.3547  0.3043  0.1716
 6618TIP3   OH241344   1.769   3.808  15.085 -0.0388 -0.1507 -0.2804
 6618TIP3    H141345   1.855   3.831  15.118 -1.3441  2.7614  1.4351
 6618TIP3    H241346   1.783   3.792  14.991  2.0420  2.5535 -0.5477
 6619TIP3   OH241347   1.505   0.980  13.570 -0.0282  0.0651 -0.1679
 6619TIP3    H141348   1.586   0.931  13.551  0.1430  1.0196 -2.1200
 6619TIP3    H241349   1.444   0.913  13.602  1.0178 -0.9424 -0.1910
 6620TIP3   OH241350   2.679   5.443   4.907 -0.6334 -0.0704  0.0302
 6620TIP3    H141351   2.587   5.437   4.932 -0.9830  1.7403 -0.6216
 6620TIP3    H241352   2.727   5.438   4.990 -1.5081  1.5972  0.6778
 6621TIP3   OH241353   5.901   5.915  16.650  0.4705  0.5077 -0.3222
 6621TIP3    H141354   5.972   5.882  16.705  0.2043  0.0206 -0.2653
 6621TIP3    H241355   5.908   5.864  16.569 -0.5160 -0.3773  0.1186
 6622TIP3   OH241356   3.123   1.104   2.461  0.2539 -0.4607 -0.1807
 6622TIP3    H141357   3.209   1.145   2.450  0.6873 -0.7627  1.7505
 6622TIP3    H241358   3.126   1.028   2.402  1.4074 -0.6002  0.0222
 6623TIP3   OH241359   2.691   1.390   1.345 -0.1957 -0.0792 -0.1362
 6623TIP3    H141360   2.695   1.296   1.331  3.1333 -0.3267  1.5755
 6623TIP3    H241361   2.616   1.402   1.404 -1.0804 -1.5202 -0.9126
 6624TIP3   OH241362   1.310   5.355   1.214 -0.4309 -0.1646  0.3546
 6624TIP3    H141363   1.257   5.284   1.252 -2.5816  1.0643 -0.1666
 6624TIP3    H241364   1.270   5.371   1.128  0.9455  0.7178 -0.1480
 6625TIP3   OH241365   5.521   5.130  11.744  0.3404 -0.4630 -0.2053
 6625TIP3    H141366   5.573   5.205  11.773 -0.3769  0.2461 -0.7164
 6625TIP3    H241367   5.497   5.151  11.653 -0.4478 -0.9855 -0.1312
 6626TIP3   OH241368   3.717   0.246   3.028 -0.1503  0.1081 -0.0623
 6626TIP3    H141369   3.795   0.258   2.974  1.7616 -0.4266  2.3940
 6626TIP3    H241370   3.658   0.193   2.974  1.3908  0.1049 -1.8160
 6627TIP3   OH241371   1.764   5.232   2.589  0.7207 -0.6693 -0.5802
 6627TIP3    H141372   1.764   5.180   2.669  1.4345 -0.5218 -0.4759
 6627TIP3    H241373   1.751   5.322   2.618  0.8510 -0.6309 -0.6390
 6628TIP3   OH241374   6.606   3.094   0.933  0.5486  0.3224 -0.6615
 6628TIP3    H141375   6.607   3.014   0.882 -0.8391  0.5075 -1.0228
 6628TIP3    H241376   6.513   3.115   0.944  0.8617  1.4324  0.1295
 6629TIP3   OH241377   0.499   4.985   3.723 -0.3735  0.4344 -0.0269
 6629TIP3    H141378   0.542   5.029   3.649 -0.3003  1.6408  0.6954
 6629TIP3    H241379   0.566   4.928   3.759 -0.8071 -1.2300 -1.6830
 6630TIP3   OH241380   0.132   4.996   4.151 -0.0737  0.0599 -0.7066
 6630TIP3    H141381   0.079   4.918   4.168  0.4310 -0.1676 -0.1502
 6630TIP3    H241382   0.068   5.065   4.132 -0.5670 -0.2153 -0.0848
 6631TIP3   OH241383   0.944   3.826  17.086 -0.3073 -0.3562 -0.3655
 6631TIP3    H141384   0.926   3.882  17.011  4.2629  1.5061 -0.4230
 6631TIP3    H241385   0.897   3.866  17.159 -0.2796  1.2246 -1.1825
 6632TIP3   OH241386   4.031   4.641  14.920 -0.3209 -0.1490 -0.0613
 6632TIP3    H141387   3.959   4.644  14.982 -1.9952  1.9308 -1.9464
 6632TIP3    H241388   4.046   4.732  14.895  0.8527 -0.8035 -2.0052
 6633TIP3   OH241389   1.095   2.996  15.649  0.3977  0.3924  0.3928
 6633TIP3    H141390   1.010   3.021  15.687  1.0999  1.6611  1.1820
 6633TIP3    H241391   1.159   3.048  15.697  1.6466 -0.6054 -0.1414
 6634TIP3   OH241392   0.200   0.360  12.869  0.1584 -0.0627 -0.3204
 6634TIP3    H141393   0.141   0.371  12.795 -2.4614 -1.0324  1.5057
 6634TIP3    H241394   0.264   0.294  12.839 -0.9537 -0.5775 -1.6430
 6635TIP3   OH241395   3.397   6.412   2.204 -0.1545  0.6412  0.0831
 6635TIP3    H141396   3.319   6.367   2.171  0.1370  0.2588 -0.0961
 6635TIP3    H241397   3.463   6.398   2.136 -0.1364  1.5867 -0.1062
 6636TIP3   OH241398   1.325   1.683  16.135  0.0407  0.0362 -0.2486
 6636TIP3    H141399   1.251   1.632  16.100  0.0824  1.4231 -2.5701
 6636TIP3    H241400   1.403   1.635  16.107  0.0890  1.4065 -2.7138
 6637TIP3   OH241401   5.474   5.217   2.364  0.5015  0.0768  0.4006
 6637TIP3    H141402   5.387   5.192   2.333  0.1500  1.9555 -0.2564
 6637TIP3    H241403   5.524   5.238   2.285  0.9943  0.6819  0.8565
 6638TIP3   OH241404   0.271   0.018  15.953  0.2170 -0.0713  0.3397
 6638TIP3    H141405   0.224  -0.025  15.881  2.0191 -1.2480 -0.1975
 6638TIP3    H241406   0.209   0.016  16.026 -0.4649 -1.9544 -0.2139
 6639TIP3   OH241407   5.719   2.404   2.646  0.3936  0.4392 -0.3604
 6639TIP3    H141408   5.778   2.477   2.626  1.6934 -0.4549  0.1015
 6639TIP3    H241409   5.764   2.354   2.713 -0.9557 -0.2297  0.0835
 6640TIP3   OH241410   1.309   3.248  14.739  0.0317  0.3716  0.0617
 6640TIP3    H141411   1.249   3.177  14.715  0.9518  0.0827 -1.4908
 6640TIP3    H241412   1.359   3.266  14.659 -0.0295  2.6429  0.4743
 6641TIP3   OH241413   2.585   1.194  16.505 -0.2731 -0.1729  0.1966
 6641TIP3    H141414   2.674   1.190  16.470 -0.0371 -1.4435  0.8688
 6641TIP3    H241415   2.581   1.276  16.554  0.1220  0.4917 -0.8543
 6642TIP3   OH241416   2.737   4.419  16.263  0.0141 -0.7706  0.1571
 6642TIP3    H141417   2.760   4.506  16.230  0.2184 -1.1713 -0.7756
 6642TIP3    H241418   2.765   4.359  16.194 -0.6660 -1.5322  0.5306
 6643TIP3   OH241419   6.140   6.309  13.413 -0.5861 -0.0995 -0.3217
 6643TIP3    H141420   6.184   6.229  13.384  0.3473  1.1071 -2.4575
 6643TIP3    H241421   6.066   6.278  13.465  0.7720 -2.2792  0.4486
 6644TIP3   OH241422   1.849   1.509   4.516  0.4609 -0.4342  0.0595
 6644TIP3    H141423   1.912   1.446   4.480  1.4252  1.7538 -2.4101
 6644TIP3    H241424   1.853   1.496   4.610  3.7818 -1.1801 -0.0551
 6645TIP3   OH241425   4.874   5.850   0.509 -0.2486  0.0175  0.2233
 6645TIP3    H141426   4.943   5.916   0.507  0.6750 -0.9584 -0.5623
 6645TIP3    H241427   4.919   5.766   0.511 -1.3772 -0.6887 -1.5446
 6646TIP3   OH241428   2.486   3.089   3.139 -0.4371  0.2282 -0.2548
 6646TIP3    H141429   2.465   3.142   3.216 -0.7742 -1.4978  0.8854
 6646TIP3    H241430   2.544   3.020   3.171  2.1794  1.3233 -2.2017
 6647TIP3   OH241431   6.513   6.650   5.374 -0.2680 -0.1071  0.3065
 6647TIP3    H141432   6.512   6.575   5.314  0.9712 -1.0452  1.3966
 6647TIP3    H241433   6.526   6.726   5.317  0.3818 -0.9238 -0.6673
 6648TIP3   OH241434   5.069   3.076   4.050  0.2762 -0.4569 -0.4357
 6648TIP3    H141435   5.112   2.995   4.080 -1.9567 -0.6838  2.6613
 6648TIP3    H241436   5.047   3.122   4.131 -2.2310  1.2592 -1.9730
 6649TIP3   OH241437   0.841   2.535  13.370  0.1216 -0.1555  0.5665
 6649TIP3    H141438   0.802   2.571  13.290 -0.0177  0.1076  0.7536
 6649TIP3    H241439   0.766   2.511  13.424  0.2021 -1.0478  0.3056
 6650TIP3   OH241440   6.053   2.881  14.496  0.0091  0.1572 -0.3803
 6650TIP3    H141441   6.068   2.933  14.417 -0.6829 -0.5893 -1.0185
 6650TIP3    H241442   6.121   2.814  14.494 -1.1598 -1.0651 -1.4119
 6651TIP3   OH241443   6.329   0.475   4.818  0.1442  0.7312  0.4837
 6651TIP3    H141444   6.402   0.414   4.824 -0.0686  0.0973 -2.0924
 6651TIP3    H241445   6.365   0.551   4.773 -0.6190  0.6298 -0.3396
 6652TIP3   OH241446   4.326   4.731   4.895 -0.0572  0.2694  0.3795
 6652TIP3    H141447   4.388   4.660   4.885  1.0098  0.9336  1.9289
 6652TIP3    H241448   4.260   4.715   4.828  1.9493 -0.2599 -1.5898
 6653TIP3   OH241449   4.329   5.814  16.077 -0.1997 -0.1876 -0.2675
 6653TIP3    H141450   4.303   5.808  15.985  2.6958  0.0677 -1.2294
 6653TIP3    H241451   4.354   5.906  16.089 -1.0025 -0.1051  0.9445
 6654TIP3   OH241452   2.219   6.423   1.806 -0.5408 -0.3117  0.8493
 6654TIP3    H141453   2.261   6.452   1.725 -1.8857  0.4211  0.3787
 6654TIP3    H241454   2.268   6.466   1.876 -0.1000 -0.0036  0.3551
 6655TIP3   OH241455   6.641   6.753  15.591 -0.6835 -0.2238 -0.1997
 6655TIP3    H141456   6.670   6.785  15.506 -1.3314  0.6865 -0.0925
 6655TIP3    H241457   6.579   6.683  15.571 -2.1415  1.1162 -0.5393
 6656TIP3   OH241458   6.208   5.241  11.764 -0.0621  0.7910 -0.0909
 6656TIP3    H141459   6.201   5.334  11.740  2.1153  1.4654  1.5449
 6656TIP3    H241460   6.135   5.226  11.823  1.5423  2.5929  2.5798
 6657TIP3   OH241461   3.276   2.577  14.824 -0.1681  0.1129  0.0644
 6657TIP3    H141462   3.242   2.666  14.830 -0.1434  0.0898  0.5835
 6657TIP3    H241463   3.369   2.588  14.806  0.1265  0.2203  1.5579
 6658TIP3   OH241464   3.179   5.603  15.983 -0.5466  0.6227  0.4431
 6658TIP3    H141465   3.154   5.669  16.047 -0.6862 -0.0138  1.0656
 6658TIP3    H241466   3.252   5.642  15.935 -0.5001  1.1457  0.9324
 6659TIP3   OH241467   2.812   5.477   0.315 -0.1228 -0.7085 -0.4748
 6659TIP3    H141468   2.887   5.537   0.325 -1.4964  0.8382  1.1892
 6659TIP3    H241469   2.841   5.396   0.356  1.1150 -0.6007 -1.0858
 6660TIP3   OH241470   2.672   1.600   4.883 -0.2433  0.0887  0.2070
 6660TIP3    H141471   2.766   1.603   4.897 -0.0876  0.2706 -0.7921
 6660TIP3    H241472   2.656   1.512   4.848 -0.4711 -0.0030  0.5351
 6661TIP3   OH241473   6.139   0.902  13.773 -0.1292 -0.3067 -0.0660
 6661TIP3    H141474   6.118   0.919  13.865  0.3223  0.7360 -0.1451
 6661TIP3    H241475   6.094   0.971  13.725 -0.3315 -0.8217 -0.6349
 6662TIP3   OH241476   4.365   4.350   1.680 -0.5985 -0.1367 -0.0680
 6662TIP3    H141477   4.363   4.416   1.611 -1.9164 -1.4078 -1.3004
 6662TIP3    H241478   4.452   4.360   1.719  0.1264  0.7450 -1.7840
 6663TIP3   OH241479   1.419   2.124  15.749  0.0274  0.2879 -0.4233
 6663TIP3    H141480   1.506   2.106  15.785  0.3356  2.8115  0.2486
 6663TIP3    H241481   1.386   2.197  15.801 -3.1006 -1.4073  0.2215
 6664TIP3   OH241482   4.105   2.197  16.286 -0.6199  0.2332 -0.0907
 6664TIP3    H141483   4.178   2.213  16.226 -1.9048  1.6193 -1.3359
 6664TIP3    H241484   4.121   2.109  16.319  1.3628  0.3170 -0.6905
 6665TIP3   OH241485   6.430   4.618   5.400  0.2629  0.8213 -0.2190
 6665TIP3    H141486   6.431   4.626   5.495 -1.9608 -0.6052 -0.0037
 6665TIP3    H241487   6.500   4.555   5.381  0.6590  1.0449  0.4718
 6666TIP3   OH241488   1.073   3.471   5.445 -0.1270 -0.0770  0.3771
 6666TIP3    H141489   1.138   3.526   5.402 -0.5975 -0.1214 -0.4208
 6666TIP3    H241490   1.040   3.524   5.517  1.4222 -0.3970  1.3672
 6667TIP3   OH241491   6.176   2.167  15.474  0.2619 -0.2059  0.0521
 6667TIP3    H141492   6.146   2.137  15.559  0.5913 -0.6199  0.0276
 6667TIP3    H241493   6.271   2.151  15.475  0.4028  0.5911 -0.0619
 6668TIP3   OH241494   0.552   1.821   4.029  0.2561 -0.0374 -0.9377
 6668TIP3    H141495   0.511   1.734   4.032  0.2674 -0.0440 -0.9699
 6668TIP3    H241496   0.639   1.807   4.066 -0.7728  0.5590  1.9242
 6669TIP3   OH241497   6.310   6.605   1.107 -0.4809 -0.0254 -0.6017
 6669TIP3    H141498   6.352   6.611   1.021 -0.3108  2.3730 -0.4213
 6669TIP3    H241499   6.217   6.592   1.088 -0.2936 -0.6652 -1.1125
 6670TIP3   OH241500   4.781   4.553  13.639  0.4161  0.5242 -0.4901
 6670TIP3    H141501   4.873   4.534  13.660  1.0779  1.6638 -2.1148
 6670TIP3    H241502   4.767   4.508  13.555 -0.8651 -0.5451  0.2753
 6671TIP3   OH241503   1.395   6.582   4.239 -0.3489  0.1640  0.2204
 6671TIP3    H141504   1.303   6.555   4.247 -0.0537 -0.4972  1.7117
 6671TIP3    H241505   1.407   6.646   4.309  0.3691  0.1311  0.1346
 6672TIP3   OH241506   5.451   1.363  12.004 -0.2268 -0.0764 -0.3306
 6672TIP3    H141507   5.426   1.393  11.917 -2.3321 -0.8177 -0.0402
 6672TIP3    H241508   5.475   1.444  12.051 -3.8560  1.0699 -0.1562
 6673TIP3   OH241509   6.057   5.604   2.579  0.0157 -0.4259  0.6390
 6673TIP3    H141510   6.097   5.674   2.527 -0.4700  0.1105  0.9825
 6673TIP3    H241511   6.117   5.591   2.653 -0.2606  0.1316  0.9632
 6674TIP3   OH241512   0.354   1.083   0.083 -0.4231 -0.3683  0.0519
 6674TIP3    H141513   0.409   1.066   0.006  0.4036 -0.5197  0.6600
 6674TIP3    H241514   0.265   1.065   0.053 -0.0032 -1.5930 -0.5516
 6675TIP3   OH241515   3.095   0.953   2.985 -0.0060  0.0674  0.2086
 6675TIP3    H141516   3.002   0.951   3.005 -0.3391 -0.2545 -1.2183
 6675TIP3    H241517   3.111   0.870   2.941  0.7347  0.5376 -0.4352
 6676TIP3   OH241518   0.758   3.862  16.501 -0.2696  0.7215  0.0361
 6676TIP3    H141519   0.802   3.872  16.585 -2.2725 -0.8095  1.3781
 6676TIP3    H241520   0.670   3.898  16.516 -0.2570  1.6575 -1.8456
 6677TIP3   OH241521   5.530   2.760  14.208  0.1315  0.1420 -0.1959
 6677TIP3    H141522   5.553   2.763  14.301 -0.3691 -0.3168 -0.0481
 6677TIP3    H241523   5.454   2.818  14.200 -0.4433 -0.5757 -0.1168
 6678TIP3   OH241524   2.422   4.660   5.489  0.0086  0.4549  0.2247
 6678TIP3    H141525   2.410   4.739   5.436  0.1661  1.0485  1.0650
 6678TIP3    H241526   2.335   4.621   5.494  0.4241 -1.1903 -2.8433
 6679TIP3   OH241527   5.964   3.373   1.748 -0.1013  0.2656 -0.5004
 6679TIP3    H141528   6.001   3.286   1.732 -0.1089  0.0617  0.5414
 6679TIP3    H241529   6.021   3.411   1.815 -1.2487  0.2838  0.4977
 6680TIP3   OH241530   5.847   0.035   5.410 -0.8973 -0.9462  0.2799
 6680TIP3    H141531   5.812   0.083   5.335 -2.4359 -3.5868 -0.7995
 6680TIP3    H241532   5.903   0.099   5.455 -3.3720  2.0509 -0.6037
 6681TIP3   OH241533   2.717   0.114   1.932 -0.0429  0.1347  0.1758
 6681TIP3    H141534   2.695   0.206   1.917 -0.1853  0.1672  0.5936
 6681TIP3    H241535   2.633   0.071   1.950  0.1769  0.1986  1.4462
 6682TIP3   OH241536   0.757   6.603  15.235  0.8056 -0.0170 -0.2931
 6682TIP3    H141537   0.677   6.614  15.285  1.3430  3.8995  0.0255
 6682TIP3    H241538   0.821   6.571  15.298  0.0493 -1.0742 -0.0385
 6683TIP3   OH241539   3.561   1.306   5.001 -0.6816 -0.5265  0.0215
 6683TIP3    H141540   3.623   1.364   4.957  0.9580 -2.0842  0.1723
 6683TIP3    H241541   3.508   1.269   4.930 -0.8525  0.1481 -0.2025
 6684TIP3   OH241542   1.162   1.821  15.012  0.3150 -0.3409  0.2612
 6684TIP3    H141543   1.115   1.743  14.984 -0.0102 -0.2868  0.6523
 6684TIP3    H241544   1.094   1.884  15.035  0.5671  0.2599 -0.5778
 6685TIP3   OH241545   6.429   5.027   6.057  0.0752 -0.4828  0.1482
 6685TIP3    H141546   6.432   4.932   6.043  0.9882 -0.4358 -0.0184
 6685TIP3    H241547   6.338   5.050   6.037 -0.0669 -1.2650 -0.1886
 6686TIP3   OH241548   5.550   2.191   0.788  0.6022  0.5499  0.2635
 6686TIP3    H141549   5.615   2.247   0.746  0.4229 -0.6161 -1.6967
 6686TIP3    H241550   5.569   2.103   0.755 -1.1588 -0.0235  0.6636
 6687TIP3   OH241551   3.943   5.361   3.402  0.4002  0.0695  0.1897
 6687TIP3    H141552   4.027   5.407   3.398  1.1754 -1.3622 -1.2899
 6687TIP3    H241553   3.967   5.269   3.415 -0.9326 -0.3470 -0.1614
 6688TIP3   OH241554   0.764   0.055  13.101 -0.3072  0.6056  0.9198
 6688TIP3    H141555   0.810   0.089  13.178  0.7875 -0.6949  0.8721
 6688TIP3    H241556   0.806   0.098  13.027  0.4220 -0.1135  0.9114
 6689TIP3   OH241557   5.796   6.420  15.367 -0.6057 -0.3553 -0.1216
 6689TIP3    H141558   5.711   6.392  15.330 -0.8514  0.6894 -0.3678
 6689TIP3    H241559   5.773   6.471  15.444 -0.0792 -2.8956  1.8333
 6690TIP3   OH241560   0.503   6.082   2.795 -0.3535  0.1468 -0.3392
 6690TIP3    H141561   0.518   6.123   2.710  0.1701 -0.3047 -0.4699
 6690TIP3    H241562   0.526   5.990   2.781 -2.1182 -0.3442 -0.2275
 6691TIP3   OH241563   6.340   6.050   4.379  0.7853  0.1804 -0.3605
 6691TIP3    H141564   6.352   6.075   4.470 -1.8670  0.8068 -0.1001
 6691TIP3    H241565   6.356   5.956   4.377 -1.0547 -0.2073  1.1890
 6692TIP3   OH241566   5.169   6.029  14.883 -0.2609 -0.6754 -0.5222
 6692TIP3    H141567   5.254   6.049  14.843  0.3509  1.0712  1.4487
 6692TIP3    H241568   5.107   6.087  14.838  0.3734  1.0907  0.7833
 6693TIP3   OH241569   1.161   2.199   3.115 -0.5723 -0.0083  0.2151
 6693TIP3    H141570   1.189   2.229   3.029 -2.3766  3.9675  0.7844
 6693TIP3    H241571   1.214   2.250   3.177 -2.6146  0.8717  1.3269
 6694TIP3   OH241572   6.464   0.326   0.756 -0.7690  0.2849  0.0240
 6694TIP3    H141573   6.525   0.400   0.760 -0.2786 -0.1107  3.6931
 6694TIP3    H241574   6.510   0.260   0.703  1.3527  0.6115  1.3094
 6695TIP3   OH241575   3.660   2.171  12.387  0.3072  0.3065  0.4719
 6695TIP3    H141576   3.706   2.218  12.318  1.9359 -0.7996  0.7492
 6695TIP3    H241577   3.631   2.090  12.345  1.0156 -0.2209  0.9766
 6696TIP3   OH241578   3.723   4.722   0.876 -0.3547 -0.9809  0.5876
 6696TIP3    H141579   3.811   4.690   0.857  0.3957  0.1567  1.9612
 6696TIP3    H241580   3.716   4.718   0.971 -1.9226 -1.3373  0.4861
 6697TIP3   OH241581   3.609   0.221   0.856  0.0149 -0.5881  0.3279
 6697TIP3    H141582   3.621   0.127   0.867 -1.4754 -0.7807  0.4826
 6697TIP3    H241583   3.695   0.253   0.828  0.9457 -1.7427  1.7642
 6698TIP3   OH241584   6.085   3.967  12.087  0.1064 -0.0648 -0.0519
 6698TIP3    H141585   6.072   4.031  12.156  0.0307 -0.6789  0.5099
 6698TIP3    H241586   6.181   3.956  12.082  0.0547 -1.3515  1.2133
 6699TIP3   OH241587   2.654   6.199   1.740 -0.2576  0.3722 -0.2774
 6699TIP3    H141588   2.722   6.223   1.803  0.4423  1.6384 -1.4640
 6699TIP3    H241589   2.597   6.276   1.735 -0.8773 -0.0859 -0.4729
 6700TIP3   OH241590   1.567   4.787   3.108  0.0384  0.0725  0.1567
 6700TIP3    H141591   1.490   4.831   3.071 -0.8057  0.1650  1.9491
 6700TIP3    H241592   1.641   4.822   3.058 -1.1481 -1.1805 -2.7245
 6701TIP3   OH241593   5.171   6.491  11.371  0.4978  0.6313 -0.0061
 6701TIP3    H141594   5.229   6.461  11.301 -1.3970 -0.3053 -1.2470
 6701TIP3    H241595   5.085   6.460  11.346 -0.5254  1.7075  1.9437
 6702TIP3   OH241596   2.536   0.373  12.522 -0.5902  0.3674  0.0424
 6702TIP3    H141597   2.498   0.407  12.603  0.6598  0.0742  0.7679
 6702TIP3    H241598   2.570   0.451  12.478  0.0947  0.3561  0.5401
 6703TIP3   OH241599   2.982   2.901  17.007 -0.3663  0.2184 -0.2772
 6703TIP3    H141600   2.986   2.978  17.064 -1.9569 -0.2471  0.5423
 6703TIP3    H241601   2.925   2.840  17.054  1.7887 -1.9785 -0.3031
 6704TIP3   OH241602   2.172   5.407  13.081 -0.0120  0.4508  0.0160
 6704TIP3    H141603   2.097   5.400  13.022 -0.5007  1.9478  0.4301
 6704TIP3    H241604   2.182   5.500  13.097  1.8571  0.2713  0.1133
 6705TIP3   OH241605   2.025   1.108  14.721  0.0212  0.4549 -0.0800
 6705TIP3    H141606   1.929   1.104  14.729 -0.0129  0.6598 -0.3655
 6705TIP3    H241607   2.045   1.052  14.646  0.0496  1.0338 -0.5187
 6706TIP3   OH241608   1.574   3.586   2.982  0.6817 -0.0543 -0.2901
 6706TIP3    H141609   1.573   3.575   3.077 -1.3666 -0.8746 -0.3367
 6706TIP3    H241610   1.574   3.681   2.969  3.1196  0.1217  0.4353
 6707TIP3   OH241611   2.915   3.250  13.074  0.2657  0.3003  0.6938
 6707TIP3    H141612   2.852   3.307  13.029  1.0933  0.8438  0.1913
 6707TIP3    H241613   3.001   3.282  13.044  0.7937 -0.0693  1.7846
 6708TIP3   OH241614   2.851   4.959   5.439 -0.6832 -0.0948 -0.9148
 6708TIP3    H141615   2.860   4.934   5.531 -2.0537  0.4035 -0.6307
 6708TIP3    H241616   2.938   4.944   5.402 -0.6213 -2.2567 -0.0402
 6709TIP3   OH241617   0.417   0.688   5.600  0.0235 -0.4071  0.0051
 6709TIP3    H141618   0.331   0.655   5.573  0.8985 -1.2965 -1.8539
 6709TIP3    H241619   0.415   0.781   5.581 -0.6090 -0.3792  0.2016
 6710TIP3   OH241620   0.584   3.507  14.900  0.4783 -0.2021  0.0701
 6710TIP3    H141621   0.624   3.536  14.982  3.3698 -1.4975 -0.7251
 6710TIP3    H241622   0.598   3.579  14.839  1.6129 -0.5986 -0.1687
 6711TIP3   OH241623   2.975   1.207   5.038 -0.0355 -0.1164 -0.0306
 6711TIP3    H141624   2.899   1.175   4.990 -0.1804 -0.2910  0.3071
 6711TIP3    H241625   2.938   1.258   5.110  0.1909  0.5699 -0.3968
 6712TIP3   OH241626   6.722   0.130   4.028 -0.2292 -0.2823  0.0027
 6712TIP3    H141627   6.775   0.190   3.976  0.1158 -1.1300 -0.6527
 6712TIP3    H241628   6.659   0.094   3.966 -0.9367 -0.0205  0.5619
 6713TIP3   OH241629   1.968   4.609  12.000 -0.0447 -0.1970  0.6026
 6713TIP3    H141630   1.883   4.651  12.015  0.3887  0.7831  0.4121
 6713TIP3    H241631   1.982   4.617  11.906  0.2829 -0.2933  0.6432
 6714TIP3   OH241632   0.467   6.227  11.711  0.6119 -0.1867 -0.3293
 6714TIP3    H141633   0.402   6.296  11.699  0.1203 -0.5797 -0.0204
 6714TIP3    H241634   0.551   6.270  11.698  0.2406 -0.0392 -2.4927
 6715TIP3   OH241635   1.488   5.215   2.342  0.4232  0.2178  0.3653
 6715TIP3    H141636   1.556   5.280   2.361 -0.7542  1.5572  0.1985
 6715TIP3    H241637   1.454   5.241   2.257  1.4796 -2.0481 -0.8233
 6716TIP3   OH241638   1.169   5.129   2.546 -0.1490 -0.3529 -0.7217
 6716TIP3    H141639   1.112   5.062   2.584  0.3718 -1.1673 -1.3483
 6716TIP3    H241640   1.142   5.135   2.455  1.1865 -1.2269 -1.1983
 6717TIP3   OH241641   5.710   0.965  15.529 -0.3048 -0.3367  0.3838
 6717TIP3    H141642   5.684   0.894  15.587  0.5373 -1.0298 -0.0709
 6717TIP3    H241643   5.732   0.923  15.446  0.4696  0.4163  0.1902
 6718TIP3   OH241644   3.485   5.699   5.213  0.0013 -0.4541  0.4390
 6718TIP3    H141645   3.546   5.640   5.168  0.1873  0.9748 -1.2975
 6718TIP3    H241646   3.404   5.693   5.163 -0.0445  0.5807  0.3607
 6719TIP3   OH241647   5.519   3.846   1.951  0.0241 -0.0190 -0.1828
 6719TIP3    H141648   5.483   3.758   1.941  2.9441 -1.2554 -1.0627
 6719TIP3    H241649   5.612   3.832   1.973  0.3695  2.8581  0.7185
 6720TIP3   OH241650   1.232   0.006   4.905  0.1346  0.0018  0.1065
 6720TIP3    H141651   1.240   0.099   4.923  1.7745  0.0686 -0.7549
 6720TIP3    H241652   1.278  -0.007   4.822  0.1057 -1.5953  0.2930
 6721TIP3   OH241653   5.616   4.722   1.846 -0.1148  0.4700  0.3432
 6721TIP3    H141654   5.672   4.787   1.803 -0.1022 -0.6115 -1.3865
 6721TIP3    H241655   5.662   4.639   1.834  0.1178  0.1488  2.9544
 6722TIP3   OH241656   1.816   5.708   2.561  0.1365  0.2556  0.0470
 6722TIP3    H141657   1.863   5.625   2.563 -0.8088 -0.3864 -1.9836
 6722TIP3    H241658   1.734   5.690   2.606 -0.3344 -0.1140 -0.9376
 6723TIP3   OH241659   2.904   4.760   3.557  0.0932  0.5069 -0.1969
 6723TIP3    H141660   2.812   4.788   3.559 -0.3545 -0.8465 -0.5097
 6723TIP3    H241661   2.954   4.841   3.566 -1.1296  1.1489  1.3015
 6724TIP3   OH241662   3.989   1.313   1.067  0.3537  0.2566  0.1521
 6724TIP3    H141663   4.080   1.344   1.074  0.6730 -0.0131 -1.9750
 6724TIP3    H241664   3.943   1.387   1.026  0.2393 -0.5452 -1.2332
 6725TIP3   OH241665   1.304   2.632  16.164 -0.9613 -0.5818 -0.3834
 6725TIP3    H141666   1.249   2.604  16.237  1.0666 -0.9355  1.0809
 6725TIP3    H241667   1.245   2.631  16.088 -2.5106 -2.7052  0.7447
 6726TIP3   OH241668   1.783   4.278  13.396 -0.1501  0.1763  0.2154
 6726TIP3    H141669   1.829   4.294  13.313  0.5947  1.0451  0.7732
 6726TIP3    H241670   1.734   4.358  13.412 -0.7102 -0.1926  0.3561
 6727TIP3   OH241671   6.005   2.689   4.430 -0.5628  0.3602 -0.0960
 6727TIP3    H141672   6.014   2.738   4.512 -1.6393  0.4279 -0.0014
 6727TIP3    H241673   6.063   2.614   4.441 -0.6526  0.3944  0.7128
 6728TIP3   OH241674   4.338   6.273  15.204  0.1235 -0.3533  0.2860
 6728TIP3    H141675   4.347   6.365  15.228 -1.6359  0.1674 -0.8693
 6728TIP3    H241676   4.394   6.262  15.128 -0.2503 -0.0382 -0.0351
 6729TIP3   OH241677   4.690   4.747  14.852  0.6663  0.2887 -0.2283
 6729TIP3    H141678   4.733   4.777  14.931  1.8387  0.6418 -0.9717
 6729TIP3    H241679   4.631   4.677  14.881  0.8566  0.6178  0.9787
 6730TIP3   OH241680   0.913   1.364   0.020 -0.1177  0.2517 -0.0362
 6730TIP3    H141681   0.866   1.295  -0.027  1.5866 -0.7174 -0.3719
 6730TIP3    H241682   0.879   1.358   0.110 -0.4435 -0.6013 -0.2040
 6731TIP3   OH241683   1.878   4.293   6.477 -0.1468  0.3252  0.7447
 6731TIP3    H141684   1.926   4.325   6.553  0.3658  0.3312  0.4214
 6731TIP3    H241685   1.816   4.364   6.456  1.1296  1.2320 -0.0978
 6732TIP3   OH241686   0.597   6.302   1.530 -0.0238 -0.2894 -0.1326
 6732TIP3    H141687   0.584   6.240   1.601  0.7557  0.0155  0.2993
 6732TIP3    H241688   0.585   6.251   1.450 -1.5342 -0.4948  0.2059
 6733TIP3   OH241689   4.249   2.944   3.987  0.4216 -0.6873  0.3797
 6733TIP3    H141690   4.325   2.909   4.032  0.9016  0.3050  0.3560
 6733TIP3    H241691   4.283   2.976   3.903  0.1251  0.4281  0.6688
 6734TIP3   OH241692   1.288   5.136  14.217  0.1565  1.3157  0.4707
 6734TIP3    H141693   1.375   5.119  14.253  0.5725 -0.2214 -1.1342
 6734TIP3    H241694   1.282   5.231  14.212  1.2495  1.4728  1.7465
 6735TIP3   OH241695   4.841   2.730   4.994  0.2772 -0.0444 -0.1664
 6735TIP3    H141696   4.756   2.773   4.994 -0.2846 -1.1151  0.6416
 6735TIP3    H241697   4.900   2.794   5.034 -0.3256  0.3717  0.0655
 6736TIP3   OH241698   4.376   5.381   4.308  0.0863 -0.2578  0.2319
 6736TIP3    H141699   4.370   5.453   4.245 -0.6210 -0.6363 -0.1443
 6736TIP3    H241700   4.457   5.336   4.285  0.7765  0.6691  0.7603
 6737TIP3   OH241701   5.725   4.699   0.692 -0.6189 -0.4644 -0.1596
 6737TIP3    H141702   5.716   4.604   0.690 -0.8534 -0.4489  0.0523
 6737TIP3    H241703   5.686   4.725   0.776  2.4631 -0.4860  1.4460
 6738TIP3   OH241704   0.641   5.192   2.729 -0.0406  0.4026 -0.1319
 6738TIP3    H141705   0.589   5.136   2.671 -0.2749 -1.0178  1.3824
 6738TIP3    H241706   0.728   5.153   2.729  0.3321  1.2133 -0.5920
 6739TIP3   OH241707   5.527   2.935  11.577  0.1171  1.0357 -0.4772
 6739TIP3    H141708   5.445   2.953  11.622 -1.8429 -1.4099 -2.7488
 6739TIP3    H241709   5.591   2.920  11.647 -1.3991  2.6833  1.3485
 6740TIP3   OH241710   5.140   4.489   3.243  0.2419 -0.0810  0.5807
 6740TIP3    H141711   5.136   4.438   3.324 -0.5149  1.1121  1.3242
 6740TIP3    H241712   5.215   4.548   3.256 -0.8976  1.2961  1.1733
 6741TIP3   OH241713   4.885   3.143   3.067 -0.6699  0.3516 -0.0078
 6741TIP3    H141714   4.816   3.131   3.002 -0.2199 -0.1216 -0.4110
 6741TIP3    H241715   4.957   3.183   3.018  0.2929 -1.5258 -0.2274
 6742TIP3   OH241716   2.435   6.021   2.229  0.5177  0.4485 -0.3364
 6742TIP3    H141717   2.498   6.059   2.169  4.1034 -1.1172  2.0656
 6742TIP3    H241718   2.429   5.929   2.203 -1.1470  0.6483 -0.7482
 6743TIP3   OH241719   2.005   0.657  13.304 -0.0393  0.7781  0.4266
 6743TIP3    H141720   2.012   0.582  13.245  0.9602 -0.4153  1.9952
 6743TIP3    H241721   1.935   0.634  13.364  0.9649  0.5854  1.5661
 6744TIP3   OH241722   5.710   6.630  17.251 -0.3265 -0.6208 -0.3146
 6744TIP3    H141723   5.799   6.595  17.250  0.4260  1.1627 -0.7507
 6744TIP3    H241724   5.701   6.675  17.166 -1.4839 -0.3915 -0.0915
 6745TIP3   OH241725   6.063   5.895  14.312 -0.4697 -0.1453  0.5026
 6745TIP3    H141726   5.969   5.913  14.309 -0.5376  0.0588  2.7388
 6745TIP3    H241727   6.071   5.804  14.282 -1.6205 -0.8483  2.2014
 6746TIP3   OH241728   5.786   6.375   5.762  0.5342  0.0400  0.6227
 6746TIP3    H141729   5.769   6.416   5.677  1.7684  1.1684  0.8761
 6746TIP3    H241730   5.879   6.393   5.779  0.6880 -1.4503  1.5385
 6747TIP3   OH241731   2.540   2.656  11.431  0.0235 -0.4143  0.7048
 6747TIP3    H141732   2.567   2.613  11.350 -0.6721 -1.9487  1.2415
 6747TIP3    H241733   2.486   2.591  11.476 -3.2101  1.8615  0.4565
 6748TIP3   OH241734   3.301   4.406   5.133  0.2309 -0.0385 -0.4013
 6748TIP3    H141735   3.366   4.457   5.086 -0.0151  0.9917  0.3334
 6748TIP3    H241736   3.308   4.435   5.224 -0.8804 -0.2864 -0.2107
 6749TIP3   OH241737   1.417   5.926   4.481 -0.5931  0.0137 -0.4308
 6749TIP3    H141738   1.431   5.938   4.387 -0.3738  0.5574 -0.3294
 6749TIP3    H241739   1.420   6.014   4.518 -1.2960 -0.1351  0.0044
 6750TIP3   OH241740   1.006   3.107   0.973  0.3269  0.0182  0.5648
 6750TIP3    H141741   1.041   3.168   1.037 -0.9674  0.0700  1.2573
 6750TIP3    H241742   0.975   3.163   0.901  2.2923 -0.0722 -0.4207
 6751TIP3   OH241743   5.820   4.377   1.682 -0.1463 -0.3542 -0.2554
 6751TIP3    H141744   5.799   4.390   1.590 -0.5230  2.4236  0.1345
 6751TIP3    H241745   5.736   4.359   1.724 -0.5111  1.6197 -0.0401
 6752TIP3   OH241746   5.750   2.347   0.917  0.1969  0.5188 -0.0420
 6752TIP3    H141747   5.817   2.309   0.860  0.2553  0.3182  0.1574
 6752TIP3    H241748   5.763   2.441   0.910  0.1029  0.4977 -0.4823
 6753TIP3   OH241749   0.105   5.053   1.852  0.0098 -0.3285  0.9154
 6753TIP3    H141750   0.045   5.029   1.923 -1.9259 -2.2624 -1.1960
 6753TIP3    H241751   0.065   5.130   1.812 -0.2601 -0.7180  0.4279
 6754TIP3   OH241752   6.365   4.001   0.038  0.0448  0.0816 -0.6220
 6754TIP3    H141753   6.377   4.094   0.022  1.8272 -0.0816 -0.3690
 6754TIP3    H241754   6.329   3.967  -0.043  1.7478  0.5745 -1.6326
 6755TIP3   OH241755   6.074   2.002   3.400  0.4166 -0.0685 -0.3599
 6755TIP3    H141756   6.061   2.019   3.494 -1.1611  0.3012 -0.6074
 6755TIP3    H241757   5.988   1.975   3.369  1.2431 -1.5958 -1.4446
 6756TIP3   OH241758   0.740   6.726   2.830  0.4056 -0.4927 -0.2204
 6756TIP3    H141759   0.664   6.715   2.887  0.6538  0.4062  0.3163
 6756TIP3    H241760   0.705   6.720   2.741 -0.5654  1.3660 -0.0090
 6757TIP3   OH241761   2.005   6.503   1.082  0.4163 -0.0915 -0.1641
 6757TIP3    H141762   2.025   6.538   1.169 -4.4450  1.0054  0.8453
 6757TIP3    H241763   2.009   6.408   1.094 -0.0838  0.0414  1.3180
 6758TIP3   OH241764   3.623   2.583   0.325  0.4591  0.3777 -0.0830
 6758TIP3    H141765   3.591   2.509   0.273 -2.3719  2.3600 -1.4217
 6758TIP3    H241766   3.708   2.554   0.358  0.3647 -2.7059 -2.1222
 6759TIP3   OH241767   5.650   2.565   5.716 -0.1722  0.5518 -0.2050
 6759TIP3    H141768   5.681   2.540   5.629 -1.2387  0.4560 -0.5741
 6759TIP3    H241769   5.574   2.620   5.699 -1.2392 -0.5888  0.6564
 6760TIP3   OH241770   3.937   3.986   5.432 -0.2755  0.0849 -0.3491
 6760TIP3    H141771   3.979   3.910   5.474  2.7306  1.9258  0.2867
 6760TIP3    H241772   3.904   3.951   5.349  2.3596 -1.7035 -0.7924
 6761TIP3   OH241773   5.726   4.671   5.080  0.1916 -0.4171 -0.1059
 6761TIP3    H141774   5.652   4.610   5.082 -0.1457 -0.0097 -0.0792
 6761TIP3    H241775   5.771   4.652   4.998 -1.3188  0.9402 -1.3236
 6762TIP3   OH241776   1.142   2.201  14.555  0.4637  0.0596  0.6453
 6762TIP3    H141777   1.215   2.247  14.596  1.6578  0.7163 -2.0166
 6762TIP3    H241778   1.183   2.126  14.511 -0.2028  1.0801 -1.8848
 6763TIP3   OH241779   2.007   2.500  13.000  0.2954 -0.2801 -0.5710
 6763TIP3    H141780   2.029   2.458  13.083  0.4625  1.3844  0.2723
 6763TIP3    H241781   1.983   2.428  12.942  0.0788 -1.4792  0.9474
 6764TIP3   OH241782   4.448   1.076   2.389  0.2664 -0.3245  0.3126
 6764TIP3    H141783   4.540   1.103   2.385  0.2648 -0.3379  0.1534
 6764TIP3    H241784   4.428   1.071   2.482  0.5160 -0.6162  0.3556
 6765TIP3   OH241785   3.204   0.803   2.627  0.5326 -0.4240 -0.5951
 6765TIP3    H141786   3.258   0.872   2.666 -0.2062 -0.0350 -0.2396
 6765TIP3    H241787   3.114   0.827   2.650  0.3818 -3.0909  2.2373
 6766TIP3   OH241788   3.306   1.022  12.629 -0.4299  0.0711 -0.0342
 6766TIP3    H141789   3.378   1.061  12.679 -0.1087 -1.4982  0.7984
 6766TIP3    H241790   3.332   1.034  12.538  0.6294  0.0507  0.2436
 6767TIP3   OH241791   4.641   6.506  11.061  0.5533 -0.1403  0.1897
 6767TIP3    H141792   4.718   6.548  11.023  0.8287 -1.1649 -0.4351
 6767TIP3    H241793   4.604   6.571  11.121  2.9108 -0.2209  1.8526
 6768TIP3   OH241794   3.038   1.774  12.873 -0.2710 -0.2875  0.6740
 6768TIP3    H141795   2.995   1.853  12.907 -1.5807 -1.6921  2.4454
 6768TIP3    H241796   3.055   1.795  12.781 -1.6993  1.6129  0.7664
 6769TIP3   OH241797   1.817   5.126   0.560 -0.3355  0.2874  0.4306
 6769TIP3    H141798   1.740   5.084   0.521  0.1431  0.8850 -1.2372
 6769TIP3    H241799   1.823   5.088   0.648 -1.3266 -1.3259 -0.1511
 6770TIP3   OH241800   5.802   2.243  16.313 -0.1420 -0.3256  0.2591
 6770TIP3    H141801   5.816   2.176  16.380 -1.5140 -0.2471  0.6446
 6770TIP3    H241802   5.729   2.296  16.346  0.2050  0.7038 -0.5484
 6771TIP3   OH241803   1.261   1.308   4.458  0.0726 -0.2262 -0.0956
 6771TIP3    H141804   1.276   1.213   4.459  0.1579 -0.2157 -0.2711
 6771TIP3    H241805   1.244   1.331   4.550  1.1240 -0.2494  0.1202
 6772TIP3   OH241806   6.147   5.251  14.056  0.0589 -0.0267  0.3326
 6772TIP3    H141807   6.107   5.294  13.981 -1.6091  0.3963  1.3936
 6772TIP3    H241808   6.233   5.224  14.026 -0.8341 -0.5421 -1.9405
 6773TIP3   OH241809   0.146   6.190   3.178 -0.4481  0.4231  0.3322
 6773TIP3    H141810   0.205   6.160   3.247 -0.1923  0.5454  0.1673
 6773TIP3    H241811   0.191   6.168   3.096 -0.6023  0.5700  0.2067
 6774TIP3   OH241812   2.999   2.252  14.667 -0.3237 -0.9436 -0.1269
 6774TIP3    H141813   3.074   2.219  14.715  1.0847  2.5597  0.3402
 6774TIP3    H241814   2.936   2.277  14.734  1.2418  3.0220  0.0784
 6775TIP3   OH241815   3.634   0.268  13.544  0.6775  0.1295  0.1668
 6775TIP3    H141816   3.698   0.338  13.534  1.3591 -0.5978 -0.9057
 6775TIP3    H241817   3.666   0.216  13.617  0.5247  0.5704  0.5486
 6776TIP3   OH241818   4.223   3.604  14.769  0.1854  0.7185 -0.2706
 6776TIP3    H141819   4.203   3.690  14.731  0.1566  1.0371  0.4549
 6776TIP3    H241820   4.249   3.623  14.859 -0.2240 -0.0737  0.0273
 6777TIP3   OH241821   2.416   4.263   3.175  0.2573  0.2408  0.3549
 6777TIP3    H141822   2.501   4.278   3.134  0.7425 -1.5587  0.5880
 6777TIP3    H241823   2.358   4.237   3.103  0.6526 -1.2071  0.5269
 6778TIP3   OH241824   5.651   6.129   0.913 -0.3433  0.4277  0.0837
 6778TIP3    H141825   5.714   6.120   0.984 -0.9076  0.6940  0.6284
 6778TIP3    H241826   5.574   6.169   0.954 -1.2465 -0.7956 -0.3288
 6779TIP3   OH241827   6.757   5.961  14.581  0.2247  0.4737 -0.1747
 6779TIP3    H141828   6.807   6.016  14.521 -0.2635 -0.0442 -1.0813
 6779TIP3    H241829   6.806   5.965  14.663  0.5794  1.6791 -0.4221
 6780TIP3   OH241830   0.865   5.962   3.049 -0.5381  0.1828  0.6135
 6780TIP3    H141831   0.774   5.987   3.067 -0.4837 -0.2784  1.6398
 6780TIP3    H241832   0.865   5.866   3.054  0.3901  0.2346  2.8262
 6781TIP3   OH241833   1.460   0.469  11.072  0.0083  0.3106 -0.2360
 6781TIP3    H141834   1.423   0.534  11.013  0.3155  0.4337 -0.2957
 6781TIP3    H241835   1.414   0.388  11.051  1.9570 -0.3164 -2.5537
 6782TIP3   OH241836   2.087   2.126   2.461  0.1178 -0.0968  0.1293
 6782TIP3    H141837   2.131   2.188   2.518  0.5621 -0.6815  0.4335
 6782TIP3    H241838   2.152   2.103   2.395  0.6796 -1.8064  1.2236
 6783TIP3   OH241839   6.618   2.485   0.647  0.5174  0.2287 -0.0583
 6783TIP3    H141840   6.575   2.493   0.732 -1.7909 -0.8956 -1.0342
 6783TIP3    H241841   6.608   2.572   0.607 -2.3668 -0.3565 -0.8513
 6784TIP3   OH241842   2.930   4.855  14.098 -0.2718 -0.4211  0.1787
 6784TIP3    H141843   2.957   4.766  14.075 -1.8864 -0.5394 -1.5015
 6784TIP3    H241844   2.946   4.862  14.192  0.8144 -2.1218  0.1657
 6785TIP3   OH241845   2.926   6.544  15.839 -0.2243  0.6219 -0.4007
 6785TIP3    H141846   2.860   6.613  15.835 -0.3074  0.5231 -0.8266
 6785TIP3    H241847   2.913   6.493  15.758 -0.2737  0.0082 -0.0148
 6786TIP3   OH241848   6.278   3.209  14.086 -0.3187  0.5184 -0.4052
 6786TIP3    H141849   6.208   3.149  14.062 -1.5180  1.2772  0.9943
 6786TIP3    H241850   6.332   3.160  14.148 -1.0539  0.7120  0.4088
 6787TIP3   OH241851   3.413   3.519  12.357 -0.3696 -0.2909 -0.0796
 6787TIP3    H141852   3.433   3.552  12.445 -2.1632  0.4317  0.0830
 6787TIP3    H241853   3.390   3.596  12.306 -1.6003 -0.9392 -0.5411
 6788TIP3   OH241854   0.032   6.767   6.304 -0.1204  0.4255 -0.2390
 6788TIP3    H141855   0.013   6.720   6.386  0.6538  0.1144 -0.2359
 6788TIP3    H241856   0.107   6.722   6.267  0.0259  1.0579 -0.7325
 6789TIP3   OH241857   0.017   0.088  14.914  0.2542 -0.3138  0.8649
 6789TIP3    H141858   0.111   0.075  14.904  0.5520  1.5335  0.8101
 6789TIP3    H241859  -0.021   0.000  14.907  1.8786 -0.9868 -0.0892
 6790TIP3   OH241860   0.134   5.664  13.985  0.0796  0.2041  0.5440
 6790TIP3    H141861   0.087   5.608  14.046 -0.2967  1.2433  1.2330
 6790TIP3    H241862   0.194   5.605  13.939  0.7149 -0.5243  2.2333
 6791TIP3   OH241863   0.366   2.017   4.100 -0.4962 -0.0408  0.4348
 6791TIP3    H141864   0.433   2.083   4.116 -0.5940  0.1734  0.0021
 6791TIP3    H241865   0.414   1.939   4.074 -0.4288  0.4599 -1.0818
 6792TIP3   OH241866   3.061   6.555   2.763 -0.4330 -0.7068  0.3248
 6792TIP3    H141867   2.970   6.580   2.773 -0.8198 -1.9750  0.2132
 6792TIP3    H241868   3.069   6.528   2.672  0.1483 -0.2829  0.2396
 6793TIP3   OH241869   1.349   5.907   1.745  0.1424 -0.5800  0.2402
 6793TIP3    H141870   1.358   6.002   1.754  0.2679 -0.6251  0.5929
 6793TIP3    H241871   1.423   5.882   1.690  0.8079 -0.6251  1.1256
 6794TIP3   OH241872   5.101   4.046  13.663 -0.2346 -0.2280  0.0225
 6794TIP3    H141873   5.100   4.135  13.627  0.5679  0.0032  0.5597
 6794TIP3    H241874   5.136   3.992  13.591  1.4414  0.2465  0.4302
 6795TIP3   OH241875   4.961   5.585   4.198  0.4179  0.0729  0.2731
 6795TIP3    H141876   4.929   5.497   4.177  1.0361 -0.0402 -0.2373
 6795TIP3    H241877   5.050   5.586   4.163  2.1139 -0.6348  4.0273
 6796TIP3   OH241878   6.039   4.012  15.067  0.0036  0.3252 -0.2675
 6796TIP3    H141879   5.958   3.994  15.114  0.1394  1.1274  0.2868
 6796TIP3    H241880   6.057   4.104  15.083  0.6694  0.3281 -0.9491
 6797TIP3   OH241881   5.380   1.795  17.160  0.0498 -0.0221  0.0466
 6797TIP3    H141882   5.368   1.884  17.193 -0.2236  0.1343 -0.4523
 6797TIP3    H241883   5.474   1.779  17.165 -0.0252 -0.1824  1.3251
 6798TIP3   OH241884   1.589   1.167   2.166 -0.0396 -0.5016  0.3384
 6798TIP3    H141885   1.520   1.191   2.228 -1.9253 -1.4819 -1.2692
 6798TIP3    H241886   1.635   1.249   2.149 -0.9898  0.2597  1.2680
 6799TIP3   OH241887   0.181   0.642   3.387  0.2992 -0.3324  0.2716
 6799TIP3    H141888   0.265   0.628   3.344  0.2687  2.2476 -0.7704
 6799TIP3    H241889   0.125   0.571   3.355  2.1100 -2.3275  1.2942
 6800TIP3   OH241890   3.062   3.969   4.835  0.1163 -0.2968  0.0618
 6800TIP3    H141891   3.076   3.909   4.762 -1.7775 -1.0847  0.2962
 6800TIP3    H241892   2.993   4.028   4.805  0.6210  0.5590  0.5474
 6801TIP3   OH241893   2.569   1.606  17.483 -0.1340 -0.2256 -0.2861
 6801TIP3    H141894   2.655   1.563  17.485 -1.1303 -2.3058  0.8003
 6801TIP3    H241895   2.508   1.536  17.462 -1.7780  0.8032  0.8394
 6802TIP3   OH241896   3.356   0.547   3.128 -0.8583 -0.2214  0.3242
 6802TIP3    H141897   3.345   0.598   3.208 -1.5347  0.0854  0.0477
 6802TIP3    H241898   3.450   0.553   3.108 -0.8116  0.3352  0.6797
 6803TIP3   OH241899   1.989   6.024  14.937 -0.5286 -0.1524 -0.1707
 6803TIP3    H141900   1.904   5.988  14.912 -0.1656 -0.6533 -0.7119
 6803TIP3    H241901   1.981   6.118  14.923 -0.1918 -0.4319 -2.7146
 6804TIP3   OH241902   5.772   5.146   1.471  0.2296  0.5680  0.6361
 6804TIP3    H141903   5.788   5.217   1.533  0.2642  1.1577 -0.0279
 6804TIP3    H241904   5.705   5.180   1.412 -0.0247 -0.0985  0.5278
 6805TIP3   OH241905   0.919   5.177   1.613  0.4033 -0.3544  0.6806
 6805TIP3    H141906   0.864   5.188   1.691  0.8076  0.3885  0.8753
 6805TIP3    H241907   0.996   5.130   1.645  0.5503 -0.0862  0.7226
 6806TIP3   OH241908   3.604   4.296  12.129 -0.3292 -0.3076  0.2662
 6806TIP3    H141909   3.632   4.356  12.060 -0.6977 -2.5392 -1.9982
 6806TIP3    H241910   3.509   4.304  12.131 -0.2941  0.0067  0.7844
 6807TIP3   OH241911   3.303   6.206   1.898 -0.5149 -0.2255 -0.8720
 6807TIP3    H141912   3.216   6.178   1.926 -1.1892 -0.3102 -2.8544
 6807TIP3    H241913   3.363   6.162   1.958 -1.8339  1.1675  1.6462
 6808TIP3   OH241914   5.479   2.978  13.065 -0.5700  0.6331  0.0009
 6808TIP3    H141915   5.424   2.901  13.069 -1.9439  1.5913  0.2318
 6808TIP3    H241916   5.567   2.944  13.046 -1.2878 -0.8960 -0.7341
 6809TIP3   OH241917   0.094   1.852  13.380  0.4883 -0.3293  0.0757
 6809TIP3    H141918   0.094   1.944  13.406  1.1990 -0.2490 -0.1958
 6809TIP3    H241919   0.030   1.811  13.438  1.4999 -0.0149  1.4688
 6810TIP3   OH241920   3.376   1.999   3.407  0.5367  0.2092 -0.4782
 6810TIP3    H141921   3.469   2.019   3.403  0.8508 -1.0684  0.0674
 6810TIP3    H241922   3.369   1.909   3.375 -0.7032  0.7659 -1.9241
 6811TIP3   OH241923   3.211   0.209  12.719 -0.3618 -0.1975  0.4012
 6811TIP3    H141924   3.118   0.192  12.735 -0.2242 -2.9342 -1.1400
 6811TIP3    H241925   3.256   0.132  12.754  1.1713  0.3209 -0.3389
 6812TIP3   OH241926   3.019   1.727   1.516 -0.1925  0.0299  0.0379
 6812TIP3    H141927   2.941   1.782   1.504  0.5232  1.2148  0.6042
 6812TIP3    H241928   2.996   1.644   1.475 -1.3625  0.7021 -0.7467
 6813TIP3   OH241929   2.939   2.953  12.373 -0.7225 -0.3099  1.0157
 6813TIP3    H141930   2.921   2.859  12.374 -0.1709 -0.4427 -0.1628
 6813TIP3    H241931   3.033   2.959  12.394 -0.4750 -0.1197 -0.0862
 6814TIP3   OH241932   2.066   0.674  16.363  0.3105 -0.7199  0.0571
 6814TIP3    H141933   2.129   0.606  16.341  0.8625  0.1865 -1.3340
 6814TIP3    H241934   1.985   0.648  16.318  0.3471 -0.7788  0.0256
 6815TIP3   OH241935   5.024   6.290  13.872 -0.1569 -0.5890  0.3119
 6815TIP3    H141936   5.079   6.367  13.881 -1.2541  0.1608  0.7743
 6815TIP3    H241937   5.048   6.253  13.787  0.9219 -0.1967  0.4242
 6816TIP3   OH241938   3.598   6.196  16.056 -0.0501  0.0704 -0.4830
 6816TIP3    H141939   3.539   6.214  16.129  0.9057  0.6612  0.1594
 6816TIP3    H241940   3.648   6.119  16.082  1.2775  1.0951  0.1339
 6817TIP3   OH241941   5.116   6.745  13.381 -0.2470 -0.0540  0.0763
 6817TIP3    H141942   5.123   6.833  13.417 -2.0166  0.2050 -0.0853
 6817TIP3    H241943   5.196   6.733  13.331 -0.0429  1.5432 -0.0492
 6818TIP3   OH241944   0.289   5.186   2.845  0.1099 -0.2627  0.0794
 6818TIP3    H141945   0.281   5.263   2.789 -0.1494 -0.2214  0.1730
 6818TIP3    H241946   0.210   5.135   2.827 -0.8740  0.6009  1.6853
 6819TIP3   OH241947   5.209   4.101   1.148 -0.2072 -0.3453 -0.3474
 6819TIP3    H141948   5.268   4.174   1.164  1.3952 -1.6920  0.1923
 6819TIP3    H241949   5.255   4.048   1.082 -1.8492 -0.3129 -1.5676
 6820TIP3   OH241950   2.817   3.250  16.215  0.1028 -0.3702  0.4324
 6820TIP3    H141951   2.795   3.340  16.191 -1.1603 -0.9028 -0.5439
 6820TIP3    H241952   2.802   3.245  16.309  0.3717  0.4823  0.5254
 6821TIP3   OH241953   4.584   0.627  16.890  0.3661  0.1956 -0.0565
 6821TIP3    H141954   4.544   0.677  16.819 -0.6065 -0.8944 -0.3005
 6821TIP3    H241955   4.582   0.536  16.859  0.1351 -0.2694  1.2660
 6822TIP3   OH241956   2.261   0.555   5.945 -0.4791 -0.4309 -0.1451
 6822TIP3    H141957   2.325   0.505   5.894 -1.0492  0.4286 -1.7757
 6822TIP3    H241958   2.294   0.645   5.943 -1.1768 -0.1670 -0.1002
 6823TIP3   OH241959   6.383   0.034   5.571 -0.0811 -0.2817 -0.2648
 6823TIP3    H141960   6.434   0.065   5.646 -1.7252  0.8273  0.4468
 6823TIP3    H241961   6.443  -0.025   5.524  0.7776 -1.5983  2.2865
 6824TIP3   OH241962   4.411   3.424   2.657 -0.1678 -0.6129  0.3801
 6824TIP3    H141963   4.435   3.331   2.667 -2.3065 -1.1623  0.9499
 6824TIP3    H241964   4.360   3.444   2.736 -0.0862  0.9489  0.0647
 6825TIP3   OH241965   2.446   0.147   3.083  0.0568 -0.0723 -0.3690
 6825TIP3    H141966   2.435   0.076   3.147  0.0729  0.6644  0.4704
 6825TIP3    H241967   2.540   0.167   3.085 -0.1512  0.9459  0.5003
 6826TIP3   OH241968   2.344   2.267  15.369  0.0452  0.0813 -0.5608
 6826TIP3    H141969   2.270   2.294  15.424 -0.4916 -0.9508 -0.7645
 6826TIP3    H241970   2.419   2.265  15.429 -0.2394  0.3643 -0.1861
 6827TIP3   OH241971   0.109   4.986   0.500 -0.4160 -0.4262 -0.0509
 6827TIP3    H141972   0.187   4.930   0.494 -1.2556 -2.0199  2.3243
 6827TIP3    H241973   0.051   4.953   0.431 -0.5372 -1.9429  0.7370
 6828TIP3   OH241974   3.778   1.343  11.879  0.3849 -0.2523  0.2791
 6828TIP3    H141975   3.733   1.260  11.892 -1.5044  0.2214 -2.4256
 6828TIP3    H241976   3.870   1.319  11.868  0.2398 -1.6916  1.9020
 6829TIP3   OH241977   1.684   5.415   1.851 -0.2866  0.9213  0.3442
 6829TIP3    H141978   1.704   5.502   1.884  0.2919  1.6807 -1.8484
 6829TIP3    H241979   1.765   5.384   1.812 -0.8960  0.0463 -0.2878
 6830TIP3   OH241980   3.797   6.098  15.684  0.3551  0.0881  0.0305
 6830TIP3    H141981   3.877   6.148  15.668  0.3046  0.4788  0.9258
 6830TIP3    H241982   3.773   6.121  15.774 -1.3910  0.8552 -0.5923
 6831TIP3   OH241983   0.936   4.412   1.972  0.1343 -0.4313 -0.3222
 6831TIP3    H141984   0.888   4.423   1.889  0.5395  0.1684 -0.4848
 6831TIP3    H241985   1.027   4.403   1.945  0.5367  1.7433  0.1347
 6832TIP3   OH241986   0.870   5.601   0.219 -0.1708  0.3725  0.5001
 6832TIP3    H141987   0.802   5.611   0.153  0.7434 -1.4851 -0.8029
 6832TIP3    H241988   0.879   5.506   0.230  1.3705  0.6011  1.5373
 6833TIP3   OH241989   2.614   3.993   2.197  0.1546  0.1897 -0.4249
 6833TIP3    H141990   2.697   4.027   2.164  0.9235 -1.1588  0.0510
 6833TIP3    H241991   2.636   3.909   2.237 -1.2088  0.4401  0.9722
 6834TIP3   OH241992   2.885   5.172  15.602 -0.0538 -0.1589  0.3526
 6834TIP3    H141993   2.791   5.162  15.588 -0.1012 -1.2174  1.2171
 6834TIP3    H241994   2.924   5.166  15.515 -0.7340 -0.4726  0.0675
 6835TIP3   OH241995   3.774   2.140   6.479  0.0770 -0.5001 -0.7767
 6835TIP3    H141996   3.745   2.224   6.515  2.4717 -0.0035  0.2245
 6835TIP3    H241997   3.709   2.118   6.412 -1.5090  1.3121  0.0860
 6836TIP3   OH241998   3.765   0.150   6.493 -0.3294  0.1556 -0.2983
 6836TIP3    H141999   3.808   0.065   6.490  0.4800  0.5331  0.0956
 6836TIP3    H242000   3.809   0.197   6.565 -1.7376  0.3877  0.4656
 6837TIP3   OH242001   1.592   0.205  15.013  0.0806  0.2183  0.6487
 6837TIP3    H142002   1.664   0.257  14.977 -0.3525 -0.0635 -0.7014
 6837TIP3    H242003   1.616   0.191  15.104  1.0500  1.3032  0.5867
 6838TIP3   OH242004   5.371   5.492   3.857  0.0802 -0.0606 -0.3403
 6838TIP3    H142005   5.378   5.452   3.770 -1.0161 -1.1055  0.0252
 6838TIP3    H242006   5.451   5.463   3.903 -0.4036 -1.3735 -0.2822
 6839TIP3   OH242007   3.094   5.032  11.142  0.5185  0.0068  0.0744
 6839TIP3    H142008   3.185   5.050  11.119  0.0504  2.1358 -0.2397
 6839TIP3    H242009   3.059   4.985  11.066  1.3286 -0.8294  0.2044
 6840TIP3   OH242010   3.335   0.323   1.772 -0.0345 -0.4452 -0.7257
 6840TIP3    H142011   3.307   0.289   1.857  2.2657  0.4745  0.4808
 6840TIP3    H242012   3.282   0.402   1.758  1.1334  0.6966  0.9988
 6841TIP3   OH242013   5.481   0.940  16.292 -0.0816  0.1661  0.2935
 6841TIP3    H142014   5.419   0.872  16.267 -1.0180  0.3789  1.8798
 6841TIP3    H242015   5.453   1.017  16.243 -0.7006  0.0930  0.5175
 6842TIP3   OH242016   5.983   4.415   3.624  0.1400  0.2679 -0.2777
 6842TIP3    H142017   6.040   4.422   3.548  0.6140 -0.2556  0.0206
 6842TIP3    H242018   5.896   4.435   3.590  0.2604 -0.4963 -1.0838
 6843TIP3   OH242019   2.856   5.760   2.219  0.2048 -0.3690 -0.1214
 6843TIP3    H142020   2.951   5.772   2.217  0.2786 -0.7033  0.7222
 6843TIP3    H242021   2.821   5.845   2.194  0.7358  0.5163  1.9404
 6844TIP3   OH242022   4.433   1.759   2.022  0.4296  0.4205  0.2017
 6844TIP3    H142023   4.458   1.844   1.986 -0.7495  0.5766 -0.2912
 6844TIP3    H242024   4.358   1.778   2.079 -0.4234 -0.3845 -0.6111
 6845TIP3   OH242025   6.726   0.109   1.028 -0.1652  0.0442  0.8192
 6845TIP3    H142026   6.686   0.109   1.115  1.2243  2.7533  1.5527
 6845TIP3    H242027   6.814   0.145   1.041  1.5203 -2.8969 -1.1903
 6846TIP3   OH242028   2.149   1.928   0.252 -0.4234  0.8043  0.6421
 6846TIP3    H142029   2.064   1.906   0.289  0.9449 -1.2601  2.7880
 6846TIP3    H242030   2.188   1.988   0.316  0.4677  0.2482  0.6302
 6847TIP3   OH242031   3.323   2.711   1.844 -0.5648  0.5851 -0.3079
 6847TIP3    H142032   3.386   2.707   1.772  0.1610 -2.4181  0.3376
 6847TIP3    H242033   3.330   2.801   1.877  2.2496  0.8310 -1.2640
 6848TIP3   OH242034   2.557   5.250   1.561 -0.6565 -0.7309  0.5577
 6848TIP3    H142035   2.545   5.155   1.564 -2.2232 -0.5477  1.5728
 6848TIP3    H242036   2.652   5.263   1.558 -0.4508 -2.3215 -1.0383
 6849TIP3   OH242037   0.609   5.755  13.058 -0.2541 -0.0039  0.0256
 6849TIP3    H142038   0.548   5.736  13.129 -0.9202 -0.2901 -0.6068
 6849TIP3    H242039   0.688   5.705  13.079  0.5848  1.9163  1.9089
 6850TIP3   OH242040   5.155   6.352   5.712  0.1053  0.2223 -0.9253
 6850TIP3    H142041   5.249   6.334   5.715  0.2316  0.8612 -0.9983
 6850TIP3    H242042   5.128   6.352   5.804  0.3215  0.7900 -0.8601
 6851TIP3   OH242043   1.246   2.556  13.166  0.1168  0.9080  0.5312
 6851TIP3    H142044   1.199   2.478  13.136  1.0267  0.8635 -0.8927
 6851TIP3    H242045   1.267   2.538  13.258  2.2010 -1.5360 -0.3058
 6852TIP3   OH242046   1.762   0.955   2.749  0.1495  0.2243 -0.4037
 6852TIP3    H142047   1.809   1.027   2.706  2.7648 -0.6041  0.8565
 6852TIP3    H242048   1.790   0.876   2.702 -0.5178 -0.2386 -0.0405
 6853TIP3   OH242049   5.432   4.928  13.320 -0.2857 -0.0713 -0.4754
 6853TIP3    H142050   5.457   4.941  13.411  3.1307 -2.1669 -0.9403
 6853TIP3    H242051   5.442   5.015  13.280  1.3660  0.2331  0.5214
 6854TIP3   OH242052   1.774   4.856  14.268  0.2892 -0.2542  0.5867
 6854TIP3    H142053   1.794   4.792  14.200  2.2584  0.3942  0.4899
 6854TIP3    H242054   1.836   4.838  14.338 -1.4625 -0.6765  2.1136
 6855TIP3   OH242055   2.746   5.604   0.610 -0.4819  0.4035  0.2248
 6855TIP3    H142056   2.674   5.657   0.645 -0.7168 -0.5520  1.2445
 6855TIP3    H242057   2.760   5.638   0.522 -0.0315  2.7308  1.1454
 6856TIP3   OH242058   4.016   1.268   6.301 -0.3254 -0.1631 -0.1481
 6856TIP3    H142059   3.987   1.349   6.342 -1.8193  0.0237 -1.4596
 6856TIP3    H242060   3.976   1.199   6.353 -3.6036  0.0861 -2.0286
 6857TIP3   OH242061   4.711   0.031  13.000  0.5084 -0.3144  0.2048
 6857TIP3    H142062   4.748   0.037  13.088 -1.6532 -0.9561  1.2286
 6857TIP3    H242063   4.686   0.121  12.978  1.0171 -0.1575  0.2542
 6858TIP3   OH242064   4.253   6.441   0.741  0.1267 -0.4230 -0.2437
 6858TIP3    H142065   4.167   6.447   0.700  0.1119 -1.0453 -0.3163
 6858TIP3    H242066   4.296   6.524   0.721 -1.0879  0.6292  1.2477
 6859TIP3   OH242067   0.567   4.447   3.074  0.6626  0.1301  0.0206
 6859TIP3    H142068   0.549   4.483   2.987  2.1803 -0.5502 -0.6200
 6859TIP3    H242069   0.645   4.493   3.103  1.8241 -1.5871 -0.2131
 6860TIP3   OH242070   0.330   1.466  14.628  0.4599  0.0577  0.4103
 6860TIP3    H142071   0.241   1.469  14.594 -0.5748  0.4581  2.9099
 6860TIP3    H242072   0.337   1.380  14.669  1.3274 -0.0588  0.0363
 6861TIP3   OH242073   5.657   4.154   3.713 -0.6740 -0.4284 -0.0817
 6861TIP3    H142074   5.684   4.208   3.639 -0.1162 -0.4183  0.1198
 6861TIP3    H242075   5.659   4.064   3.680 -2.9676 -0.2477 -0.8242
 6862TIP3   OH242076   2.833   2.359   3.421  0.1171  0.0448  0.2216
 6862TIP3    H142077   2.893   2.422   3.461  0.9687 -0.3145 -0.4608
 6862TIP3    H242078   2.814   2.297   3.490 -0.7648  1.0531  0.9183
 6863TIP3   OH242079   5.421   3.495   0.807  0.2874 -0.3468  0.0279
 6863TIP3    H142080   5.371   3.573   0.782  1.0337 -0.0927 -0.7113
 6863TIP3    H242081   5.376   3.463   0.885 -0.5045  0.3700 -0.1083
 6864TIP3   OH242082   0.717   5.385  12.412 -0.1370  0.2686 -0.0662
 6864TIP3    H142083   0.633   5.369  12.454 -0.5060  2.3190  0.0956
 6864TIP3    H242084   0.695   5.435  12.333  0.9439  1.2652  0.2330
 6865TIP3   OH242085   4.496   5.362   0.808 -0.2242  0.0077 -0.1085
 6865TIP3    H142086   4.516   5.270   0.824  0.6576  0.2580  0.3144
 6865TIP3    H242087   4.507   5.374   0.714 -1.0832 -0.4772 -0.2832
 6866TIP3   OH242088   2.070   0.871   0.887  0.3568 -0.0615 -0.6035
 6866TIP3    H142089   2.025   0.936   0.942  1.2700  1.1236 -1.2119
 6866TIP3    H242090   2.081   0.914   0.802 -1.1437 -1.9099 -1.8065
 6867TIP3   OH242091   5.590   5.274   3.565  0.1734  0.1298 -0.8039
 6867TIP3    H142092   5.627   5.294   3.479  0.4930  0.2738 -0.6349
 6867TIP3    H242093   5.612   5.351   3.618 -0.3013  0.1832 -0.6792
 6868TIP3   OH242094   1.945   2.973   3.931 -0.0270 -0.2288  0.8735
 6868TIP3    H142095   1.969   2.883   3.910 -0.9954 -0.5944  1.3073
 6868TIP3    H242096   2.014   3.003   3.990  0.6476 -0.4584  0.2258
 6869TIP3   OH242097   3.585   3.201   6.025  0.2941 -0.1996  0.1011
 6869TIP3    H142098   3.617   3.149   6.099  3.5391  3.7157  1.8810
 6869TIP3    H242099   3.509   3.247   6.060  1.3261  1.0126  0.8493
 6870TIP3   OH242100   1.697   5.613   0.750  0.3022 -0.2468  0.6878
 6870TIP3    H142101   1.769   5.660   0.792  0.3368  0.1939  0.1541
 6870TIP3    H242102   1.738   5.564   0.679  0.3021 -1.3120  1.4048
 6871TIP3   OH242103   5.699   2.024  14.678 -0.4387  0.4021  0.2915
 6871TIP3    H142104   5.713   2.118  14.691  1.3494  0.2207 -0.0687
 6871TIP3    H242105   5.708   2.011  14.583  0.2776 -0.2682  0.4441
 6872TIP3   OH242106   2.394   4.097  14.667 -0.1487  0.6046  0.3018
 6872TIP3    H142107   2.385   4.126  14.758 -2.5377 -0.3312  0.4343
 6872TIP3    H242108   2.414   4.004  14.674  1.0000  0.7931 -0.1692
 6873TIP3   OH242109   1.755   6.544   4.949 -0.7229 -0.0020  0.5246
 6873TIP3    H142110   1.845   6.516   4.969 -0.3731 -0.0961 -1.0719
 6873TIP3    H242111   1.701   6.497   5.012  0.4831  1.8778  3.1773
 6874TIP3   OH242112   5.002   1.305   5.322  0.6640  0.0314 -0.1487
 6874TIP3    H142113   5.058   1.371   5.280  1.8344 -0.4604  0.5928
 6874TIP3    H242114   5.059   1.228   5.331 -0.1245 -0.4716  0.6675
 6875TIP3   OH242115   6.629   1.839   0.521  0.2339 -0.7175  0.5438
 6875TIP3    H142116   6.556   1.855   0.581 -1.0757 -0.4183 -1.0778
 6875TIP3    H242117   6.692   1.910   0.541  0.1924 -1.0644  2.0479
 6876TIP3   OH242118   2.250   1.216   5.757 -0.5082  0.6862  0.0371
 6876TIP3    H142119   2.262   1.253   5.670 -0.7454  1.3721  0.2926
 6876TIP3    H242120   2.339   1.191   5.785 -0.0567  2.7612  0.6068
 6877TIP3   OH242121   5.680   4.235  11.991  0.1203  0.0462  0.3221
 6877TIP3    H142122   5.683   4.173  12.064  0.3251 -0.2002  0.1073
 6877TIP3    H242123   5.668   4.320  12.032  1.5761  0.0841  0.7425
 6878TIP3   OH242124   5.107   0.869  16.009 -0.3060  0.7199  0.0948
 6878TIP3    H142125   5.145   0.957  15.998 -0.3108  0.6897 -0.1705
 6878TIP3    H242126   5.016   0.886  16.034  0.3372  0.8186  2.6317
 6879TIP3   OH242127   2.074   1.479   0.106 -0.5924  0.0105 -1.1431
 6879TIP3    H142128   2.051   1.567   0.077  0.4142  0.5176 -0.4569
 6879TIP3    H242129   2.166   1.486   0.133 -0.7992 -1.0118 -0.1197
 6880TIP3   OH242130   3.039   2.634   1.560 -0.0535 -0.7951 -0.1647
 6880TIP3    H142131   3.050   2.680   1.643  0.6246 -1.3298  0.0483
 6880TIP3    H242132   3.035   2.704   1.494 -0.7671 -0.3625  0.3244
 6881TIP3   OH242133   4.310   1.683   4.765 -0.3473  0.8094 -0.2060
 6881TIP3    H142134   4.376   1.702   4.832 -0.5009  0.2363  0.1205
 6881TIP3    H242135   4.231   1.724   4.798 -0.2109  1.2972 -0.4826
 6882TIP3   OH242136   4.556   4.002  11.042 -0.1360  1.2031 -0.1813
 6882TIP3    H142137   4.605   3.922  11.063  0.7090  1.5063 -0.9271
 6882TIP3    H242138   4.556   4.006  10.947  0.0853  2.2323 -0.1507
 6883TIP3   OH242139   4.938   3.241   4.654 -0.2544  0.6028  0.1869
 6883TIP3    H142140   5.017   3.196   4.683 -0.2112  0.2701 -0.4149
 6883TIP3    H242141   4.884   3.250   4.733  0.4357  0.9497  0.6221
 6884TIP3   OH242142   4.810   1.215   5.567  0.0123  0.2276  0.0553
 6884TIP3    H142143   4.739   1.154   5.547  0.6457 -0.9512  1.2858
 6884TIP3    H242144   4.884   1.184   5.516  1.1276 -1.7586  2.6550
 6885TIP3   OH242145   5.786   6.455   4.056  0.1557 -0.1270  0.9226
 6885TIP3    H142146   5.799   6.496   3.971  0.2208 -1.6515  0.1647
 6885TIP3    H242147   5.799   6.526   4.119  0.7472  0.8847 -0.2937
 6886TIP3   OH242148   3.540   2.178   1.296 -0.4947  0.2051 -0.3420
 6886TIP3    H142149   3.630   2.178   1.263 -0.6509  0.9799 -0.7988
 6886TIP3    H242150   3.512   2.269   1.288 -0.9715  0.1660  0.7646
 6887TIP3   OH242151   4.402   2.079  13.655  0.0987 -0.2237  0.1390
 6887TIP3    H142152   4.309   2.081  13.681 -0.2884  1.5525 -1.1580
 6887TIP3    H242153   4.426   1.987  13.661 -1.1397 -0.4913  2.5056
 6888TIP3   OH242154   2.301   6.001  12.428 -0.1350 -0.2728 -0.1403
 6888TIP3    H142155   2.336   6.052  12.501 -0.3487  0.5209 -0.5803
 6888TIP3    H242156   2.240   5.939  12.469 -0.7741  0.6264  0.2942
 6889TIP3   OH242157   4.286   5.223   4.947  0.2626  0.4390 -0.6499
 6889TIP3    H142158   4.230   5.146   4.958  0.3337  0.4759 -0.0109
 6889TIP3    H242159   4.336   5.229   5.028  0.9169  0.6361 -1.0601
 6890TIP3   OH242160   5.712   1.610  15.323 -0.5189  0.2627 -0.5028
 6890TIP3    H142161   5.765   1.677  15.368 -0.2367 -1.2190  1.5163
 6890TIP3    H242162   5.748   1.607  15.234  1.2756  0.9335  0.1443
 6891TIP3   OH242163   5.755   1.822   2.908  0.2250  0.5584 -0.4991
 6891TIP3    H142164   5.662   1.822   2.887  0.3905 -0.2645 -1.2848
 6891TIP3    H242165   5.798   1.840   2.824  0.8162 -0.3977 -0.4092
 6892TIP3   OH242166   0.850   2.812   2.264 -0.1084  0.5266  0.3943
 6892TIP3    H142167   0.816   2.900   2.281 -1.5636 -0.1567  1.1706
 6892TIP3    H242168   0.780   2.753   2.292  0.7777 -0.8876 -0.2523
 6893TIP3   OH242169   1.179   5.555  13.722 -0.6097  0.5108 -0.5777
 6893TIP3    H142170   1.114   5.561  13.652 -1.3363  1.2121  0.1380
 6893TIP3    H242171   1.208   5.645  13.735  1.2144  0.1081 -1.5117
 6894TIP3   OH242172   6.521   2.450   5.987 -0.0103  0.4768  0.3060
 6894TIP3    H142173   6.562   2.398   6.057 -0.4722  0.2811  0.4349
 6894TIP3    H242174   6.518   2.539   6.023  2.5735  1.0352 -0.6728
 6895TIP3   OH242175   2.082   1.714  14.892 -0.4343  0.2752  0.1590
 6895TIP3    H142176   2.117   1.643  14.839 -0.1605  0.1083  0.5597
 6895TIP3    H242177   2.053   1.780  14.829  0.2747  0.2651 -0.1863
 6896TIP3   OH242178   3.106   2.468  12.319  0.4592  0.7135  0.1798
 6896TIP3    H142179   3.143   2.438  12.402  0.2702  0.3251  0.1310
 6896TIP3    H242180   3.047   2.539  12.343 -1.2494 -0.7855  0.6542
 6897TIP3   OH242181   1.618   1.683  15.764 -0.0754 -0.1734  0.9062
 6897TIP3    H142182   1.704   1.725  15.764 -1.0961  2.0872  0.0948
 6897TIP3    H242183   1.556   1.755  15.752 -2.0892 -1.7474  1.2716
 6898TIP3   OH242184   5.015   3.078   3.311  0.1497 -0.2605  0.0238
 6898TIP3    H142185   4.961   3.093   3.234 -0.0526  0.6554  0.3333
 6898TIP3    H242186   5.037   3.166   3.342  0.8755 -0.6234  0.5574
 6899TIP3   OH242187   4.508   5.417  11.499 -0.0909  0.1156  0.2881
 6899TIP3    H142188   4.514   5.502  11.542 -0.2469  0.6606 -0.7313
 6899TIP3    H242189   4.589   5.410  11.448 -0.8806  0.4975 -1.0872
 6900TIP3   OH242190   1.480   5.928  15.824  0.4075  0.4486  0.3304
 6900TIP3    H142191   1.437   5.875  15.757  1.1661 -0.7252  0.7504
 6900TIP3    H242192   1.410   5.950  15.886  0.1628 -0.4534  0.3901
 6901TIP3   OH242193   6.179   6.650   5.465 -0.3448 -0.4043  0.4405
 6901TIP3    H142194   6.198   6.656   5.372  0.5182 -2.4609  0.4284
 6901TIP3    H242195   6.249   6.700   5.508 -0.4366  0.0912  0.0144
 6902TIP3   OH242196   4.725   0.115  14.064 -0.0008  0.1784 -0.3651
 6902TIP3    H142197   4.735   0.155  14.150  0.4570 -2.5048  0.9482
 6902TIP3    H242198   4.785   0.164  14.007  1.0036  0.9124  1.2728
 6903TIP3   OH242199   4.627   2.141  16.713  0.2164 -0.4358 -0.2524
 6903TIP3    H142200   4.539   2.157  16.747  0.4194 -0.1126  0.1343
 6903TIP3    H242201   4.676   2.221  16.735 -0.2844  0.9539 -3.5705
 6904TIP3   OH242202   1.040   0.456  16.376 -0.0328 -0.7582 -0.3076
 6904TIP3    H142203   1.025   0.432  16.284  1.3747  0.2866 -0.8499
 6904TIP3    H242204   1.086   0.381  16.413 -2.0121 -1.8657  0.0162
 6905TIP3   OH242205   5.782   0.552   0.766 -0.1044 -0.1382 -0.0870
 6905TIP3    H142206   5.701   0.565   0.717 -0.4772 -0.9170  0.2989
 6905TIP3    H242207   5.840   0.504   0.705 -0.4042 -0.7082  0.0667
 6906TIP3   OH242208   0.706   1.106   6.057 -0.7423  0.1283  0.2027
 6906TIP3    H142209   0.705   1.021   6.013  0.6218  0.7177 -1.0301
 6906TIP3    H242210   0.679   1.168   5.989 -1.3926  0.7444  0.9981
 6907TIP3   OH242211   2.574   5.221   0.010 -0.2873 -0.9523 -0.1344
 6907TIP3    H142212   2.493   5.235  -0.038 -2.0388  0.4350  2.9533
 6907TIP3    H242213   2.571   5.129   0.038 -1.0697 -0.7805  0.3653
 6908TIP3   OH242214   2.132   4.743  13.093  0.1017  1.0256  0.1899
 6908TIP3    H142215   2.123   4.838  13.092 -0.0032  1.0413  1.1415
 6908TIP3    H242216   2.194   4.726  13.165 -0.8978  0.3207  0.9112
 6909TIP3   OH242217   5.070   1.765   2.234  0.4434 -0.3810 -0.0282
 6909TIP3    H142218   4.991   1.816   2.251  1.3472  0.3998  2.1028
 6909TIP3    H242219   5.041   1.674   2.240 -0.2149 -0.1070  1.2294
 6910TIP3   OH242220   5.582   3.915  15.314  0.3237  0.1839  0.0547
 6910TIP3    H142221   5.531   3.836  15.333 -1.9190  1.5330 -0.0286
 6910TIP3    H242222   5.642   3.888  15.245 -0.6530 -1.3592 -0.2527
 6911TIP3   OH242223   1.823   2.271   5.044  0.9368  0.1072  0.1754
 6911TIP3    H142224   1.874   2.206   5.094  1.0061  0.7586  0.9668
 6911TIP3    H242225   1.886   2.307   4.982  0.6762 -1.2095 -0.9058
 6912TIP3   OH242226   2.609   6.328  12.597  0.5984 -0.2135  0.3377
 6912TIP3    H142227   2.576   6.239  12.590 -3.2435  0.8682  1.6836
 6912TIP3    H242228   2.600   6.364  12.508 -1.1659 -0.2541  0.4671
 6913TIP3   OH242229   0.185   4.617   4.528  0.0239  0.2093  0.3568
 6913TIP3    H142230   0.186   4.712   4.518 -2.2048  0.1266 -1.5038
 6913TIP3    H242231   0.092   4.593   4.524  0.4425 -1.9715  1.9672
 6914TIP3   OH242232   1.308   1.913  11.708 -0.3002 -0.1823 -0.3534
 6914TIP3    H142233   1.383   1.875  11.662 -0.9995  0.3930 -2.0550
 6914TIP3    H242234   1.240   1.846  11.704  0.2346 -0.9110  1.6484
 6915TIP3   OH242235   2.557   5.281   3.844  0.4685  0.0578  0.1707
 6915TIP3    H142236   2.557   5.370   3.881 -0.8737  0.8136 -1.4833
 6915TIP3    H242237   2.510   5.229   3.909 -0.1384  0.9206  0.4560
 6916TIP3   OH242238   4.927   2.985   1.917 -1.3103 -0.1546  0.4455
 6916TIP3    H142239   4.873   2.946   1.986  1.7313 -1.7752  2.0733
 6916TIP3    H242240   4.986   3.045   1.963  1.0487 -1.5334 -0.5995
 6917TIP3   OH242241   4.874   1.314  14.647  0.2201 -0.6726  0.4132
 6917TIP3    H142242   4.924   1.244  14.604  1.6287  0.8386 -0.5588
 6917TIP3    H242243   4.830   1.359  14.575  1.0133  0.6808  0.7280
 6918TIP3   OH242244   3.788   5.364  12.514  0.2922  0.0220  0.0864
 6918TIP3    H142245   3.827   5.451  12.523 -1.2141  0.6949  0.4283
 6918TIP3    H242246   3.699   5.381  12.482 -0.1475 -1.3669  0.5059
 6919TIP3   OH242247   1.411   1.269  16.325  0.2099 -0.2575 -0.3316
 6919TIP3    H142248   1.467   1.277  16.247 -1.3487  0.3232 -1.4333
 6919TIP3    H242249   1.360   1.190  16.309  1.0688 -1.1060  0.9390
 6920TIP3   OH242250   5.094   5.669  16.129  0.1686  0.4545 -0.1608
 6920TIP3    H142251   5.055   5.585  16.107  1.4419  0.0428 -0.8899
 6920TIP3    H242252   5.054   5.692  16.214 -1.1370 -0.2468 -0.5531
 6921TIP3   OH242253   5.918   5.176  15.132  0.3910 -0.2647  0.0364
 6921TIP3    H142254   5.840   5.163  15.185  0.4142 -1.2719 -0.1513
 6921TIP3    H242255   5.917   5.269  15.109  0.1839  0.1161  1.4784
 6922TIP3   OH242256   1.131   2.776  14.871  0.2286  0.1234 -0.6206
 6922TIP3    H142257   1.102   2.705  14.814  0.9295  0.1706 -1.0538
 6922TIP3    H242258   1.222   2.753  14.893 -0.4146 -0.5406  1.5197
 6923TIP3   OH242259   3.383   6.754   1.344 -0.0373 -0.4625  0.3594
 6923TIP3    H142260   3.318   6.693   1.378 -1.2306  0.6433  0.1510
 6923TIP3    H242261   3.411   6.715   1.261 -3.5320  0.9093 -1.7185
 6924TIP3   OH242262   0.430   2.580  17.046  0.0343 -0.8453 -0.0366
 6924TIP3    H142263   0.421   2.529  17.126  0.6606 -1.0180 -0.0690
 6924TIP3    H242264   0.517   2.621  17.053 -1.3089  2.0801  1.0485
 6925TIP3   OH242265   5.945   5.152  11.824  0.0499  0.4361 -0.6482
 6925TIP3    H142266   5.954   5.242  11.792  3.3034  0.4158 -0.1765
 6925TIP3    H242267   5.920   5.162  11.916  1.7086  0.9857 -0.2191
 6926TIP3   OH242268   6.058   6.376   5.814 -0.4028 -0.5109  0.0551
 6926TIP3    H142269   6.122   6.392   5.745  0.1536  1.9351  1.0372
 6926TIP3    H242270   6.109   6.379   5.895 -1.6912  1.4334  0.8547
 6927TIP3   OH242271   5.468   0.272  13.508  0.5105 -0.0387  0.2790
 6927TIP3    H142272   5.543   0.304  13.558  0.3630  2.7186 -1.0643
 6927TIP3    H242273   5.506   0.229  13.431  0.7379  0.8199 -0.0959
 6928TIP3   OH242274   2.617   2.289   1.723  0.2229  0.6390 -0.0918
 6928TIP3    H142275   2.661   2.371   1.700 -1.2301  1.0629 -1.6190
 6928TIP3    H242276   2.569   2.265   1.643  0.0641 -1.3392  0.5458
 6929TIP3   OH242277   6.093   5.275  17.512  0.3784  0.0490  0.2990
 6929TIP3    H142278   6.076   5.285  17.418 -1.8889 -1.3909  0.4938
 6929TIP3    H242279   6.036   5.203  17.540  0.3132  1.0327  2.9783
 6930TIP3   OH242280   4.741   5.283   5.907  0.2332 -0.2256 -0.2740
 6930TIP3    H142281   4.821   5.317   5.948  1.2470 -0.8465 -1.6577
 6930TIP3    H242282   4.686   5.361   5.895 -0.6283 -0.1341  3.1729
 6931TIP3   OH242283   4.847   0.076   5.901 -0.0658 -0.3124 -0.3853
 6931TIP3    H142284   4.776   0.017   5.875 -1.1815  0.6542  0.3289
 6931TIP3    H242285   4.805   0.162   5.908  0.6608 -0.0772  2.1347
 6932TIP3   OH242286   2.676   5.136  11.821  0.2673 -0.6189  0.1972
 6932TIP3    H142287   2.667   5.072  11.892 -0.4373 -1.4937 -0.6536
 6932TIP3    H242288   2.770   5.153  11.816  0.2418  0.3938  2.1217
 6933TIP3   OH242289   2.997   4.159   0.824  0.0247 -0.0248 -0.1459
 6933TIP3    H142290   2.974   4.111   0.745  1.5052  0.9141 -1.1891
 6933TIP3    H242291   3.073   4.211   0.800  1.3041 -0.6444  2.2412
 6934TIP3   OH242292   4.122   3.945  14.179  0.8429  0.2574 -0.4899
 6934TIP3    H142293   4.154   3.890  14.250  0.6104  0.2596 -0.3845
 6934TIP3    H242294   4.201   3.989  14.146  1.1042 -0.4794 -0.8769
 6935TIP3   OH242295   4.318   1.268   5.100 -0.0437 -0.2659  0.1337
 6935TIP3    H142296   4.307   1.214   5.022  0.6283  0.8584 -0.7704
 6935TIP3    H242297   4.403   1.311   5.087 -0.6030  1.0775  0.7669
 6936TIP3   OH242298   4.627   2.690   0.361 -0.1318 -0.1252  0.4694
 6936TIP3    H142299   4.556   2.627   0.365 -0.1693 -0.0700  0.6846
 6936TIP3    H242300   4.625   2.734   0.446  0.0383  0.0071  0.4057
 6937TIP3   OH242301   3.720   2.235   2.014  0.3214  0.3734 -0.0597
 6937TIP3    H142302   3.806   2.202   1.987 -1.1101 -2.6057 -1.5790
 6937TIP3    H242303   3.711   2.207   2.105  1.0041  0.8573  0.1622
 6938TIP3   OH242304   3.958   5.728   2.065  0.0390  0.0663  0.2927
 6938TIP3    H142305   4.008   5.661   2.019 -1.3046 -0.7744  0.0049
 6938TIP3    H242306   3.889   5.680   2.110 -0.7325  1.2121  0.3807
 6939TIP3   OH242307   3.461   0.385  13.166 -0.4233  0.5813 -0.0048
 6939TIP3    H142308   3.420   0.434  13.238  0.7043 -0.6629  1.5646
 6939TIP3    H242309   3.553   0.414  13.167 -0.1615 -0.2221 -0.2318
 6940TIP3   OH242310   4.595   2.941  12.303  0.2972  0.2895 -0.0045
 6940TIP3    H142311   4.572   2.954  12.211 -0.3901 -0.2742  0.0880
 6940TIP3    H242312   4.596   3.030  12.340  0.6136  0.5215 -0.5541
 6941TIP3   OH242313   3.531   5.752   6.035 -0.2649 -0.2568  0.2304
 6941TIP3    H142314   3.560   5.664   6.013 -1.1395 -0.1596 -1.4589
 6941TIP3    H242315   3.459   5.770   5.974  1.2619  2.4355 -0.9416
 6942TIP3   OH242316   0.215   4.213  16.900  0.2502  0.7189  0.9931
 6942TIP3    H142317   0.216   4.188  16.808  0.3845  3.6121  0.0900
 6942TIP3    H242318   0.307   4.219  16.925  0.4135  3.3716  0.1330
 6943TIP3   OH242319   2.961   5.128   2.908  0.2181  0.0956 -0.2244
 6943TIP3    H142320   2.915   5.165   2.983 -0.3742  0.1559 -0.6095
 6943TIP3    H242321   2.998   5.203   2.863 -0.3051  0.1543 -0.5626
 6944TIP3   OH242322   0.555   1.087   2.222  0.0282 -0.1138  0.1377
 6944TIP3    H142323   0.483   1.136   2.182  0.7433  0.1010 -0.9250
 6944TIP3    H242324   0.634   1.122   2.181  0.6471 -1.2619  0.2974
 6945TIP3   OH242325   2.304   4.367  17.517 -0.5978 -0.3816  0.0319
 6945TIP3    H142326   2.344   4.372  17.430 -0.4767  1.8626  0.1630
 6945TIP3    H242327   2.239   4.297  17.509  1.7525 -2.6422 -0.8213
 6946TIP3   OH242328   5.811   0.821  13.376  0.2769 -0.1695 -0.4803
 6946TIP3    H142329   5.749   0.868  13.432  0.6255  0.0983 -0.3164
 6946TIP3    H242330   5.893   0.868  13.387 -0.0517  1.0374 -2.6151
 6947TIP3   OH242331   0.008   1.162   0.454 -0.0989  0.1963 -0.3377
 6947TIP3    H142332   0.083   1.138   0.400 -0.3977 -0.2225 -0.5742
 6947TIP3    H242333  -0.052   1.088   0.446 -0.1243  0.1059  0.6164
 6948TIP3   OH242334   6.421   0.241   4.014 -0.4458 -0.3629 -0.1097
 6948TIP3    H142335   6.424   0.170   4.078 -0.1434 -0.1477  0.1119
 6948TIP3    H242336   6.415   0.321   4.066 -0.4345 -0.2016 -0.3529
 6949TIP3   OH242337   4.042   4.684  13.440 -0.8183 -0.3546 -0.0277
 6949TIP3    H142338   4.082   4.691  13.526  0.2435  1.8637 -0.6195
 6949TIP3    H242339   3.973   4.750  13.440 -0.1770  0.3567 -1.1496
 6950TIP3   OH242340   5.206   2.836   4.095 -0.2549 -0.0708 -0.1591
 6950TIP3    H142341   5.265   2.810   4.166  0.9096  1.4831 -0.4898
 6950TIP3    H242342   5.255   2.815   4.015 -1.5241 -1.7373 -0.5512
 6951TIP3   OH242343   3.476   5.506   3.229 -0.0647 -0.1008 -0.6624
 6951TIP3    H142344   3.569   5.482   3.226  0.6147  2.0512  0.4200
 6951TIP3    H242345   3.472   5.590   3.182 -0.4653  2.2402  3.0706
 6952TIP3   OH242346   6.294   2.141  12.808  0.0089  0.6897 -0.1265
 6952TIP3    H142347   6.213   2.178  12.773  0.2351  0.0791 -1.3477
 6952TIP3    H242348   6.340   2.215  12.847 -0.6532  1.2340 -0.3741
 6953TIP3   OH242349   4.801   4.243  15.562 -0.5712  0.2563 -0.3205
 6953TIP3    H142350   4.758   4.322  15.594  0.8546  0.3404  1.5142
 6953TIP3    H242351   4.730   4.193  15.520 -1.9941  1.3808  0.6419
 6954TIP3   OH242352   3.511   6.325   1.420  0.0466 -0.5192 -0.1241
 6954TIP3    H142353   3.454   6.330   1.497 -1.5163  0.0508 -1.2591
 6954TIP3    H242354   3.477   6.250   1.370 -0.0746  0.1671 -1.0883
 6955TIP3   OH242355   2.828   0.851   3.604 -0.5237  0.0908 -0.0344
 6955TIP3    H142356   2.734   0.852   3.591 -0.1930  1.9237 -3.3591
 6955TIP3    H242357   2.852   0.942   3.620  0.9932  0.4362 -3.4314
 6956TIP3   OH242358   3.942   0.993   5.870  0.5490  0.5570 -0.9618
 6956TIP3    H142359   3.938   0.933   5.795  0.0036 -1.8561  0.8851
 6956TIP3    H242360   4.035   1.009   5.882  0.8749 -1.4129 -0.4478
 6957TIP3   OH242361   3.890   6.237   2.135 -0.0226  0.1408 -0.9243
 6957TIP3    H142362   3.949   6.271   2.068  0.6223  0.6470 -0.1161
 6957TIP3    H242363   3.875   6.311   2.194  0.5417 -0.6603  0.2582
 6958TIP3   OH242364   4.312   3.812   3.802 -0.4534  0.0161  0.3380
 6958TIP3    H142365   4.266   3.793   3.884  2.6721 -0.8982  2.0207
 6958TIP3    H242366   4.403   3.825   3.828  0.8704 -1.2621 -3.1086
 6959TIP3   OH242367   0.928   2.835   5.624  0.2795  0.0270  0.2956
 6959TIP3    H142368   0.887   2.908   5.579  0.6555  0.3140  0.4077
 6959TIP3    H242369   0.859   2.798   5.680  0.2004  0.5627  0.5548
 6960TIP3   OH242370   4.294   1.282  14.232  0.0347 -0.1456 -0.1101
 6960TIP3    H142371   4.383   1.311  14.251  0.0458  1.1288 -1.8738
 6960TIP3    H242372   4.294   1.189  14.254  0.7889  0.5023  3.1256
 6961TIP3   OH242373   6.447   1.852  11.677 -0.0667  0.0394 -0.1308
 6961TIP3    H142374   6.531   1.883  11.643 -0.9326  0.1687 -2.3154
 6961TIP3    H242375   6.407   1.930  11.715  0.5486  0.0950  0.4240
 6962TIP3   OH242376   0.464   3.934  13.272 -0.1497  0.0671 -0.0722
 6962TIP3    H142377   0.529   3.954  13.339  0.7443 -1.1185 -0.5453
 6962TIP3    H242378   0.465   4.010  13.214 -0.9917  1.1399  1.2651
 6963TIP3   OH242379   0.978   0.520  12.619 -0.6334 -0.3200 -0.0876
 6963TIP3    H142380   1.046   0.584  12.635  0.3480 -1.5675  0.9275
 6963TIP3    H242381   0.900   0.557  12.659 -0.0450  0.1720  0.6165
 6964TIP3   OH242382   0.453   5.688  11.762  0.2877  0.2488  0.1159
 6964TIP3    H142383   0.532   5.644  11.730  0.8830  1.1705  0.2929
 6964TIP3    H242384   0.478   5.780  11.771  0.0658  0.1348  2.8629
 6965TIP3   OH242385   5.010   4.934   4.853 -0.0157  0.2880 -0.3480
 6965TIP3    H142386   4.965   4.928   4.768 -2.2305 -1.2813  0.8380
 6965TIP3    H242387   4.989   5.022   4.884 -1.2627  0.0277 -0.3876
 6966TIP3   OH242388   2.451   6.141  13.032  0.3221 -0.2234 -0.1259
 6966TIP3    H142389   2.360   6.152  13.062  0.7665 -1.9884  2.1721
 6966TIP3    H242390   2.450   6.061  12.980  0.4119  0.3165 -0.9800
 6967TIP3   OH242391   4.885   0.206  12.609 -0.1291  0.4298 -0.2379
 6967TIP3    H142392   4.955   0.270  12.596  0.1992  0.4995  1.5936
 6967TIP3    H242393   4.931   0.122  12.614 -0.4256  0.1886 -1.2596
 6968TIP3   OH242394   5.766   5.540   5.014 -0.9215  0.3707 -0.1332
 6968TIP3    H142395   5.795   5.580   5.096 -0.5844  0.1686 -0.1508
 6968TIP3    H242396   5.832   5.472   4.996 -1.5046 -0.2225 -0.0806
 6969TIP3   OH242397   5.591   5.534   2.295  0.2852 -0.1330  0.0734
 6969TIP3    H142398   5.581   5.555   2.388 -0.3061  2.8088 -0.5721
 6969TIP3    H242399   5.684   5.515   2.285  0.6800  1.1327  1.0163
 6970TIP3   OH242400   3.227   2.686   5.126 -0.1031  0.3462 -0.4831
 6970TIP3    H142401   3.306   2.655   5.083 -1.5424 -0.8305 -2.4586
 6970TIP3    H242402   3.242   2.780   5.140  0.8663  0.5485 -2.6233
 6971TIP3   OH242403   6.601   3.807  12.052 -0.2266 -0.4130  0.2766
 6971TIP3    H142404   6.628   3.790  11.962  2.5985  1.7655  0.5433
 6971TIP3    H242405   6.609   3.723  12.097  2.1291 -0.7979 -0.7346
 6972TIP3   OH242406   6.585   2.203   4.476 -0.8239 -0.7278  0.1643
 6972TIP3    H142407   6.535   2.284   4.470  0.0002 -0.1369  1.0128
 6972TIP3    H242408   6.525   2.141   4.519 -1.2902 -0.4328 -0.0516
 6973TIP3   OH242409   3.655   4.742  13.111 -1.0558 -0.5668 -0.3040
 6973TIP3    H142410   3.724   4.684  13.080 -2.2313 -0.6916 -2.9083
 6973TIP3    H242411   3.701   4.809  13.162  0.6464 -2.0542  0.2234
 6974TIP3   OH242412   6.306   5.976   0.485 -0.6255 -0.3352  0.0801
 6974TIP3    H142413   6.318   5.922   0.563 -1.3626 -0.9198 -0.1963
 6974TIP3    H242414   6.371   5.943   0.423 -1.0909 -0.9464 -0.0981
 6975TIP3   OH242415   0.296   6.252  14.113 -0.3446  0.3079 -0.4641
 6975TIP3    H142416   0.202   6.244  14.125 -0.4215 -0.8846 -1.6957
 6975TIP3    H242417   0.325   6.165  14.089  0.8200  1.0048 -1.7155
 6976TIP3   OH242418   3.680   1.189   2.330 -0.8002 -0.1337  0.2577
 6976TIP3    H142419   3.661   1.241   2.252 -1.0063  0.5847  0.7757
 6976TIP3    H242420   3.774   1.199   2.343 -0.7383 -0.3838  0.0168
 6977TIP3   OH242421   0.902   3.739   0.879 -0.3890  0.0380 -0.0959
 6977TIP3    H142422   0.978   3.787   0.846  1.3530 -2.9153 -0.7720
 6977TIP3    H242423   0.848   3.724   0.801  0.1439 -0.8192 -0.3231
 6978TIP3   OH242424   2.345   6.346   1.108  0.6304  0.4539  0.1058
 6978TIP3    H142425   2.334   6.253   1.088  0.9318  0.6228 -0.9611
 6978TIP3    H242426   2.325   6.354   1.201  0.5479 -0.6672  0.1976
 6979TIP3   OH242427   6.367   5.262   4.067 -0.4099 -0.1550  0.6336
 6979TIP3    H142428   6.409   5.276   3.982  0.6062  0.7271  1.2596
 6979TIP3    H242429   6.347   5.351   4.098  1.4030 -0.2957  2.3799
 6980TIP3   OH242430   0.662   1.812  15.709  0.0222 -0.5451 -0.1482
 6980TIP3    H142431   0.732   1.826  15.645 -0.0290  0.6981  0.0534
 6980TIP3    H242432   0.648   1.898  15.749  0.8753 -1.4846  2.3892
 6981TIP3   OH242433   2.852   1.970   3.804 -0.1763  0.7316  0.4480
 6981TIP3    H142434   2.834   2.033   3.873 -2.4980  0.2951  0.3201
 6981TIP3    H242435   2.769   1.925   3.790  0.3345  0.4701 -2.3142
 6982TIP3   OH242436   2.030   4.630   0.914 -0.0305 -0.2192 -0.4229
 6982TIP3    H142437   2.084   4.554   0.893  0.8364 -0.0441  1.0970
 6982TIP3    H242438   1.979   4.603   0.991  1.5609  1.2859  1.2316
 6983TIP3   OH242439   1.031   2.110   3.510 -0.0809  0.9086 -0.8463
 6983TIP3    H142440   1.080   2.064   3.441 -0.6333 -0.9951 -0.0313
 6983TIP3    H242441   1.099   2.155   3.560  0.4357  1.4503 -1.9933
 6984TIP3   OH242442   0.398   6.328   1.923  0.1541  0.1838  0.0166
 6984TIP3    H142443   0.433   6.362   1.840  2.1690 -0.2216  0.6357
 6984TIP3    H242444   0.472   6.334   1.984 -0.3902 -2.2492  1.0093
 6985TIP3   OH242445   6.723   3.853   3.738 -0.3999  0.1303 -0.4101
 6985TIP3    H142446   6.700   3.911   3.666 -1.7457  1.2698  0.8776
 6985TIP3    H242447   6.803   3.890   3.775  0.0072 -0.1659 -0.9739
 6986TIP3   OH242448   5.301   2.603   0.856 -0.1862 -0.3838  0.5238
 6986TIP3    H142449   5.233   2.594   0.923  0.2256 -2.7194  0.7080
 6986TIP3    H242450   5.363   2.533   0.875  1.0699  0.2506 -1.0302
 6987TIP3   OH242451   0.859   2.830  14.465  0.1760 -0.0364 -0.0446
 6987TIP3    H142452   0.905   2.853  14.384  0.6777 -0.3758  0.1420
 6987TIP3    H242453   0.801   2.759  14.440  1.2693 -1.0290  0.1607
 6988TIP3   OH242454   0.611   4.827   0.991  0.1205  0.2244  0.5852
 6988TIP3    H142455   0.610   4.827   1.087  0.8136 -0.8173  0.6152
 6988TIP3    H242456   0.568   4.745   0.967  1.7289 -0.5240  0.0762
 6989TIP3   OH242457   0.997   4.308  17.148 -0.5319  0.4715 -0.1989
 6989TIP3    H142458   1.048   4.316  17.228  1.8890 -0.2724 -1.5848
 6989TIP3    H242459   0.998   4.396  17.110  0.1242  0.3658 -0.4364
 6990TIP3   OH242460   2.644   4.770  11.832 -0.1855  1.4162  0.4767
 6990TIP3    H142461   2.665   4.839  11.895  2.1105  1.5203 -0.3166
 6990TIP3    H242462   2.722   4.715  11.830 -1.4770 -0.4897  0.1240
 6991TIP3   OH242463   3.180   0.036   5.810  0.2547  0.3072  0.3497
 6991TIP3    H142464   3.265   0.056   5.770 -0.8865  1.0544 -1.8192
 6991TIP3    H242465   3.135  -0.018   5.745 -1.0658  0.1861  1.3333
 6992TIP3   OH242466   6.283   4.709  17.458 -0.1892  0.0432  0.2889
 6992TIP3    H142467   6.215   4.698  17.525 -2.0244 -0.7758 -1.5852
 6992TIP3    H242468   6.313   4.619  17.440  1.2076  0.3675  0.8609
 6993TIP3   OH242469   3.446   1.949  13.712  0.0091  0.0179 -0.1278
 6993TIP3    H142470   3.400   1.871  13.743 -0.3253  0.6838  1.1296
 6993TIP3    H242471   3.403   1.970  13.628 -0.1838 -0.8834 -0.2670
 6994TIP3   OH242472   5.090   0.335   3.735  0.2819 -0.0242  0.1304
 6994TIP3    H142473   5.051   0.296   3.656 -1.4468  0.2049  0.8101
 6994TIP3    H242474   5.038   0.299   3.807  1.7769 -0.1637  1.1645
 6995TIP3   OH242475   6.363   3.028   3.451 -0.3171  0.4742  0.1383
 6995TIP3    H142476   6.368   3.106   3.506  0.6038  0.4053  0.1625
 6995TIP3    H242477   6.385   3.060   3.363 -1.2373  0.4806 -0.1016
 6996TIP3   OH242478   2.986   0.985   3.318 -0.2464  0.1234  0.1968
 6996TIP3    H142479   2.896   0.978   3.348 -0.4895 -1.3255 -0.7960
 6996TIP3    H242480   2.996   1.077   3.293 -1.3923  0.3339  0.4745
 6997TIP3   OH242481   1.199   4.210  13.129  0.0112  0.1036  0.4492
 6997TIP3    H142482   1.249   4.203  13.210  1.1528 -3.8316 -0.3697
 6997TIP3    H242483   1.118   4.163  13.147 -1.2208  2.0512  0.2226
 6998TIP3   OH242484   2.718   0.769   0.285 -0.5913 -0.0061 -0.0901
 6998TIP3    H142485   2.793   0.738   0.336 -0.7098  1.0027  0.7403
 6998TIP3    H242486   2.674   0.689   0.257 -0.1582 -0.6075  0.8635
 6999TIP3   OH242487   1.474   1.355   4.182 -0.0374 -0.5196  0.7099
 6999TIP3    H142488   1.419   1.286   4.144  0.7043 -0.5587 -0.3324
 6999TIP3    H242489   1.538   1.307   4.235  1.0360 -0.7396 -0.7205
 7000TIP3   OH242490   4.064   5.809   5.020 -0.3888 -0.1955 -0.7715
 7000TIP3    H142491   4.014   5.740   5.064  0.0090 -0.8059 -1.2496
 7000TIP3    H242492   4.137   5.762   4.979 -0.4629  0.4216 -1.6403
 7001TIP3   OH242493   6.248   6.106   4.948 -0.0640  0.0320  0.3925
 7001TIP3    H142494   6.331   6.060   4.946 -0.3899 -0.6190  1.1750
 7001TIP3    H242495   6.217   6.105   4.858  0.1434 -0.9025  0.3220
 7002TIP3   OH242496   4.054   6.618   2.141  0.3315 -0.2747  0.0966
 7002TIP3    H142497   4.017   6.547   2.193 -3.1143  0.8674 -0.5323
 7002TIP3    H242498   4.079   6.685   2.205 -0.2135 -0.4467  0.4890
 7003TIP3   OH242499   0.563   5.627  12.348  0.0701  0.4453 -0.7797
 7003TIP3    H142500   0.521   5.631  12.434  0.1788  1.9833 -0.7734
 7003TIP3    H242501   0.616   5.706  12.343  0.1564  0.3333 -2.2232
 7004TIP3   OH242502   4.201   3.967   2.220  0.0242 -0.1035  0.0442
 7004TIP3    H142503   4.142   3.951   2.294  0.9247 -1.4511  0.4973
 7004TIP3    H242504   4.217   3.881   2.183  1.8211  0.2021  0.0258
 7005TIP3   OH242505   0.024   0.186   3.739 -0.8426  0.7462  0.1506
 7005TIP3    H142506  -0.063   0.220   3.759 -2.0901 -0.9421 -1.9080
 7005TIP3    H242507   0.061   0.249   3.678 -1.3199  0.6476 -0.2464
 7006TIP3   OH242508   5.832   2.877   5.467  0.6281 -0.0077  0.0416
 7006TIP3    H142509   5.781   2.945   5.510 -0.1761 -0.5125 -0.1124
 7006TIP3    H242510   5.852   2.814   5.535  0.1685 -0.3256 -0.1148
 7007TIP3   OH242511   1.678   0.884   3.294 -0.4103 -0.4042 -0.1464
 7007TIP3    H142512   1.629   0.811   3.256  0.5781 -0.6339 -0.9998
 7007TIP3    H242513   1.665   0.957   3.234 -0.5609 -0.1607  0.1754
 7008TIP3   OH242514   5.491   2.232   2.598  0.4892 -0.4024 -0.2477
 7008TIP3    H142515   5.584   2.253   2.600  0.3278  1.0034 -3.0135
 7008TIP3    H242516   5.467   2.238   2.505 -2.6159  0.5100  0.4961
 7009TIP3   OH242517   0.028   5.988   2.674 -0.1937 -0.1690  0.6525
 7009TIP3    H142518   0.024   6.077   2.638  1.2662  0.2237  1.3699
 7009TIP3    H242519   0.118   5.959   2.657 -0.4316 -1.2153  1.0915
 7010TIP3   OH242520   3.413   4.070  15.707  0.6940  0.3836 -0.1929
 7010TIP3    H142521   3.418   4.101  15.798  1.4068  2.2272 -0.8006
 7010TIP3    H242522   3.489   4.111  15.665  0.7078 -0.9292 -1.4933
 7011TIP3   OH242523   1.058   2.574   0.781  0.3588  0.3061 -0.1910
 7011TIP3    H142524   1.033   2.612   0.865  1.1040 -0.4681  0.4023
 7011TIP3    H242525   1.078   2.650   0.725  1.1863  0.8218  0.7587
 7012TIP3   OH242526   0.080   0.060   5.315  0.0492 -0.1966  0.8381
 7012TIP3    H142527   0.106   0.108   5.393 -1.1437  1.2924  0.3798
 7012TIP3    H242528  -0.009   0.092   5.296  0.1121 -0.8931 -0.8170
 7013TIP3   OH242529   2.181   3.665   2.589 -0.3289 -0.1058 -0.6756
 7013TIP3    H142530   2.118   3.703   2.528 -1.4460 -0.9426 -0.0879
 7013TIP3    H242531   2.244   3.734   2.605 -0.1917  0.2515 -2.5095
 7014TIP3   OH242532   2.538   6.047  14.716 -0.1869 -0.7123 -0.3117
 7014TIP3    H142533   2.568   6.036  14.626 -0.9570 -0.8664 -0.5613
 7014TIP3    H242534   2.453   6.090  14.707 -0.6310 -1.4401  0.2998
 7015TIP3   OH242535   5.791   6.091   3.581  0.0710  0.4002  0.1250
 7015TIP3    H142536   5.779   5.996   3.572  1.2918  0.3548 -1.6882
 7015TIP3    H242537   5.886   6.102   3.585 -0.0930  1.4472  2.3299
 7016TIP3   OH242538   1.109   4.664   5.561  0.2441 -0.0912  0.1802
 7016TIP3    H142539   1.151   4.635   5.642 -0.5948  1.3571  1.1951
 7016TIP3    H242540   1.092   4.757   5.575  0.3343  0.2722 -1.7992
 7017TIP3   OH242541   1.386   5.698  11.902  0.0237 -0.0901  0.2293
 7017TIP3    H142542   1.471   5.662  11.924  0.6610 -0.1605 -2.1662
 7017TIP3    H242543   1.404   5.772  11.845 -1.5085  0.3006  0.1865
 7018TIP3   OH242544   3.468   5.438   2.299 -0.1350 -0.2258 -0.0788
 7018TIP3    H142545   3.417   5.372   2.345 -1.1565  1.1969  0.9547
 7018TIP3    H242546   3.405   5.482   2.243 -0.2015  1.7350  1.4103
 7019TIP3   OH242547   4.965   4.711  12.847  0.4778 -0.1463  0.4391
 7019TIP3    H142548   4.947   4.757  12.764 -1.3473  0.9615  1.3980
 7019TIP3    H242549   5.026   4.769  12.893  1.0406 -0.4875  0.1433
 7020TIP3   OH242550   1.148   0.110  12.425 -0.1198  0.1041 -0.2651
 7020TIP3    H142551   1.203   0.076  12.495 -0.4361 -0.9105 -0.4956
 7020TIP3    H242552   1.088   0.171  12.469  0.8396  0.8500  0.0566
 7021TIP3   OH242553   4.071   1.393  16.671 -0.2312 -0.0691 -0.4195
 7021TIP3    H142554   4.000   1.390  16.735 -0.4092  0.6803 -0.5763
 7021TIP3    H242555   4.137   1.333  16.706  1.1249  2.6759  2.2171
 7022TIP3   OH242556   6.767   0.029  15.358 -0.1982  0.7795  0.0854
 7022TIP3    H142557   6.766  -0.040  15.291 -2.0089  0.1103  0.7384
 7022TIP3    H242558   6.860   0.048  15.371  0.5771 -2.9431  1.2238
 7023TIP3   OH242559   3.471   6.685  17.523 -0.1013  0.3317 -0.2981
 7023TIP3    H142560   3.491   6.608  17.576 -0.1058 -0.2967 -1.1849
 7023TIP3    H242561   3.552   6.736  17.523 -0.7171  1.4440  2.0579
 7024TIP3   OH242562   2.541   4.913   5.360  1.0212  0.6136  0.0174
 7024TIP3    H142563   2.632   4.940   5.371  1.3739 -0.3216 -0.5140
 7024TIP3    H242564   2.531   4.896   5.266  0.2660  0.8230  0.0512
 7025TIP3   OH242565   3.831   2.488   4.185  0.0596 -0.0617  0.4369
 7025TIP3    H142566   3.793   2.492   4.097 -1.9128  0.2333  1.2507
 7025TIP3    H242567   3.799   2.568   4.228  2.8414  0.9937  0.7768
 7026TIP3   OH242568   0.612   5.064  15.393 -0.1852 -0.3857  0.0418
 7026TIP3    H142569   0.598   5.036  15.302 -2.5815 -0.3141  0.3314
 7026TIP3    H242570   0.592   4.986  15.445  0.5668 -0.2457  0.5543
 7027TIP3   OH242571   5.772   5.593   3.323 -0.0246  0.1455  0.1158
 7027TIP3    H142572   5.803   5.504   3.339 -0.4714 -0.2168 -0.9321
 7027TIP3    H242573   5.813   5.617   3.240  1.3423  1.5252  1.1366
 7028TIP3   OH242574   3.410   6.504  11.658 -0.3681 -0.4755 -0.3163
 7028TIP3    H142575   3.471   6.438  11.625  2.1023  0.6680  1.5932
 7028TIP3    H242576   3.359   6.459  11.725 -0.2181 -0.9624 -0.5260
 7029TIP3   OH242577   0.940   4.388   2.420  0.1146 -0.0449  0.3504
 7029TIP3    H142578   0.875   4.429   2.362 -0.5027  0.1161  1.1434
 7029TIP3    H242579   0.993   4.334   2.361  1.1888  2.1332 -0.8025
 7030TIP3   OH242580   5.880   0.196  16.686 -0.5502 -0.3400 -0.1948
 7030TIP3    H142581   5.901   0.277  16.640  2.8229 -1.2320 -0.4559
 7030TIP3    H242582   5.803   0.162  16.640  0.8665  0.3307 -3.3203
 7031TIP3   OH242583   4.323   3.807   0.322  0.8082 -0.4478 -0.1231
 7031TIP3    H142584   4.416   3.805   0.302  0.6026  2.5978 -1.8931
 7031TIP3    H242585   4.315   3.869   0.395  0.2092 -1.4577  0.7097
 7032TIP3   OH242586   1.541   4.614  15.997 -0.5083  0.2088  0.2409
 7032TIP3    H142587   1.448   4.637  15.998 -0.2914  1.0962  0.3077
 7032TIP3    H242588   1.587   4.696  15.982  0.3709  0.0730  1.9437
 7033TIP3   OH242589   3.382   4.740   2.338 -0.0620 -0.3605  0.3826
 7033TIP3    H142590   3.322   4.679   2.295 -0.8713 -0.5173  1.6884
 7033TIP3    H242591   3.447   4.684   2.381  0.0006 -0.2518  0.4296
 7034TIP3   OH242592   2.201   2.131  11.908  0.0281  0.3585  0.0616
 7034TIP3    H142593   2.117   2.172  11.890  0.8450  1.8350 -0.5754
 7034TIP3    H242594   2.261   2.169  11.844  1.5058  0.5184  1.4598
 7035TIP3   OH242595   4.796   4.626  17.169 -0.0953  0.0660  0.0635
 7035TIP3    H142596   4.890   4.610  17.162 -0.5223 -4.9383  1.7179
 7035TIP3    H242597   4.778   4.618  17.263 -2.1718  1.0586 -0.2027
 7036TIP3   OH242598   3.975   3.521   5.931  0.0666 -0.6639  0.0814
 7036TIP3    H142599   3.914   3.467   5.980 -0.1664  0.4244  1.0264
 7036TIP3    H242600   3.922   3.592   5.895  0.3404 -1.1180 -1.2583
 7037TIP3   OH242601   2.136   6.329   1.449  0.2937 -0.0846  0.4379
 7037TIP3    H142602   2.121   6.414   1.491  2.2528 -0.3425  1.7673
 7037TIP3    H242603   2.227   6.331   1.422  0.3193 -1.6965  0.3246
 7038TIP3   OH242604   5.279   6.687  15.037  0.0907  0.5943 -0.0840
 7038TIP3    H142605   5.216   6.658  14.972  1.2499 -2.0104 -0.1721
 7038TIP3    H242606   5.361   6.696  14.990  0.4152  1.1322  0.5583
 7039TIP3   OH242607   4.369   3.178  15.577 -0.3160  1.1387  0.1561
 7039TIP3    H142608   4.283   3.185  15.536  0.3759 -0.3982 -1.7629
 7039TIP3    H242609   4.421   3.246  15.535 -0.4290  1.7092  0.9188
 7040TIP3   OH242610   5.968   4.331  15.366  0.0100 -0.3945 -0.6130
 7040TIP3    H142611   5.987   4.424  15.352  0.0159 -0.3965 -0.6165
 7040TIP3    H242612   5.890   4.331  15.421  0.7714 -0.3876  0.4868
 7041TIP3   OH242613   6.510   1.282  12.998 -0.3273  0.1231  0.0539
 7041TIP3    H142614   6.572   1.292  13.070  0.5766 -0.9188 -0.5558
 7041TIP3    H242615   6.525   1.358  12.942  0.5485 -0.2257 -0.1922
 7042TIP3   OH242616   2.440   6.157   2.860  0.4300  0.1270  0.4155
 7042TIP3    H142617   2.488   6.238   2.839 -1.9137  1.4971  0.0382
 7042TIP3    H242618   2.349   6.184   2.867 -0.7126 -2.7867 -1.3744
 7043TIP3   OH242619   4.356   0.446  17.524  0.5447 -0.2432  1.2530
 7043TIP3    H142620   4.290   0.457  17.456  0.0712  2.9662  2.0754
 7043TIP3    H242621   4.311   0.397  17.593  0.9244 -3.2138 -0.4461
 7044TIP3   OH242622   0.184   3.957   3.848  0.3097  0.0621 -0.4119
 7044TIP3    H142623   0.215   3.943   3.938 -2.1395 -0.6424  0.3890
 7044TIP3    H242624   0.251   3.915   3.794  0.9930 -1.0103  1.1677
 7045TIP3   OH242625   0.904   2.407   5.275 -0.3232 -0.5234  0.5592
 7045TIP3    H142626   0.939   2.404   5.364  0.9105  0.6214  0.1444
 7045TIP3    H242627   0.835   2.340   5.274 -2.7418  1.6858  3.3371
 7046TIP3   OH242628   4.530   0.323  16.522 -0.0856 -0.4548  0.2838
 7046TIP3    H142629   4.601   0.260  16.533 -0.1042 -0.3614  0.9850
 7046TIP3    H242630   4.452   0.270  16.507  0.1543 -0.5535 -0.7008
 7047TIP3   OH242631   6.571   0.170   6.402 -0.4507 -0.1008  0.3596
 7047TIP3    H142632   6.519   0.091   6.391 -1.2326  0.3997  0.3947
 7047TIP3    H242633   6.517   0.227   6.457 -1.1492  1.5726 -1.9287
 7048TIP3   OH242634   3.490   2.815   0.950 -0.0061 -0.3749  0.5038
 7048TIP3    H142635   3.420   2.874   0.976 -1.0002 -0.5942 -1.5207
 7048TIP3    H242636   3.449   2.728   0.948  0.3818 -0.5499 -0.3909
 7049TIP3   OH242637   3.734   1.326   0.262 -0.6852 -0.0748  0.1938
 7049TIP3    H142638   3.802   1.279   0.215  1.3180  2.5136  0.2731
 7049TIP3    H242639   3.781   1.385   0.321 -3.0307  0.8124  1.3312
 7050TIP3   OH242640   5.181   1.773  15.981 -0.2104  0.1550  0.7026
 7050TIP3    H142641   5.133   1.694  16.007  1.8290 -1.4545 -0.1680
 7050TIP3    H242642   5.120   1.845  15.999 -3.9784 -1.8309 -2.5950
 7051TIP3   OH242643   5.122   1.770   6.230  0.2806  0.3040  0.3820
 7051TIP3    H142644   5.179   1.805   6.162 -0.2913  2.9196  1.1433
 7051TIP3    H242645   5.033   1.788   6.199 -0.1707 -1.9905  0.1095
 7052TIP3   OH242646   5.691   5.731   5.728  0.4536 -0.4472 -0.3912
 7052TIP3    H142647   5.612   5.780   5.705  0.3238 -0.0255  0.8695
 7052TIP3    H242648   5.687   5.653   5.673 -0.6138 -0.2184 -0.6673
 7053TIP3   OH242649   4.396   0.840   0.073  0.6306 -1.1130  0.4509
 7053TIP3    H142650   4.357   0.928   0.070  0.0066 -1.3908 -1.2032
 7053TIP3    H242651   4.353   0.797   0.147  0.1206 -0.3692  0.6012
 7054TIP3   OH242652   1.004   0.889  15.184 -0.1553 -0.5713 -0.0489
 7054TIP3    H142653   1.029   0.822  15.247  0.5301 -1.0978 -0.8632
 7054TIP3    H242654   0.935   0.939  15.228  0.4361 -0.8056  1.1830
 7055TIP3   OH242655   0.913   1.490  14.037 -0.0398 -0.1387 -0.9843
 7055TIP3    H142656   0.879   1.578  14.050  1.7856  0.5511 -0.6356
 7055TIP3    H242657   0.920   1.480  13.942 -0.3770  0.0383 -1.0271
 7056TIP3   OH242658   4.082   2.299   2.689 -0.4471 -0.1964  0.3218
 7056TIP3    H142659   4.081   2.362   2.761  0.5947  1.8358 -1.3411
 7056TIP3    H242660   4.035   2.343   2.619  3.5358  0.5240 -2.1974
 7057TIP3   OH242661   4.828   5.751   3.210 -0.7527  0.0154 -0.4969
 7057TIP3    H142662   4.904   5.807   3.193 -0.5140  0.0099  0.5087
 7057TIP3    H242663   4.820   5.750   3.305 -1.5459 -0.6161 -0.5645
 7058TIP3   OH242664   5.302   6.200  13.295  0.0208 -0.1770 -0.1285
 7058TIP3    H142665   5.228   6.255  13.269  0.1764  0.6764  1.1188
 7058TIP3    H242666   5.299   6.126  13.235 -2.1651 -0.4322  0.1941
 7059TIP3   OH242667   0.139   5.949  16.081 -0.0598  1.0168 -0.3132
 7059TIP3    H142668   0.157   6.019  16.143 -1.4972  0.0301  1.3149
 7059TIP3    H242669   0.045   5.955  16.063  0.2492  1.0355 -2.1313
 7060TIP3   OH242670   4.746   2.066   3.327  0.3810 -0.2462  0.0601
 7060TIP3    H142671   4.814   2.010   3.290  0.2953 -0.4981  0.2832
 7060TIP3    H242672   4.787   2.109   3.402  0.3739 -0.1983  0.0363
 7061TIP3   OH242673   0.591   2.183  14.580 -0.1104  0.2357  0.3927
 7061TIP3    H142674   0.686   2.175  14.575 -0.1372 -0.3738  0.7949
 7061TIP3    H242675   0.576   2.265  14.627  0.1948  1.3131 -1.3031
 7062TIP3   OH242676   3.083   1.337  10.784 -0.1709  0.4733 -0.5062
 7062TIP3    H142677   3.141   1.411  10.764  0.7709  0.3198  1.4515
 7062TIP3    H242678   3.141   1.269  10.817 -1.3142 -0.2501  0.0667
 7063TIP3   OH242679   2.192   1.894   2.339 -0.9053 -0.1582 -0.1181
 7063TIP3    H142680   2.119   1.859   2.289 -1.9810  1.2451  0.3911
 7063TIP3    H242681   2.164   1.888   2.430  1.3639 -3.4870  0.5212
 7064TIP3   OH242682   0.389   4.613   3.901  0.0233  0.3412  0.7526
 7064TIP3    H142683   0.456   4.548   3.922 -0.5464 -0.5640 -0.1539
 7064TIP3    H242684   0.379   4.664   3.981  0.0191 -1.0991  1.7025
 7065TIP3   OH242685   2.128   3.312   1.962  0.2841 -0.0997 -0.0270
 7065TIP3    H142686   2.078   3.309   2.044  1.7027  1.0323  0.9316
 7065TIP3    H242687   2.081   3.376   1.908  0.4665  0.6791  0.7159
 7066TIP3   OH242688   4.665   5.347  14.618  0.2097 -0.2173 -0.0878
 7066TIP3    H142689   4.622   5.293  14.553  1.6089  0.5256 -1.7111
 7066TIP3    H242690   4.654   5.300  14.700 -0.9384 -1.5681 -0.9778
 7067TIP3   OH242691   4.044   5.109   4.614  0.4194  0.2617 -0.0162
 7067TIP3    H142692   3.981   5.170   4.576 -0.9738 -0.4775  1.0133
 7067TIP3    H242693   4.045   5.035   4.555 -0.6960 -0.2855  0.6175
 7068TIP3   OH242694   2.489   5.690  14.624 -0.2769 -0.4680 -0.2630
 7068TIP3    H142695   2.489   5.738  14.541 -0.8445  0.6470  0.3552
 7068TIP3    H242696   2.454   5.752  14.687 -0.7731 -1.6240  0.6370
 7069TIP3   OH242697   2.641   2.462  13.052 -0.2406  0.2330 -0.7694
 7069TIP3    H142698   2.571   2.512  13.010  1.0243  1.3615 -1.6763
 7069TIP3    H242699   2.721   2.495  13.010  1.0635  0.8709  2.0030
 7070TIP3   OH242700   2.457   1.646   5.536 -0.0176  0.2989  0.0914
 7070TIP3    H142701   2.505   1.605   5.608  0.5912 -1.0107 -1.0152
 7070TIP3    H242702   2.401   1.712   5.578  0.6769 -0.0967  1.6908
 7071TIP3   OH242703   0.444   4.355   3.620 -0.3993 -0.7721 -0.3449
 7071TIP3    H142704   0.390   4.276   3.617  0.1507 -1.1914  0.3980
 7071TIP3    H242705   0.519   4.331   3.675 -0.3270  0.3231  0.0646
 7072TIP3   OH242706   5.927   5.559   5.962  0.1340 -0.1771  0.2484
 7072TIP3    H142707   5.979   5.530   6.037  0.8902  1.0182  0.2059
 7072TIP3    H242708   5.847   5.505   5.967  0.6789 -0.9457  1.2120
 7073TIP3   OH242709   6.630   3.517   0.513  0.2889  0.2772 -0.5367
 7073TIP3    H142710   6.624   3.429   0.549  1.2591  0.8847  1.1828
 7073TIP3    H242711   6.657   3.572   0.586  4.5971  1.2516 -2.5272
 7074TIP3   OH242712   4.902   0.849   4.545 -0.2792 -0.5935 -0.4247
 7074TIP3    H142713   4.913   0.919   4.480 -1.2536 -0.9571 -0.9984
 7074TIP3    H242714   4.856   0.892   4.618  1.8384  0.1049  0.5632
 7075TIP3   OH242715   5.661   0.085  13.659  0.4276  0.0857 -0.3968
 7075TIP3    H142716   5.643   0.172  13.694 -0.8837 -0.7666  1.2287
 7075TIP3    H242717   5.713   0.100  13.581  0.5557  2.2982  0.0592
 7076TIP3   OH242718   2.344   3.520   6.006 -0.2346 -0.4144 -0.5396
 7076TIP3    H142719   2.313   3.498   5.918 -0.4353  0.0142 -0.5781
 7076TIP3    H242720   2.403   3.448   6.029  1.7770  0.6608 -2.0221
 7077TIP3   OH242721   1.886   0.414  15.675 -0.1284  0.0779  0.3500
 7077TIP3    H142722   1.951   0.385  15.611 -0.7071  0.9983 -0.6862
 7077TIP3    H242723   1.896   0.509  15.677 -0.0093  0.0448  1.7674
 7078TIP3   OH242724   5.423   6.469   3.789  0.0353 -0.0052  0.3989
 7078TIP3    H142725   5.477   6.512   3.855 -0.7607  1.8199 -0.0432
 7078TIP3    H242726   5.333   6.496   3.811 -0.4846 -1.2681 -0.0833
 7079TIP3   OH242727   3.068   4.733  12.459 -0.6422 -0.0861  0.2652
 7079TIP3    H142728   3.064   4.828  12.467  0.1204  0.1084 -1.4420
 7079TIP3    H242729   3.013   4.712  12.384 -0.6428 -0.9906  0.4978
 7080TIP3   OH242730   6.432   1.874   2.668  0.0410  0.7046  0.1571
 7080TIP3    H142731   6.338   1.882   2.679  0.2026  2.6806  0.4465
 7080TIP3    H242732   6.450   1.913   2.583  0.2287 -3.2978 -1.8848
 7081TIP3   OH242733   4.005   3.969   2.403 -0.2204  0.0436  0.3521
 7081TIP3    H142734   3.983   4.062   2.412  1.0092  0.3471  0.3681
 7081TIP3    H242735   3.961   3.926   2.477 -2.4300  0.2877 -0.7434
 7082TIP3   OH242736   5.649   5.201   6.893  0.2287  0.4271 -0.3852
 7082TIP3    H142737   5.658   5.293   6.921 -0.9624  0.7981 -1.1639
 7082TIP3    H242738   5.572   5.169   6.940  0.2882  0.0086 -0.5696
 7083TIP3   OH242739   5.910   5.868   5.893 -0.3460 -0.6026  0.2235
 7083TIP3    H142740   5.898   5.945   5.837  1.2580  0.3879  1.1731
 7083TIP3    H242741   5.893   5.794   5.834  0.0321  0.4216 -1.2552
 7084TIP3   OH242742   2.027   4.248   0.564  0.1972  0.0176  0.0855
 7084TIP3    H142743   1.972   4.234   0.641  0.1078  0.3038  0.0727
 7084TIP3    H242744   1.995   4.329   0.526 -1.4515 -1.3667 -1.6965
 7085TIP3   OH242745   6.115   5.306   4.688  0.1918  0.7177 -0.1535
 7085TIP3    H142746   6.050   5.326   4.756  0.7114 -0.8792  0.8809
 7085TIP3    H242747   6.168   5.386   4.681 -1.1110  1.6131 -0.1473
 7086TIP3   OH242748   4.193   6.053  13.936 -0.0838 -0.1019  0.3251
 7086TIP3    H142749   4.251   6.045  14.012  0.4045  1.6183  0.1756
 7086TIP3    H242750   4.231   6.123  13.883 -1.1945 -0.3037 -0.8075
 7087TIP3   OH242751   4.246   0.558   3.949  0.7139  0.8046 -0.2734
 7087TIP3    H142752   4.199   0.602   4.020 -3.1618  0.5834 -2.4156
 7087TIP3    H242753   4.259   0.626   3.883 -0.2097  0.0316 -1.2931
 7088TIP3   OH242754   4.100   6.727   5.822  0.4214 -0.2781 -0.2007
 7088TIP3    H142755   4.079   6.655   5.883  0.1146 -1.1703 -1.3203
 7088TIP3    H242756   4.192   6.746   5.839  0.0050  0.4684  1.5022
 7089TIP3   OH242757   1.136   3.598  15.292 -0.5048 -0.0549  0.4471
 7089TIP3    H142758   1.129   3.694  15.285 -2.0712 -0.2308 -1.1183
 7089TIP3    H242759   1.048   3.566  15.271  0.8291 -1.9627 -2.9526
 7090TIP3   OH242760   6.176   4.517   0.322  0.4081 -0.0412 -0.1451
 7090TIP3    H142761   6.163   4.552   0.411  1.3888  3.6099 -1.2492
 7090TIP3    H242762   6.088   4.508   0.286  0.0439 -0.6587  0.8552
 7091TIP3   OH242763   4.327   3.268   0.727  0.5557  0.0681  0.0182
 7091TIP3    H142764   4.234   3.244   0.726  0.5230  0.1971 -0.0468
 7091TIP3    H242765   4.350   3.279   0.635  1.4349 -3.0318 -0.2330
 7092TIP3   OH242766   1.217   6.170   2.424 -0.0383  0.6923 -0.0235
 7092TIP3    H142767   1.176   6.227   2.489 -1.4600 -0.0089 -0.2665
 7092TIP3    H242768   1.220   6.084   2.466 -2.4374 -0.1551 -1.3647
 7093TIP3   OH242769   4.973   3.861   1.653 -0.0725 -0.4987  0.0687
 7093TIP3    H142770   4.996   3.787   1.597 -1.4907  0.0256 -1.2844
 7093TIP3    H242771   4.953   3.822   1.738 -1.4354 -1.7746 -0.7964
 7094TIP3   OH242772   0.472   0.477   2.288  0.3340  0.3130  0.7881
 7094TIP3    H142773   0.398   0.433   2.330  1.8062 -2.1054  1.0204
 7094TIP3    H242774   0.525   0.511   2.360  1.0744 -0.7772  0.7688
 7095TIP3   OH242775   2.268   3.909   2.266 -0.1882  0.3047 -0.0726
 7095TIP3    H142776   2.175   3.890   2.255 -0.3804  1.0883  0.1268
 7095TIP3    H242777   2.284   3.986   2.211  0.6431 -0.5877 -1.1322
 7096TIP3   OH242778   6.701   5.516  17.044 -0.2206  0.0734 -0.9756
 7096TIP3    H142779   6.777   5.569  17.069  1.0426 -0.8684 -2.6099
 7096TIP3    H242780   6.719   5.429  17.080 -2.0193  0.5285  1.2130
 7097TIP3   OH242781   6.098   4.231   3.116  0.3116  0.3581 -0.0094
 7097TIP3    H142782   6.003   4.222   3.104  0.4426  1.5616 -2.6808
 7097TIP3    H242783   6.116   4.323   3.100  2.0173  0.0135 -0.2848
 7098TIP3   OH242784   3.482   1.862  15.765 -0.0993  0.1741 -0.5139
 7098TIP3    H142785   3.520   1.944  15.799  0.2777  0.3592 -1.3586
 7098TIP3    H242786   3.479   1.875  15.670 -4.1131  0.9528 -0.4222
 7099TIP3   OH242787   2.471   4.627   2.076 -0.0149  0.2367  0.1451
 7099TIP3    H142788   2.397   4.684   2.057  0.3786  0.8848  0.5169
 7099TIP3    H242789   2.434   4.553   2.124 -0.1634  1.4824  2.0244
 7100TIP3   OH242790   2.801   3.402   0.802  0.2326 -0.1094 -0.1313
 7100TIP3    H142791   2.710   3.412   0.831  0.4368 -1.9341  1.4040
 7100TIP3    H242792   2.801   3.322   0.750  0.9118  0.0236 -0.3508
 7101TIP3   OH242793   2.086   4.036   2.895 -0.3436  0.2243  0.4301
 7101TIP3    H142794   2.077   4.024   2.989 -0.4589 -0.7733  0.2971
 7101TIP3    H242795   2.060   3.953   2.857  1.8430 -0.1677 -0.3666
 7102TIP3   OH242796   0.059   3.190   1.025 -0.1056  0.4307  0.9548
 7102TIP3    H142797  -0.027   3.148   1.028 -0.2247  0.6151  0.3934
 7102TIP3    H242798   0.110   3.147   1.093 -0.3111 -0.4333  0.5704
 7103TIP3   OH242799   2.146   5.459   2.328 -0.2815  0.9181  0.1721
 7103TIP3    H142800   2.216   5.509   2.287  0.4560  0.2243  0.5505
 7103TIP3    H242801   2.171   5.367   2.315  0.7544  0.6294  3.3185
 7104TIP3   OH242802   4.942   2.005  17.321 -0.2323 -0.2342  0.4278
 7104TIP3    H142803   4.886   1.929  17.336 -1.4320  0.1877 -1.6294
 7104TIP3    H242804   4.892   2.079  17.354 -0.5677  0.0434 -0.6639
 7105TIP3   OH242805   0.972   6.344  13.126  0.2308  0.0778 -0.1265
 7105TIP3    H142806   0.962   6.272  13.189  1.2804 -0.2252 -0.2739
 7105TIP3    H242807   0.910   6.411  13.155 -2.1033 -1.5786 -1.0378
 7106TIP3   OH242808   4.270   1.665   2.900  0.1551  0.0964 -0.3773
 7106TIP3    H142809   4.237   1.751   2.873  0.1690  0.0004 -0.7130
 7106TIP3    H242810   4.194   1.608   2.897  0.0341  0.2075  0.3656
 7107TIP3   OH242811   0.387   4.023   4.951 -0.2301  0.1242  0.0559
 7107TIP3    H142812   0.420   3.937   4.924  0.1546  0.2873  0.0028
 7107TIP3    H242813   0.328   4.049   4.880  1.2841  0.8503 -0.9999
 7108TIP3   OH242814   3.941   0.303  11.339  0.4281 -0.0055  0.0509
 7108TIP3    H142815   3.933   0.312  11.244  2.4443 -0.2777 -0.1884
 7108TIP3    H242816   3.853   0.321  11.373 -0.8023 -1.8002 -1.9947
 7109TIP3   OH242817   0.492   5.669   4.868  0.0863  0.0601  0.3526
 7109TIP3    H142818   0.551   5.604   4.906  0.2302 -0.1351 -0.1971
 7109TIP3    H242819   0.547   5.747   4.855  0.0406  0.1223  0.5355
 7110TIP3   OH242820   2.330   1.084   0.978 -0.6385 -0.2149 -0.4359
 7110TIP3    H142821   2.366   1.147   1.040 -0.9568  0.9359 -1.3751
 7110TIP3    H242822   2.406   1.053   0.928  0.0186 -2.9962  2.0122
 7111TIP3   OH242823   0.162   3.204  16.769 -0.8419  0.3494 -0.1208
 7111TIP3    H142824   0.163   3.181  16.676 -0.7781 -1.4095  0.2843
 7111TIP3    H242825   0.135   3.296  16.770  2.4540  1.5186 -2.0645
 7112TIP3   OH242826   5.479   1.788   3.465 -0.5410  0.5395  0.7650
 7112TIP3    H142827   5.470   1.715   3.403  0.2697  1.2326 -0.1970
 7112TIP3    H242828   5.510   1.747   3.545 -0.1556 -0.1945  0.2604
 7113TIP3   OH242829   0.962   3.664  15.827 -0.2295  0.1227  0.5107
 7113TIP3    H142830   0.875   3.632  15.849 -0.2462  0.6594  1.2741
 7113TIP3    H242831   0.970   3.648  15.733 -0.5934 -1.2203  0.6824
 7114TIP3   OH242832   5.310   0.027   3.759  0.2855 -0.3079  0.3897
 7114TIP3    H142833   5.342   0.049   3.847 -0.2648  0.1073  0.4879
 7114TIP3    H242834   5.242  -0.039   3.774 -0.1351  0.1078  0.3074
 7115TIP3   OH242835   4.753   6.292  13.386  0.4891 -0.2451 -0.1459
 7115TIP3    H142836   4.792   6.375  13.357 -1.3953  0.9510  0.5147
 7115TIP3    H242837   4.784   6.227  13.323  0.9666  1.2090 -1.4651
 7116TIP3   OH242838   3.790   2.156   3.050 -0.3780  0.4603  0.8487
 7116TIP3    H142839   3.770   2.247   3.031  0.0316  0.4295  0.2577
 7116TIP3    H242840   3.713   2.107   3.021 -1.8632  0.8422  3.7494
 7117TIP3   OH242841   4.501   0.319  15.268  0.0716  0.1393  0.1763
 7117TIP3    H142842   4.519   0.288  15.357  1.0914 -0.1578 -0.1290
 7117TIP3    H242843   4.418   0.277  15.246  0.2659 -0.5212  0.6490
 7118TIP3   OH242844   1.879   6.426  12.415  0.8229 -0.0001 -0.0056
 7118TIP3    H142845   1.949   6.483  12.447  1.4054 -0.5217 -0.3372
 7118TIP3    H242846   1.841   6.473  12.341  2.0056 -0.5035 -0.9595
 7119TIP3   OH242847   4.505   5.007   2.409 -0.1743  0.2490 -0.2831
 7119TIP3    H142848   4.508   5.102   2.421  0.3444  0.3694 -1.2671
 7119TIP3    H242849   4.586   4.986   2.364 -0.4390 -0.6215 -0.3755
 7120TIP3   OH242850   1.003   0.015  15.186 -0.3214 -0.3577  0.0866
 7120TIP3    H142851   1.058   0.058  15.252  1.1307 -2.4112  0.2868
 7120TIP3    H242852   0.920  -0.001  15.231 -0.7825  1.8197  0.1141
 7121TIP3   OH242853   6.615   1.188  14.111 -0.0131 -0.0222  0.1795
 7121TIP3    H142854   6.708   1.197  14.135  0.1753 -0.9019 -0.1850
 7121TIP3    H242855   6.586   1.110  14.158  0.2467 -1.5422 -2.0107
 7122TIP3   OH242856   4.170   5.460   3.058  0.6129 -0.3043 -0.0032
 7122TIP3    H142857   4.230   5.491   3.126 -0.2599 -0.5986  0.9232
 7122TIP3    H242858   4.129   5.383   3.096  1.6018 -1.7225 -1.6714
 7123TIP3   OH242859   5.864   3.225  10.899 -0.3795  0.1902  0.1999
 7123TIP3    H142860   5.940   3.190  10.946  0.5262  1.8561  0.0507
 7123TIP3    H242861   5.868   3.320  10.913 -2.5448  0.3150  0.3163
 7124TIP3   OH242862   4.781   6.561  16.289 -0.6637  0.1663 -0.6419
 7124TIP3    H142863   4.750   6.650  16.272 -0.5832  0.1412 -0.9261
 7124TIP3    H242864   4.755   6.511  16.212 -0.3666  0.0313 -0.6585
 7125TIP3   OH242865   0.555   0.312  16.718 -0.2209 -0.4232 -0.3371
 7125TIP3    H142866   0.462   0.296  16.734 -0.0573 -0.2716  0.8860
 7125TIP3    H242867   0.580   0.375  16.785  1.4260 -2.6695  1.3090
 7126TIP3   OH242868   2.398   3.905   2.678 -0.0713 -0.1014  0.5673
 7126TIP3    H142869   2.446   3.988   2.680  0.6753 -0.4127 -1.4293
 7126TIP3    H242870   2.308   3.931   2.657 -0.0559  0.2729  0.9483
 7127TIP3   OH242871   4.960   3.910  14.636 -0.3394  0.2120 -0.1856
 7127TIP3    H142872   4.975   3.868  14.721  0.2542 -1.4883 -1.0685
 7127TIP3    H242873   4.978   3.840  14.572 -0.5653  1.4999 -1.7110
 7128TIP3   OH242874   1.664   6.355  14.751  0.1405 -0.1344  0.1456
 7128TIP3    H142875   1.712   6.389  14.826 -0.1246  1.1365 -0.2444
 7128TIP3    H242876   1.603   6.425  14.727  0.2315 -0.5016 -1.2692
 7129TIP3   OH242877   5.435   6.237  11.357  0.0978  0.2500 -0.0599
 7129TIP3    H142878   5.403   6.301  11.293  0.1820  0.2551 -0.0975
 7129TIP3    H242879   5.425   6.153  11.314 -1.5514  0.0751  0.6084
 7130TIP3   OH242880   0.236   2.286   0.597 -0.5314 -0.1057 -0.6574
 7130TIP3    H142881   0.188   2.315   0.519 -0.5680 -1.6352 -1.2335
 7130TIP3    H242882   0.171   2.288   0.667 -0.3654  1.8142 -0.4940
 7131TIP3   OH242883   5.410   1.712  11.164  0.4434  0.2148  0.6273
 7131TIP3    H142884   5.393   1.789  11.111  1.0105  0.1691  0.3822
 7131TIP3    H242885   5.483   1.668  11.121 -0.0839 -0.6342  0.5794
 7132TIP3   OH242886   0.718   2.735   3.483 -0.3867 -0.6303 -0.2531
 7132TIP3    H142887   0.668   2.682   3.545 -1.3582 -0.2639 -0.7085
 7132TIP3    H242888   0.724   2.682   3.404  0.1657 -0.7700 -0.1245
 7133TIP3   OH242889   5.081   5.354  10.989  0.1414 -0.2694 -0.4889
 7133TIP3    H142890   5.158   5.359  11.046 -0.9959  1.0490  1.0222
 7133TIP3    H242891   5.115   5.323  10.905  2.1877 -0.4217  0.3399
 7134TIP3   OH242892   5.429   5.312  15.992 -0.6193  1.0382  0.2919
 7134TIP3    H142893   5.496   5.263  15.945  0.2132  1.7876  0.6795
 7134TIP3    H242894   5.402   5.254  16.063  0.3469  1.1376  0.7433
 7135TIP3   OH242895   5.243   1.726  12.023 -0.1308  0.5547  0.8019
 7135TIP3    H142896   5.207   1.637  12.023  1.4955 -0.1919  3.5095
 7135TIP3    H242897   5.208   1.766  12.102  0.2888  1.8883  0.3396
 7136TIP3   OH242898   5.804   5.759   3.667  0.0787 -0.4373 -0.5410
 7136TIP3    H142899   5.810   5.787   3.575 -0.2816  2.2896  0.1796
 7136TIP3    H242900   5.891   5.725   3.687  0.5825  0.2077 -1.5250
 7137TIP3   OH242901   2.547   2.463   5.578 -0.3997 -0.2562  0.7408
 7137TIP3    H142902   2.581   2.492   5.494 -1.1549  0.0764  0.5426
 7137TIP3    H242903   2.568   2.369   5.581 -3.6196 -1.2506 -1.5519
 7138TIP3   OH242904   3.170   6.075   3.958  0.0850 -0.5215  0.2759
 7138TIP3    H142905   3.163   6.159   3.913  0.7438 -0.8539 -0.4856
 7138TIP3    H242906   3.222   6.093   4.036 -1.0717  0.0667  0.9214
 7139TIP3   OH242907   0.514   6.534  13.316 -0.2262  0.3128  0.2604
 7139TIP3    H142908   0.475   6.479  13.384 -0.3017  0.0236 -0.0147
 7139TIP3    H242909   0.487   6.623  13.340 -0.6580  0.1653  0.3412
 7140TIP3   OH242910   2.738   4.344   1.596  0.1999 -0.4189 -0.2221
 7140TIP3    H142911   2.656   4.390   1.575  0.6701  0.2744 -0.6024
 7140TIP3    H242912   2.762   4.377   1.682  0.4807 -0.0237 -0.4481
 7141TIP3   OH242913   1.612   5.352  12.024  0.2832  0.1561  0.0640
 7141TIP3    H142914   1.610   5.304  11.941 -0.2049  0.6377 -0.2130
 7141TIP3    H242915   1.692   5.322  12.068 -0.4688 -1.5870  0.3183
 7142TIP3   OH242916   2.862   3.469   1.075 -0.4008 -0.0337 -0.6068
 7142TIP3    H142917   2.954   3.444   1.066 -0.2350  0.1901  0.3867
 7142TIP3    H242918   2.825   3.456   0.988  0.7109  0.4519 -1.1684
 7143TIP3   OH242919   3.226   6.741  10.933  0.4121 -0.0263 -0.4325
 7143TIP3    H142920   3.135   6.757  10.906  0.6641  0.5019 -0.9940
 7143TIP3    H242921   3.220   6.671  10.997 -0.3605 -0.2359 -0.7250
 7144TIP3   OH242922   0.009   1.287   3.561  0.5587 -0.3612  0.1447
 7144TIP3    H142923  -0.078   1.278   3.523  0.0536  0.3739  1.0602
 7144TIP3    H242924   0.016   1.214   3.623  0.4985 -0.2796  0.2474
 7145TIP3   OH242925   5.876   6.078   4.289 -0.0956 -0.3727 -0.3525
 7145TIP3    H142926   5.912   6.049   4.205  0.6247 -2.4662  0.5947
 7145TIP3    H242927   5.790   6.037   4.294  0.2090 -0.9478  0.2695
 7146TIP3   OH242928   6.451   6.385  11.609 -0.6503  0.3254  0.0033
 7146TIP3    H142929   6.515   6.388  11.680 -1.2352  2.1367  0.4976
 7146TIP3    H242930   6.366   6.381  11.653 -1.0684  2.4296 -0.5335
 7147TIP3   OH242931   0.100   4.533   3.656  0.2008 -0.1918 -0.2282
 7147TIP3    H142932   0.106   4.472   3.730  1.0058 -1.0230 -0.9629
 7147TIP3    H242933   0.115   4.619   3.695 -0.9167 -0.4392  0.8175
 7148TIP3   OH242934   0.040   1.306  12.027  0.1744 -0.1636 -0.2251
 7148TIP3    H142935  -0.051   1.310  11.997  0.0314  0.1428  0.2323
 7148TIP3    H242936   0.069   1.397  12.028  1.2543 -0.4174 -2.6068
 7149TIP3   OH242937   1.628   4.287  10.517  0.4485 -0.0023  0.0311
 7149TIP3    H142938   1.580   4.214  10.556  0.2715  0.9967  1.8200
 7149TIP3    H242939   1.699   4.303  10.579  0.5329  1.2743 -0.3770
 7150TIP3   OH242940   0.356   0.690  12.741 -0.0110 -0.4636 -0.3034
 7150TIP3    H142941   0.398   0.714  12.823  0.4785 -1.1823 -0.3387
 7150TIP3    H242942   0.412   0.726  12.673 -0.1320 -0.3334 -0.3361
 7151TIP3   OH242943   1.403   6.186  12.872  0.1468 -0.1710 -0.0615
 7151TIP3    H142944   1.351   6.108  12.850 -1.8568  1.2966 -0.9105
 7151TIP3    H242945   1.355   6.226  12.944  1.6332 -0.1326  0.9423
 7152TIP3   OH242946   4.893   5.172  17.112 -0.2390  0.3783  0.3160
 7152TIP3    H142947   4.920   5.083  17.087  1.1313  0.7975  0.2292
 7152TIP3    H242948   4.811   5.186  17.064 -2.4094 -2.0730  2.9475
 7153TIP3   OH242949   4.278   1.117   0.889 -0.3880  0.2113 -0.0870
 7153TIP3    H142950   4.303   1.162   0.969  1.7288  0.5110 -0.8628
 7153TIP3    H242951   4.212   1.053   0.917 -0.4394  0.9930  1.6919
 7154TIP3   OH242952   0.673   6.182  17.065 -0.4069 -0.2913  0.8366
 7154TIP3    H142953   0.723   6.101  17.057 -0.7949 -0.5377  0.9146
 7154TIP3    H242954   0.666   6.214  16.975 -2.0893 -1.4583  0.5115
 7155TIP3   OH242955   3.528   2.983  15.311 -0.0277  0.5505 -0.1330
 7155TIP3    H142956   3.615   3.001  15.278  0.9080  3.0182  3.1285
 7155TIP3    H242957   3.540   2.912  15.375 -0.9130 -0.8023 -1.4110
 7156TIP3   OH242958   1.972   2.107   0.432 -0.0519 -0.0229  0.4872
 7156TIP3    H142959   2.018   2.162   0.368  0.7871 -4.4290 -3.2679
 7156TIP3    H242960   1.908   2.058   0.380 -1.2975 -2.0322  3.5951
 7157TIP3   OH242961   5.144   2.890   0.828  0.1982  0.5412  0.1154
 7157TIP3    H142962   5.178   2.889   0.738 -2.4420  0.4567 -0.9641
 7157TIP3    H242963   5.107   2.803   0.840 -0.5552  0.9566  0.8299
 7158TIP3   OH242964   5.808   4.978  13.457 -0.1927  0.0376 -0.4666
 7158TIP3    H142965   5.832   4.962  13.366 -0.4790 -0.1963 -0.5029
 7158TIP3    H242966   5.892   4.985  13.503 -0.0425  0.4524 -0.7950
 7159TIP3   OH242967   5.621   3.016  12.758 -0.1105  0.5334  0.3993
 7159TIP3    H142968   5.701   3.067  12.771 -0.7134  1.3526  1.0357
 7159TIP3    H242969   5.557   3.079  12.725  0.1838 -0.6472 -2.6818
 7160TIP3   OH242970   4.776   3.568   3.518 -0.5833  0.6257 -0.1092
 7160TIP3    H142971   4.763   3.579   3.424  1.3409  2.0872 -0.2737
 7160TIP3    H242972   4.863   3.605   3.534  0.2422 -1.9033  1.8534
 7161TIP3   OH242973   3.724   5.867   3.553  0.2999 -0.6525 -0.4139
 7161TIP3    H142974   3.638   5.892   3.519 -0.3561 -0.1862  1.4150
 7161TIP3    H242975   3.704   5.806   3.625  1.3555  0.6809  1.1000
 7162TIP3   OH242976   5.840   4.673   0.299 -0.1380  0.1713  0.4857
 7162TIP3    H142977   5.812   4.754   0.340 -0.9006 -0.4522  1.2285
 7162TIP3    H242978   5.845   4.694   0.206 -1.5925  0.7258  0.5062
 7163TIP3   OH242979   2.005   2.980   6.779  0.7172  0.1452 -0.1698
 7163TIP3    H142980   1.927   2.950   6.733  0.5613 -0.3223  0.3799
 7163TIP3    H242981   1.981   3.067   6.811 -0.0842 -0.5185  1.1249
 7164TIP3   OH242982   4.918   3.118  12.233 -0.9836 -0.2222 -0.6537
 7164TIP3    H142983   4.973   3.161  12.299 -0.8828 -0.6928 -0.4290
 7164TIP3    H242984   4.837   3.097  12.280 -0.6118 -1.2654 -0.4594
 7165TIP3   OH242985   5.490   2.913  15.879 -0.5571  0.2294 -0.0724
 7165TIP3    H142986   5.497   2.824  15.844  0.1268  0.5694 -0.8285
 7165TIP3    H242987   5.402   2.942  15.856  0.3254  0.9747 -2.8702
 7166TIP3   OH242988   2.155   0.199   3.324 -0.1153 -0.9297 -0.0945
 7166TIP3    H142989   2.190   0.124   3.372  3.1809  0.4077 -0.1174
 7166TIP3    H242990   2.155   0.271   3.387  1.5385  0.1494 -1.2155
 7167TIP3   OH242991   0.505   4.939  14.809  0.4814  0.6386 -0.2555
 7167TIP3    H142992   0.475   4.848  14.803  0.5866  0.5865 -0.0051
 7167TIP3    H242993   0.487   4.964  14.900  0.5798  0.8226 -0.2857
 7168TIP3   OH242994   5.778   1.568  12.516  0.4886 -0.1900 -0.0176
 7168TIP3    H142995   5.707   1.618  12.556  1.1381 -0.2081  1.1859
 7168TIP3    H242996   5.736   1.486  12.489 -0.5381  0.8534 -1.8524
 7169TIP3   OH242997   6.035   5.322  16.345 -0.0567 -0.0100 -0.0550
 7169TIP3    H142998   5.975   5.251  16.368 -1.4402  0.8107 -1.0099
 7169TIP3    H242999   6.095   5.282  16.282 -1.6254 -0.0680 -1.6039
 7170TIP3   OH243000   5.557   1.541   0.198  0.3506 -0.8156  0.1183
 7170TIP3    H143001   5.537   1.530   0.291 -0.3308 -1.1987 -0.0696
 7170TIP3    H243002   5.653   1.542   0.195  0.4239 -2.2679  0.6742
 7171TIP3   OH243003   4.518   4.915  13.404  0.1045 -0.1441  0.2269
 7171TIP3    H143004   4.576   4.916  13.327 -0.2910 -2.7979 -0.2014
 7171TIP3    H243005   4.441   4.865  13.375  0.2369 -1.8183  2.5276
 7172TIP3   OH243006   6.124   5.493   3.573  0.1742 -0.4400  0.1019
 7172TIP3    H143007   6.066   5.471   3.500  0.0656 -0.9111  0.3272
 7172TIP3    H243008   6.212   5.473   3.541  0.0863 -1.1394  0.2686
 7173TIP3   OH243009   4.162   5.323  10.640  0.0219 -0.7416 -0.2271
 7173TIP3    H143010   4.095   5.256  10.653 -1.4225  0.2422 -2.0381
 7173TIP3    H243011   4.113   5.402  10.619  1.7166  0.6394  0.7317
 7174TIP3   OH243012   1.320   6.393   4.812  0.0488 -0.3999 -0.0055
 7174TIP3    H143013   1.406   6.409   4.853  0.3587  1.0762 -1.1466
 7174TIP3    H243014   1.276   6.334   4.873  2.3961 -2.4032 -0.0774
 7175TIP3   OH243015   1.840   5.309   6.230 -0.3288 -0.2050 -0.3353
 7175TIP3    H143016   1.884   5.246   6.288 -0.0783  1.2315  1.0890
 7175TIP3    H243017   1.823   5.385   6.286 -2.8172  0.0860 -1.3815
 7176TIP3   OH243018   2.041   4.953   3.267  0.6540 -0.2358 -0.4218
 7176TIP3    H143019   1.974   4.885   3.272  0.3771 -0.0703 -1.5942
 7176TIP3    H243020   2.074   4.961   3.357 -0.0026 -1.2082 -0.0782
 7177TIP3   OH243021   3.646   3.572   3.884  0.1894  0.2741 -0.0188
 7177TIP3    H143022   3.713   3.639   3.867 -0.0552  0.3282 -0.7985
 7177TIP3    H243023   3.614   3.592   3.972 -0.0413  1.3218 -0.3310
 7178TIP3   OH243024   5.110   2.277   4.123 -0.5669 -0.6520  0.7781
 7178TIP3    H143025   5.173   2.205   4.115 -0.6122 -0.6253  0.1758
 7178TIP3    H243026   5.052   2.266   4.048  0.4018  0.9782 -0.2799
 7179TIP3   OH243027   6.273   3.861   1.838 -0.4908  0.1400  0.1472
 7179TIP3    H143028   6.192   3.873   1.887 -0.4946 -0.8417  0.4058
 7179TIP3    H243029   6.247   3.867   1.746 -1.2035 -1.9108  0.1650
 7180TIP3   OH243030   0.635   0.541   3.875  0.1153 -0.3437 -0.2866
 7180TIP3    H143031   0.550   0.570   3.842 -1.0413 -0.2157  2.5219
 7180TIP3    H243032   0.695   0.611   3.850 -1.5003  1.7864  1.3394
 7181TIP3   OH243033   2.997   0.024  17.358  0.0910  1.0566 -0.1458
 7181TIP3    H143034   3.049  -0.054  17.380 -0.2013  0.9278  0.0992
 7181TIP3    H243035   3.055   0.098  17.379 -0.3536  0.9535  1.6067
 7182TIP3   OH243036   4.859   0.724  14.928  0.1549  0.7163 -1.3375
 7182TIP3    H143037   4.781   0.670  14.919 -0.5219  1.2758  0.6594
 7182TIP3    H243038   4.930   0.668  14.896 -0.8092 -0.5102 -1.4141
 7183TIP3   OH243039   1.092   3.515   4.521 -0.0633 -0.1065 -0.2113
 7183TIP3    H143040   1.115   3.552   4.436  2.4909  0.0675  0.4781
 7183TIP3    H243041   1.144   3.565   4.584 -1.2978 -0.7478  1.4000
 7184TIP3   OH243042   1.491   5.940  16.591  0.2194  0.3727  0.0320
 7184TIP3    H143043   1.446   5.884  16.654  1.1770  0.0034  0.4062
 7184TIP3    H243044   1.584   5.924  16.607  0.4963 -0.1542 -1.8254
 7185TIP3   OH243045   4.552   5.417  12.750 -0.2646 -0.1307 -0.0880
 7185TIP3    H143046   4.482   5.473  12.783 -0.5155 -0.9909  0.9130
 7185TIP3    H243047   4.623   5.477  12.728 -1.6168  0.8378 -1.9871
 7186TIP3   OH243048   6.712   4.035   3.507 -0.6097 -0.2901  0.0771
 7186TIP3    H143049   6.775   4.091   3.461 -0.1997 -0.3935  0.5112
 7186TIP3    H243050   6.629   4.052   3.463 -0.4627  0.5627  0.1128
 7187TIP3   OH243051   3.774   0.386   1.072 -0.5319  0.3044  1.1151
 7187TIP3    H143052   3.817   0.448   1.013 -1.3742 -1.3504 -1.4182
 7187TIP3    H243053   3.840   0.318   1.086 -1.1612 -0.6345 -0.1899
 7188TIP3   OH243054   3.704   0.812   0.643 -0.1243  0.2807  0.0538
 7188TIP3    H143055   3.723   0.901   0.674  1.1758  0.3130 -0.7938
 7188TIP3    H243056   3.787   0.779   0.611 -1.1172 -0.3016 -2.0602
 7189TIP3   OH243057   3.535   0.603  12.678 -0.1242  0.1192 -0.4643
 7189TIP3    H143058   3.452   0.555  12.682  0.0436 -0.0960  1.9557
 7189TIP3    H243059   3.517   0.685  12.724  0.8635  0.2827 -0.3643
 7190TIP3   OH243060   5.787   1.932   5.626  0.1248 -0.3456 -0.2460
 7190TIP3    H143061   5.728   1.879   5.571  0.0847 -1.2858  0.6673
 7190TIP3    H243062   5.866   1.879   5.634 -0.2315 -0.6861  1.3836
 7191TIP3   OH243063   0.797   0.334  15.088 -0.8705 -0.6011 -0.2975
 7191TIP3    H143064   0.827   0.424  15.103  0.0947 -1.3779  3.6302
 7191TIP3    H243065   0.702   0.340  15.092 -0.8370  0.2956 -0.5963
 7192TIP3   OH243066   0.667   4.597  16.770 -0.5500  0.0035  0.0824
 7192TIP3    H143067   0.588   4.640  16.736 -0.3502 -0.3835 -0.8986
 7192TIP3    H243068   0.634   4.531  16.831 -0.9089  0.7931  0.7669
 7193TIP3   OH243069   4.102   4.466  17.208 -0.0104  0.2028 -1.1162
 7193TIP3    H143070   4.092   4.555  17.175 -0.1968  1.0220  1.0014
 7193TIP3    H243071   4.191   4.441  17.182  0.8003  1.8053 -0.0442
 7194TIP3   OH243072   4.302   4.432  13.750 -0.4198 -0.1224  0.2917
 7194TIP3    H143073   4.329   4.444  13.841  0.1521 -3.6007  0.7135
 7194TIP3    H243074   4.231   4.368  13.754 -2.0013  1.3865 -1.5992
 7195TIP3   OH243075   3.593   6.357   3.532 -0.4286  0.1765  0.2381
 7195TIP3    H143076   3.503   6.360   3.563 -0.2205 -0.4922  0.9290
 7195TIP3    H243077   3.645   6.338   3.610 -0.0030 -2.7678 -0.6357
 7196TIP3   OH243078   5.702   3.160   5.773 -0.6397 -0.2360 -0.2010
 7196TIP3    H143079   5.717   3.249   5.742  0.9294 -0.3691  0.1057
 7196TIP3    H243080   5.618   3.164   5.819  0.7692  1.8498  2.5007
 7197TIP3   OH243081   0.888   1.030   4.451 -0.1922 -0.3891  0.2936
 7197TIP3    H143082   0.918   1.115   4.418 -0.0095  0.0500  1.5502
 7197TIP3    H243083   0.823   1.052   4.518 -0.1921 -1.2514  0.5821
 7198TIP3   OH243084   6.584   4.569   0.233  0.0937  0.5100 -0.4413
 7198TIP3    H143085   6.657   4.614   0.275 -0.1920  1.0863 -0.5381
 7198TIP3    H243086   6.570   4.490   0.285 -0.3067  1.2443  0.6078
 7199TIP3   OH243087   6.763   1.635   5.037  0.0833 -0.0965 -0.1872
 7199TIP3    H143088   6.696   1.618   4.971 -1.2257 -0.8835  1.2651
 7199TIP3    H243089   6.717   1.623   5.120  1.3743  1.9212  0.9024
 7200TIP3   OH243090   1.519   1.785  11.585  0.1875 -0.2319 -0.2924
 7200TIP3    H143091   1.530   1.824  11.499 -0.7989  1.6521  0.3705
 7200TIP3    H243092   1.565   1.702  11.580  0.2091 -0.1449 -2.6015
 7201TIP3   OH243093   2.665   4.584   5.190  0.1237 -0.3366  0.2222
 7201TIP3    H143094   2.749   4.592   5.235 -0.0532 -2.5488  1.1056
 7201TIP3    H243095   2.603   4.559   5.258 -1.4089  1.6340 -0.3341
 7202TIP3   OH243096   5.448   0.982  11.131 -0.1863 -0.2888  0.0665
 7202TIP3    H143097   5.423   1.041  11.203 -0.1546 -0.6394  0.3652
 7202TIP3    H243098   5.390   1.007  11.059 -1.4735 -1.1232  0.7712
 7203TIP3   OH243099   5.524   0.597  15.726  0.0823 -0.0324  0.4602
 7203TIP3    H143100   5.452   0.592  15.788 -0.2587 -1.3433  0.0028
 7203TIP3    H243101   5.583   0.664  15.761 -0.1635 -0.6500  2.1123
 7204TIP3   OH243102   2.875   0.137   4.174 -0.2483  0.1099 -0.1095
 7204TIP3    H143103   2.949   0.106   4.122 -0.9949 -0.7291 -0.6956
 7204TIP3    H243104   2.844   0.215   4.129 -0.9434 -0.6585 -0.9966
 7205TIP3   OH243105   4.238   3.210  16.016 -0.0079 -0.4896  0.4495
 7205TIP3    H143106   4.236   3.242  16.107 -1.2348 -0.3646  0.3948
 7205TIP3    H243107   4.150   3.229  15.982 -0.2799 -2.4815 -0.0901
 7206TIP3   OH243108   0.600   4.871  17.442  0.6681 -0.1481  0.4515
 7206TIP3    H143109   0.587   4.788  17.397 -1.7315 -1.3500  3.0858
 7206TIP3    H243110   0.635   4.847  17.528  1.2225  1.7161  0.8042
 7207TIP3   OH243111   0.847   3.188   4.890  0.3771 -0.0904 -0.2556
 7207TIP3    H143112   0.909   3.247   4.848  0.0553 -0.4790 -1.3340
 7207TIP3    H243113   0.889   3.161   4.971  0.3773  1.8809  0.4551
 7208TIP3   OH243114   2.180   6.463  16.492 -0.2579  0.5443 -0.3982
 7208TIP3    H143115   2.217   6.497  16.573 -0.1263 -0.1977 -0.1479
 7208TIP3    H243116   2.106   6.409  16.519  0.2391 -0.3178 -0.7119
 7209TIP3   OH243117   2.377   1.627   4.868 -0.1302 -0.0642 -0.4591
 7209TIP3    H143118   2.388   1.637   4.963 -1.1766  2.4271 -0.5226
 7209TIP3    H243119   2.457   1.584   4.839  0.0699 -1.2067  1.5796
 7210TIP3   OH243120   2.084   1.341   4.531 -0.3422  0.0977  0.4944
 7210TIP3    H143121   2.148   1.323   4.462 -0.1844  0.1079  0.6376
 7210TIP3    H243122   2.129   1.400   4.591 -0.9419  1.1965 -0.1033
 7211TIP3   OH243123   1.189   6.675   0.642 -0.1273 -0.0324 -0.6346
 7211TIP3    H143124   1.245   6.600   0.621  0.0928 -0.5179  1.4344
 7211TIP3    H243125   1.242   6.752   0.620  0.9606 -0.4870  0.3135
 7212TIP3   OH243126   5.127   1.397   3.594  0.1321 -0.0726 -0.3098
 7212TIP3    H143127   5.215   1.369   3.620 -0.0928 -0.7159 -0.2288
 7212TIP3    H243128   5.075   1.392   3.675  0.1500  0.8746 -0.2229
 7213TIP3   OH243129   0.894   3.364  16.962  0.1068  0.0297 -0.3341
 7213TIP3    H143130   0.918   3.287  16.910  1.8130  0.9649 -0.9809
 7213TIP3    H243131   0.955   3.363  17.036 -0.6972  0.0888  0.3571
 7214TIP3   OH243132   0.337   5.967  13.086  0.3293  0.0180  0.0929
 7214TIP3    H143133   0.354   6.052  13.045  1.2033 -0.1023  0.1793
 7214TIP3    H243134   0.355   5.903  13.017 -0.1146 -0.1110  0.0934
 7215TIP3   OH243135   1.513   6.402   0.367  0.4858 -0.6036 -0.0963
 7215TIP3    H143136   1.556   6.324   0.331 -1.8423 -1.2915 -1.6364
 7215TIP3    H243137   1.488   6.453   0.290  0.4440  0.8416  0.8367
 7216TIP3   OH243138   2.915   4.585   1.020  0.0637 -0.3902 -0.5969
 7216TIP3    H143139   2.828   4.555   0.996  0.1772 -1.2029 -0.0389
 7216TIP3    H243140   2.922   4.672   0.981 -1.0326 -0.2659 -0.5459
 7217TIP3   OH243141   4.493   2.451   2.044 -0.1718  0.5675 -0.0519
 7217TIP3    H143142   4.534   2.426   1.961 -0.2855  1.1367 -0.2847
 7217TIP3    H243143   4.401   2.468   2.022 -0.6369 -0.9919  0.5183
 7218TIP3   OH243144   1.446   1.593  13.543  0.3006  0.4012 -0.2876
 7218TIP3    H143145   1.498   1.623  13.468 -0.0783  0.4653 -0.5293
 7218TIP3    H243146   1.370   1.550  13.503  0.6171 -0.5018  0.0549
 7219TIP3   OH243147   6.048   5.569   0.069 -0.1887 -0.2980  0.0770
 7219TIP3    H143148   6.125   5.533   0.026 -0.6853 -2.0198  0.5420
 7219TIP3    H243149   6.071   5.570   0.162 -0.0710  0.9358  0.0468
 7220TIP3   OH243150   3.696   4.528  11.007  0.2339 -0.1943  0.1182
 7220TIP3    H143151   3.728   4.535  11.097 -1.2496 -0.2594  0.6842
 7220TIP3    H243152   3.739   4.599  10.961  1.8588 -0.8177  0.6008
 7221TIP3   OH243153   2.081   0.712   3.730  0.0078 -0.3804  0.2644
 7221TIP3    H143154   2.018   0.685   3.664  0.7241 -1.7009  0.0848
 7221TIP3    H243155   2.031   0.766   3.791 -0.7476  0.5655 -1.1413
 7222TIP3   OH243156   2.738   2.022   2.327 -0.0202 -0.1473  0.0270
 7222TIP3    H143157   2.687   2.103   2.336  1.3417  0.5711  1.9578
 7222TIP3    H243158   2.674   1.958   2.296 -2.3623  0.5580  2.8693
 7223TIP3   OH243159   4.650   4.243   2.773 -0.3622 -0.4746 -0.5950
 7223TIP3    H143160   4.725   4.257   2.832  0.1490 -0.3550 -1.2585
 7223TIP3    H243161   4.573   4.254   2.829  0.1122 -2.2894  0.4957
 7224TIP3   OH243162   3.451   6.197   3.337  0.4505 -0.1975  0.2199
 7224TIP3    H143163   3.530   6.237   3.371 -0.6419  1.0436  1.4331
 7224TIP3    H243164   3.439   6.236   3.251  1.1762 -0.4619 -0.0096
 7225TIP3   OH243165   5.362   5.904  14.605  0.5967 -0.1087  0.4191
 7225TIP3    H143166   5.438   5.905  14.663 -0.0740 -1.8410  1.4071
 7225TIP3    H243167   5.333   5.996  14.603  1.7025  0.2958  1.3904
 7226TIP3   OH243168   6.686   2.100   5.034  0.5805 -0.1656 -0.0222
 7226TIP3    H143169   6.760   2.150   5.067 -1.0913  1.8183  0.9097
 7226TIP3    H243170   6.636   2.162   4.981 -1.3232 -0.9444  0.7665
 7227TIP3   OH243171   0.531   0.022  14.462 -0.7517  0.9929 -0.2037
 7227TIP3    H143172   0.470   0.010  14.535  0.9914 -2.9461  0.8749
 7227TIP3    H243173   0.613   0.048  14.504  0.1851 -1.0103 -0.6494
 7228TIP3   OH243174   6.691   4.554   5.820 -0.1273 -0.7095 -0.2941
 7228TIP3    H143175   6.770   4.509   5.849 -0.0953 -0.6398 -0.2712
 7228TIP3    H243176   6.694   4.639   5.866  0.9870  0.2660 -2.0500
 7229TIP3   OH243177   3.433   2.658   3.810 -0.0749  0.1799  0.3507
 7229TIP3    H143178   3.500   2.724   3.791  0.2394 -0.5993 -1.3665
 7229TIP3    H243179   3.444   2.641   3.904  1.0854  1.2029  0.4363
 7230TIP3   OH243180   1.787   2.763   3.514  0.1831  0.5206 -0.3854
 7230TIP3    H143181   1.745   2.778   3.599  0.6510  0.8822 -0.2155
 7230TIP3    H243182   1.733   2.812   3.452 -0.0442  0.4203 -0.2691
 7231TIP3   OH243183   1.074   6.152  14.459 -0.2216 -0.6123  0.1046
 7231TIP3    H143184   1.078   6.128  14.366 -1.5348 -1.6588  0.2900
 7231TIP3    H243185   1.034   6.076  14.501 -2.2679  0.9193  1.0914
 7232TIP3   OH243186   6.168   6.575  14.589  0.7266  0.4355 -0.1509
 7232TIP3    H143187   6.262   6.592  14.588  1.3039 -2.3127  0.2479
 7232TIP3    H243188   6.160   6.483  14.613 -2.1032  0.6693  0.1545
 7233TIP3   OH243189   1.150   4.290   2.238  0.3853 -0.2929 -0.5948
 7233TIP3    H143190   1.210   4.229   2.281  1.4247  1.6890  0.9663
 7233TIP3    H243191   1.089   4.234   2.189  0.8082 -2.6004  1.3129
 7234TIP3   OH243192   2.718   5.433  16.448 -0.2404 -0.1998  0.1311
 7234TIP3    H143193   2.763   5.430  16.532  0.2690  0.1517 -0.1250
 7234TIP3    H243194   2.711   5.341  16.421  1.2161 -0.2123 -0.2861
 7235TIP3   OH243195   3.052   6.071  15.951 -0.1378 -0.4236 -0.0272
 7235TIP3    H143196   3.120   6.017  15.911  0.8324  0.7240  0.0247
 7235TIP3    H243197   3.092   6.105  16.031 -0.4888  0.8509 -0.3626
 7236TIP3   OH243198   4.999   6.573  14.965  0.1614  0.0946 -0.9654
 7236TIP3    H143199   5.055   6.517  15.020  0.8423  1.2313 -0.4480
 7236TIP3    H243200   4.923   6.519  14.944 -0.1277 -0.3971  1.1151
 7237TIP3   OH243201   4.507   3.976   5.285 -0.0606 -0.5140  0.5477
 7237TIP3    H143202   4.557   4.054   5.260  0.4680 -1.0573 -0.1395
 7237TIP3    H243203   4.482   3.992   5.376 -1.0134  0.9970  0.0558
 7238TIP3   OH243204   2.914   5.074   2.397  0.4894 -0.1302  0.0765
 7238TIP3    H143205   2.985   5.085   2.461  0.4417  0.6672 -0.0000
 7238TIP3    H243206   2.848   5.021   2.443 -0.0059  1.3050  1.0793
 7239TIP3   OH243207   2.304   5.146   5.678  0.5809  0.4638 -0.1730
 7239TIP3    H143208   2.245   5.220   5.694 -0.7045 -0.2146 -1.4772
 7239TIP3    H243209   2.279   5.081   5.744  0.7216  0.6399  0.0561
 7240TIP3   OH243210   4.034   1.827  12.427  0.0105 -0.1150 -0.2869
 7240TIP3    H143211   4.125   1.805  12.445  0.6031  1.1172 -1.5873
 7240TIP3    H243212   4.035   1.920  12.407 -1.5050 -0.1273 -0.5239
 7241TIP3   OH243213   3.614   6.090   0.894 -0.8582 -0.5358  0.0176
 7241TIP3    H143214   3.694   6.121   0.937 -0.5438 -1.2029 -0.0712
 7241TIP3    H243215   3.624   6.115   0.802 -0.6899 -0.7305 -0.0181
 7242TIP3   OH243216   4.045   5.414   4.242  0.0381  0.3193  0.1869
 7242TIP3    H143217   4.108   5.454   4.183  0.3451 -1.2373 -0.5750
 7242TIP3    H243218   3.961   5.454   4.218  0.5674  1.7723  0.6413
 7243TIP3   OH243219   6.124   5.771  12.591  0.4855  0.0941 -0.5972
 7243TIP3    H143220   6.106   5.820  12.671 -1.0688 -0.7390 -0.4064
 7243TIP3    H243221   6.098   5.830  12.520 -1.0463 -0.2853 -0.3791
 7244TIP3   OH243222   4.568   2.487  11.648 -0.0399  0.5354 -0.2336
 7244TIP3    H143223   4.573   2.576  11.612  0.4765  0.4920 -0.2777
 7244TIP3    H243224   4.615   2.493  11.731  1.7471 -0.1425 -1.1461
 7245TIP3   OH243225   3.566   4.725  16.784 -0.5629  0.9309  0.5346
 7245TIP3    H143226   3.559   4.741  16.690 -3.0225  0.3453  0.5516
 7245TIP3    H243227   3.501   4.784  16.823  0.2387  0.9813  1.8587
 7246TIP3   OH243228   3.001   5.763   0.379 -0.0429 -0.0245 -0.2139
 7246TIP3    H143229   2.918   5.801   0.408 -1.1289 -1.9699 -0.6310
 7246TIP3    H243230   3.004   5.677   0.420  1.0436 -0.5893 -1.4254
 7247TIP3   OH243231   3.966   0.729  13.956  0.2505 -0.2641 -0.3909
 7247TIP3    H143232   3.876   0.752  13.979  1.1973  1.9286  1.4754
 7247TIP3    H243233   3.990   0.662  14.020  0.4619  0.3589  0.1888
 7248TIP3   OH243234   2.713   4.954  12.039  0.1126  0.5420  0.4755
 7248TIP3    H143235   2.759   4.908  12.109  0.6955 -0.3185 -0.4442
 7248TIP3    H243236   2.661   5.021  12.084  2.4167  1.7155  1.5317
 7249TIP3   OH243237   3.753   2.722   6.317 -0.1496 -0.2647  0.4578
 7249TIP3    H143238   3.763   2.695   6.408  0.2447  0.9763  0.8031
 7249TIP3    H243239   3.832   2.691   6.273 -0.1876 -0.5788  0.6152
 7250TIP3   OH243240   6.595   2.562   0.331  0.4557 -0.2884  0.2762
 7250TIP3    H143241   6.593   2.543   0.237  1.1732 -2.1280  0.5849
 7250TIP3    H243242   6.545   2.492   0.371  1.1393 -0.1870  1.3576
 7251TIP3   OH243243   5.878   2.546   4.729  0.8490 -0.2704 -1.1041
 7251TIP3    H143244   5.961   2.590   4.711  0.8183  0.0862 -0.4008
 7251TIP3    H243245   5.829   2.607   4.784  1.0792 -1.4377  0.4629
 7252TIP3   OH243246   0.629   6.656   0.341 -0.0305  0.3737  0.5668
 7252TIP3    H143247   0.605   6.567   0.314  1.1635 -0.1769  1.2529
 7252TIP3    H243248   0.575   6.673   0.418 -0.6808  0.4671  0.0917
 7253TIP3   OH243249   1.806   4.728   5.302 -0.0583  0.0123  1.2263
 7253TIP3    H143250   1.795   4.738   5.396 -0.0309 -1.0046  1.3413
 7253TIP3    H243251   1.894   4.692   5.292  0.0445  0.3742  0.7895
 7254TIP3   OH243252   2.771   0.615  13.506  0.4279 -0.1040 -0.2656
 7254TIP3    H143253   2.726   0.659  13.434  0.8016  1.6577  0.5245
 7254TIP3    H243254   2.709   0.618  13.578  0.4532 -0.9160 -0.2053
 7255TIP3   OH243255   5.299   1.999   3.019 -0.0575 -0.2346 -0.8792
 7255TIP3    H143256   5.291   2.094   3.018  1.1625 -0.1167 -0.7901
 7255TIP3    H243257   5.348   1.978   2.939  2.4225 -0.4875  0.6317
 7256TIP3   OH243258   6.011   1.789  11.159  0.2269 -0.4472  0.3382
 7256TIP3    H143259   6.015   1.865  11.217 -0.9389  0.5407 -0.8121
 7256TIP3    H243260   5.983   1.824  11.075  3.4288 -1.5781 -1.3694
 7257TIP3   OH243261   3.416   2.321  14.855 -0.1007  0.1065  0.1070
 7257TIP3    H143262   3.464   2.400  14.832 -1.5591  1.2748  0.9506
 7257TIP3    H243263   3.347   2.350  14.914 -0.4607 -1.8510  0.7423
 7258TIP3   OH243264   1.171   1.205  10.835 -0.1850  0.4685  0.0641
 7258TIP3    H143265   1.255   1.197  10.788  0.7847  0.8008  1.6809
 7258TIP3    H243266   1.160   1.299  10.847 -1.3215  0.4972 -0.9915
 7259TIP3   OH243267   4.799   4.096   1.585 -0.5054 -0.3028  0.6963
 7259TIP3    H143268   4.874   4.100   1.644 -1.2862  1.5387  1.6462
 7259TIP3    H243269   4.776   4.187   1.569 -0.1775 -0.6967 -2.7492
 7260TIP3   OH243270   4.054   2.950  10.613  0.3742  0.5001  0.3410
 7260TIP3    H143271   4.146   2.936  10.591  0.4494  0.6374  0.5657
 7260TIP3    H243272   4.008   2.948  10.529  0.5373  0.0920  0.2600
 7261TIP3   OH243273   6.614   1.419  13.820 -1.1207  0.1588  0.1249
 7261TIP3    H143274   6.585   1.496  13.869 -0.8901  0.2145  0.1739
 7261TIP3    H243275   6.533   1.372  13.800 -1.5539  1.6708 -2.0672
 7262TIP3   OH243276   2.275   4.546  10.492 -0.3080  0.3528  0.4933
 7262TIP3    H143277   2.200   4.511  10.444  0.1936  0.0422 -0.0809
 7262TIP3    H243278   2.246   4.549  10.583 -0.7413 -0.5105  0.3918
 7263TIP3   OH243279   5.133   2.458   0.500  0.6904  0.1401 -0.0270
 7263TIP3    H143280   5.205   2.518   0.519  0.3919  1.0631 -1.6602
 7263TIP3    H243281   5.060   2.514   0.477  0.2034 -0.8368 -0.9620
 7264TIP3   OH243282   0.866   3.578  15.569  0.2750  0.1774 -0.3377
 7264TIP3    H143283   0.783   3.549  15.531  0.3050  0.3141 -0.5082
 7264TIP3    H243284   0.898   3.502  15.617  0.2808 -0.0271 -0.6623
 7265TIP3   OH243285   3.472   2.362   0.228  0.2195 -0.1393 -0.1533
 7265TIP3    H143286   3.378   2.351   0.244  0.1515 -0.2787 -0.6351
 7265TIP3    H243287   3.509   2.275   0.245  0.3557  0.0593  0.6296
 7266TIP3   OH243288   5.349   6.466  15.885 -0.5968 -0.8742  0.2805
 7266TIP3    H143289   5.417   6.472  15.818  0.3121  0.5239  1.2639
 7266TIP3    H243290   5.383   6.404  15.949 -1.5329 -2.3289 -0.5739
 7267TIP3   OH243291   4.225   3.140  11.028  0.1001  0.4770 -0.2587
 7267TIP3    H143292   4.160   3.087  10.981  1.4773 -0.1081 -1.6237
 7267TIP3    H243293   4.237   3.217  10.973  1.6052 -0.1277 -0.8458
 7268TIP3   OH243294   4.148   1.993   4.445 -0.5444  0.1691 -0.4185
 7268TIP3    H143295   4.144   1.899   4.461 -0.1761  0.0972 -0.7302
 7268TIP3    H243296   4.205   2.027   4.515  0.4711 -0.0417 -1.1279
 7269TIP3   OH243297   4.725   4.158  16.502  0.8748 -0.0337  0.1996
 7269TIP3    H143298   4.711   4.087  16.564  1.3475  0.1669  0.5441
 7269TIP3    H243299   4.666   4.227  16.532  2.1797  0.6381  1.3740
 7270TIP3   OH243300   0.141   6.490   0.384 -0.4445 -0.9680 -0.3015
 7270TIP3    H143301   0.081   6.431   0.339 -0.9563 -1.1923  0.6445
 7270TIP3    H243302   0.138   6.462   0.475 -1.1841  0.9008  0.3014
 7271TIP3   OH243303   0.942   5.514  13.558  0.1787  0.2577 -0.0895
 7271TIP3    H143304   0.951   5.466  13.476  1.4735 -0.6278  0.5346
 7271TIP3    H243305   0.876   5.581  13.540  0.9359  0.5285 -2.0436
 7272TIP3   OH243306   2.472   5.698   5.287 -0.3367 -0.3281  0.7661
 7272TIP3    H143307   2.454   5.691   5.193 -1.3155 -2.4041  1.0348
 7272TIP3    H243308   2.552   5.648   5.301  0.5990  1.1634  0.8629
 7273TIP3   OH243309   0.717   4.125   2.598  0.0785 -0.2334 -0.3145
 7273TIP3    H143310   0.736   4.034   2.622 -0.7973 -0.2586  0.3092
 7273TIP3    H243311   0.677   4.163   2.677  2.2775  1.2800  0.1715
 7274TIP3   OH243312   6.707   5.105   1.230 -0.5886 -0.2368  0.2529
 7274TIP3    H143313   6.701   5.010   1.237 -2.4581 -0.1614  0.1578
 7274TIP3    H243314   6.631   5.138   1.278 -0.1409  1.2039  0.0358
 7275TIP3   OH243315   5.467   2.810  13.684  0.2952  0.5191 -0.0883
 7275TIP3    H143316   5.424   2.849  13.760  0.9148  1.0004  0.0177
 7275TIP3    H243317   5.524   2.742  13.721 -1.2748 -0.9911 -0.3160
 7276TIP3   OH243318   6.000   3.129   1.643  0.1302  0.3384  0.1614
 7276TIP3    H143319   5.951   3.047   1.647 -0.0120  0.4719  1.9532
 7276TIP3    H243320   5.939   3.191   1.602  1.2343 -1.0200 -4.0457
 7277TIP3   OH243321   1.640   6.003  12.962 -0.2833 -0.3370 -0.2107
 7277TIP3    H143322   1.559   5.955  12.979 -0.8975  1.1598  1.2679
 7277TIP3    H243323   1.692   5.943  12.909 -0.8045 -2.8449  1.9267
 7278TIP3   OH243324   3.493   5.799   2.826  0.0768 -0.2021  0.6312
 7278TIP3    H143325   3.426   5.839   2.882 -0.4722  0.8670 -0.7225
 7278TIP3    H243326   3.549   5.872   2.802 -0.6606 -0.2879 -1.5199
 7279TIP3   OH243327   4.001   2.902   5.027  0.2988  0.5514 -0.4428
 7279TIP3    H143328   3.972   2.962   4.958  2.5162  2.2554 -0.0031
 7279TIP3    H243329   3.979   2.947   5.109  2.0089  0.8286 -0.1042
 7280TIP3   OH243330   2.392   3.385   1.091  0.2174  0.2344 -0.5847
 7280TIP3    H143331   2.448   3.311   1.115 -0.1321  0.2922  0.4471
 7280TIP3    H243332   2.307   3.365   1.131 -0.2416  0.5933 -1.3561
 7281TIP3   OH243333   3.721   6.614  16.935  0.0580  0.3045  0.1178
 7281TIP3    H143334   3.749   6.703  16.914 -0.0038  0.7170  1.6982
 7281TIP3    H243335   3.637   6.605  16.890  1.0083  0.2904 -1.7462
 7282TIP3   OH243336   4.506   2.998   0.685 -0.3615 -0.6547  0.0887
 7282TIP3    H143337   4.569   2.927   0.668 -1.9954 -1.6025 -2.6166
 7282TIP3    H243338   4.558   3.078   0.678  1.4384 -1.4270  2.7758
 7283TIP3   OH243339   6.256   4.906   6.594  0.5132 -0.4258  0.6014
 7283TIP3    H143340   6.227   4.820   6.562  0.8338 -0.3301  0.0441
 7283TIP3    H243341   6.329   4.929   6.537 -0.8582  1.1654 -0.6228
 7284TIP3   OH243342   0.408   1.582   3.955  0.5680  0.4028  0.2254
 7284TIP3    H143343   0.330   1.621   3.994 -0.5027 -1.3722 -0.0118
 7284TIP3    H243344   0.377   1.501   3.914  2.7285 -1.0122  1.1826
 7285TIP3   OH243345   4.421   3.411   1.157 -0.0362  0.4482  0.2011
 7285TIP3    H143346   4.477   3.474   1.112  1.9548 -1.6728 -0.4613
 7285TIP3    H243347   4.346   3.399   1.099  0.8064  0.3333 -0.8886
 7286TIP3   OH243348   3.183   3.124  13.876  0.3287 -0.0233  0.3404
 7286TIP3    H143349   3.225   3.183  13.814  2.5171  0.4997  2.1798
 7286TIP3    H243350   3.112   3.083  13.826  0.4616  2.1042 -1.7688
 7287TIP3   OH243351   0.058   4.006   4.328 -0.2334  0.0035 -0.4591
 7287TIP3    H143352   0.086   4.056   4.251 -1.9176  2.0346  0.1462
 7287TIP3    H243353   0.098   3.920   4.316 -0.0472  0.3679 -3.3810
 7288TIP3   OH243354   2.819   6.727   4.391 -0.2796  0.2634  0.3832
 7288TIP3    H143355   2.901   6.679   4.379  0.5656  1.5237  0.8812
 7288TIP3    H243356   2.809   6.776   4.310  0.9143  2.1756  1.3256
 7289TIP3   OH243357   4.508   3.856   2.155 -0.0610 -0.4758  0.3452
 7289TIP3    H143358   4.475   3.922   2.216  0.8820 -0.0962  0.4672
 7289TIP3    H243359   4.430   3.821   2.113 -0.7278 -0.6397  1.6539
 7290TIP3   OH243360   0.666   5.921   4.584  0.4681 -0.3633  0.0515
 7290TIP3    H143361   0.688   5.830   4.564 -1.8381 -0.4391 -2.9406
 7290TIP3    H243362   0.570   5.923   4.583  0.4203  2.3131 -1.6889
 7291TIP3   OH243363   4.357   2.826  15.819 -0.4850  0.7465 -0.3315
 7291TIP3    H143364   4.442   2.805  15.783 -0.0501  1.5858  0.1739
 7291TIP3    H243365   4.301   2.752  15.795  0.6994 -0.4251  0.4224
 7292TIP3   OH243366   3.771   4.338  14.792  0.0027  0.1767 -0.4095
 7292TIP3    H143367   3.820   4.310  14.870  0.1526 -1.2879 -0.9975
 7292TIP3    H243368   3.762   4.433  14.803 -1.8560 -0.1933  2.4499
 7293TIP3   OH243369   1.075   4.925  16.671  0.4909 -0.0921 -0.2576
 7293TIP3    H143370   1.162   4.944  16.707  0.3157 -0.5365  0.4249
 7293TIP3    H243371   1.044   4.851  16.723 -0.3040  0.0754 -0.4853
 7294TIP3   OH243372   5.617   5.929   3.026 -0.1819 -0.1978  0.0306
 7294TIP3    H143373   5.699   5.903   3.069 -0.8380  2.3810  3.2409
 7294TIP3    H243374   5.645   5.994   2.961  0.4645 -0.6500 -0.1560
 7295TIP3   OH243375   4.972   2.804  14.122  0.0423  0.0676  0.1317
 7295TIP3    H143376   4.880   2.778  14.129 -0.2037  1.1262  1.2762
 7295TIP3    H243377   4.969   2.892  14.086  0.6075  0.1420  0.2590
 7296TIP3   OH243378   3.550   2.361  14.531  0.2562 -0.2365 -0.3227
 7296TIP3    H143379   3.496   2.283  14.546  0.1528 -0.4439 -1.6440
 7296TIP3    H243380   3.555   2.368  14.435  2.1622  0.0606 -0.2241
 7297TIP3   OH243381   3.770   5.750   1.753  0.3367  0.0094 -0.4158
 7297TIP3    H143382   3.857   5.717   1.730 -0.4131 -1.3145 -1.4588
 7297TIP3    H243383   3.737   5.789   1.672  1.0328  3.1159  0.6697
 7298TIP3   OH243384   6.088   4.382  16.534  0.2364  0.1598  0.4533
 7298TIP3    H143385   6.174   4.379  16.574  1.3221 -0.8627 -1.7825
 7298TIP3    H243386   6.065   4.291  16.518 -0.6594  0.4718 -0.1446
 7299TIP3   OH243387   5.455   2.364   4.423  0.1350  0.7813 -0.0634
 7299TIP3    H143388   5.535   2.418   4.426  0.7332 -0.0716 -0.2683
 7299TIP3    H243389   5.475   2.289   4.479 -0.8255  0.9408  0.5045
 7300TIP3   OH243390   0.238   2.931   6.279 -0.1994  0.2606 -0.2184
 7300TIP3    H143391   0.330   2.952   6.264  0.1135  0.1356  1.3959
 7300TIP3    H243392   0.190   2.995   6.227  0.7821  0.4761 -0.8948
 7301TIP3   OH243393   3.319   4.836  16.789  0.0934 -0.2581 -0.1165
 7301TIP3    H143394   3.294   4.905  16.728  1.6139 -0.0402 -0.5236
 7301TIP3    H243395   3.289   4.867  16.875 -0.2865  0.3527 -0.4682
 7302TIP3   OH243396   1.379   4.200   5.426 -0.0726 -0.2277  0.0731
 7302TIP3    H143397   1.347   4.158   5.346 -2.0827 -0.8344  1.1193
 7302TIP3    H243398   1.361   4.137   5.495  0.5305  0.7669  1.1665
 7303TIP3   OH243399   2.638   3.660  12.685  0.3423 -0.3135 -0.3117
 7303TIP3    H143400   2.675   3.666  12.773 -0.2108 -1.6601  0.0388
 7303TIP3    H243401   2.638   3.750  12.652  0.6758  0.1867  1.0169
 7304TIP3   OH243402   2.945   4.191  17.137 -0.3521 -0.0331  0.2005
 7304TIP3    H143403   3.025   4.186  17.189 -0.2868  0.1569  0.1157
 7304TIP3    H243404   2.974   4.210  17.048 -0.5152  0.4367  0.2459
 7305TIP3   OH243405   4.634   5.352   1.501 -0.1857  0.3515 -0.0429
 7305TIP3    H143406   4.567   5.412   1.535  0.9136  0.7832  1.4582
 7305TIP3    H243407   4.605   5.265   1.530  0.2411  0.6131  1.2085
 7306TIP3   OH243408   6.633   4.053  15.407 -0.6082  0.4942  0.0398
 7306TIP3    H143409   6.621   4.068  15.314  1.7062  0.3219 -0.3576
 7306TIP3    H243410   6.550   4.077  15.447 -1.2690  1.6841 -1.9306
 7307TIP3   OH243411   1.586   3.336   5.390 -0.1730 -0.3011 -0.1274
 7307TIP3    H143412   1.516   3.322   5.454 -1.0004  1.2748 -0.6386
 7307TIP3    H243413   1.563   3.279   5.317  0.3467 -1.5092  0.6176
 7308TIP3   OH243414   5.172   1.134  16.614 -0.4645 -0.4322 -0.0181
 7308TIP3    H143415   5.101   1.082  16.579 -0.0024 -0.0397 -1.6328
 7308TIP3    H243416   5.233   1.070  16.652 -0.7394 -0.9246 -0.3994
 7309TIP3   OH243417   6.689   5.503   3.950  0.1035 -0.5988 -0.4023
 7309TIP3    H143418   6.749   5.545   4.011 -0.5306  1.2551 -0.9767
 7309TIP3    H243419   6.613   5.481   4.003  1.1628 -2.8553  0.3044
 7310TIP3   OH243420   0.566   5.421   3.856  0.8274 -0.5849  0.1472
 7310TIP3    H143421   0.595   5.372   3.933  0.2796 -0.1535  0.6365
 7310TIP3    H243422   0.471   5.419   3.861  0.7924 -0.2057 -0.2981
 7311TIP3   OH243423   3.023   3.374  13.642 -0.0333 -0.1066  0.0586
 7311TIP3    H143424   2.991   3.406  13.557 -0.0924 -1.9773 -0.6655
 7311TIP3    H243425   2.950   3.323  13.677  0.1204  0.3678  1.0935
 7312TIP3   OH243426   0.208   3.014   0.457  0.1122  0.2634  0.0561
 7312TIP3    H143427   0.213   3.080   0.526 -2.0455  0.4054  0.1535
 7312TIP3    H243428   0.202   3.065   0.376 -0.2417  0.1605  0.0172
 7313TIP3   OH243429   0.889   1.115  14.492  0.0331  0.0136 -0.1540
 7313TIP3    H143430   0.875   1.020  14.494 -0.8602  0.1216 -0.5950
 7313TIP3    H243431   0.974   1.125  14.450 -0.8213 -0.5457 -2.1440
 7314TIP3   OH243432   2.410   6.286  14.173 -0.0251 -0.0820 -0.4816
 7314TIP3    H143433   2.451   6.317  14.253 -0.9839  0.8584 -0.3182
 7314TIP3    H243434   2.360   6.362  14.141  0.5143 -0.3597 -2.0919
 7315TIP3   OH243435   5.582   2.704   2.701  0.5600  0.6888  0.3997
 7315TIP3    H143436   5.533   2.653   2.765  0.5815  0.9307  0.6086
 7315TIP3    H243437   5.648   2.751   2.752  1.7455 -0.4683  0.0118
 7316TIP3   OH243438   1.477   1.529   3.865  0.1793  0.3257  0.0446
 7316TIP3    H143439   1.448   1.448   3.822 -4.0700  1.6997 -0.1921
 7316TIP3    H243440   1.510   1.501   3.950  1.4826 -1.8079 -1.0755
 7317TIP3   OH243441   2.223   2.445   2.136 -0.1997  0.1655 -0.5254
 7317TIP3    H143442   2.175   2.477   2.212 -0.5830  1.5688 -1.3354
 7317TIP3    H243443   2.309   2.486   2.142  0.2325 -0.7519 -0.1721
 7318TIP3   OH243444   2.734   4.569   0.462 -0.4448 -0.6224 -0.0498
 7318TIP3    H143445   2.824   4.602   0.465 -0.8956  0.8815 -1.5137
 7318TIP3    H243446   2.739   4.492   0.406 -0.3533  0.7080 -1.9877
 7319TIP3   OH243447   6.757   1.829  12.357  0.0557 -0.4358  0.4792
 7319TIP3    H143448   6.748   1.861  12.267  0.5419 -0.8729  0.2722
 7319TIP3    H243449   6.672   1.849  12.398 -0.6146 -1.3569 -0.4241
 7320TIP3   OH243450   4.460   0.938   1.400  0.0898  0.2922 -0.0444
 7320TIP3    H143451   4.367   0.932   1.375 -0.1564  1.3096  0.6044
 7320TIP3    H243452   4.489   1.022   1.365  0.5851  0.3013  0.3791
 7321TIP3   OH243453   5.280   6.750  13.130 -0.1960 -0.3940 -0.1788
 7321TIP3    H143454   5.356   6.731  13.075 -0.9255 -0.7472 -1.0728
 7321TIP3    H243455   5.289   6.843  13.151  1.0124 -0.6567  0.5630
 7322TIP3   OH243456   1.371   3.958  10.801  0.0135  0.2632  0.0701
 7322TIP3    H143457   1.403   4.001  10.721  0.1618 -0.6827 -0.3836
 7322TIP3    H243458   1.327   3.879  10.771 -0.5991  0.2874  0.8772
 7323TIP3   OH243459   1.118   2.804  16.621  0.0126 -0.7811  0.0379
 7323TIP3    H143460   1.148   2.895  16.620  0.6450 -0.9186  1.7853
 7323TIP3    H243461   1.051   2.803  16.689  0.1234 -1.6401  0.1383
 7324TIP3   OH243462   4.014   6.022  15.055  0.0864 -0.7526  0.4724
 7324TIP3    H143463   4.056   6.037  15.140 -0.5267  0.1878  0.6353
 7324TIP3    H243464   3.942   5.962  15.074 -0.1643 -0.3962  0.6561
 7325TIP3   OH243465   1.536   0.916  12.886 -0.1766 -0.3605 -0.3625
 7325TIP3    H143466   1.496   0.922  12.973 -0.8359 -1.9850 -0.5004
 7325TIP3    H243467   1.624   0.952  12.897 -0.0371 -1.0817  1.1384
 7326TIP3   OH243468   3.179   5.970   5.897 -0.0366 -0.3656 -0.1576
 7326TIP3    H143469   3.223   5.922   5.967  0.2209 -1.4181 -1.0279
 7326TIP3    H243470   3.144   5.903   5.840  0.1848  0.4782 -1.3160
 7327TIP3   OH243471   3.995   2.952   2.372 -0.1762 -0.0957  0.2737
 7327TIP3    H143472   4.080   2.940   2.330  0.3812 -0.9137  1.5583
 7327TIP3    H243473   3.995   3.044   2.399  0.0609  0.0534 -0.2215
 7328TIP3   OH243474   6.461   2.217  14.793 -0.5977  0.5875  0.3965
 7328TIP3    H143475   6.553   2.231  14.770 -0.9047 -1.6633 -2.8264
 7328TIP3    H243476   6.422   2.304  14.788  0.8993  1.2470 -0.5737
 7329TIP3   OH243477   1.411   4.677   3.607  0.1078 -0.3539  0.4329
 7329TIP3    H143478   1.360   4.667   3.527  1.1867  0.8269 -0.4327
 7329TIP3    H243479   1.490   4.625   3.592  0.6933  0.5482  0.3890
 7330TIP3   OH243480   4.571   2.750  14.541  0.4850 -0.0653  0.2302
 7330TIP3    H143481   4.477   2.731  14.535 -0.2467  2.9544  0.2256
 7330TIP3    H243482   4.579   2.801  14.622  1.5726  2.0507 -1.1165
 7331TIP3   OH243483   5.517   6.732  12.024  0.1137 -0.3000 -0.4178
 7331TIP3    H143484   5.580   6.793  12.064  1.9907 -0.9937 -2.1548
 7331TIP3    H243485   5.439   6.786  12.009  1.5077  1.5862 -1.3775
 7332TIP3   OH243486   0.996   1.658  13.729  0.0517 -0.1349  0.0662
 7332TIP3    H143487   1.003   1.678  13.635 -0.3376 -1.1211 -0.1873
 7332TIP3    H243488   1.079   1.687  13.766  0.8236 -1.0886 -0.8574
 7333TIP3   OH243489   5.694   5.605  14.306  0.2534  0.4503 -1.0060
 7333TIP3    H143490   5.618   5.552  14.329  0.8548 -0.3886 -0.9122
 7333TIP3    H243491   5.766   5.542  14.296  1.0796  1.2795 -0.4998
 7334TIP3   OH243492   4.307   5.769   5.390  0.4007  0.1956  0.6489
 7334TIP3    H143493   4.232   5.827   5.401 -0.8617 -1.3037  0.3129
 7334TIP3    H243494   4.347   5.765   5.477  0.6683  1.7370  0.6171
 7335TIP3   OH243495   0.859   1.624   1.588 -0.0915  0.0695  0.6131
 7335TIP3    H143496   0.914   1.577   1.650 -1.1792  0.2199  1.7235
 7335TIP3    H243497   0.786   1.565   1.571 -0.7727  0.7916  0.9616
 7336TIP3   OH243498   2.172   6.487  10.597 -0.0464 -0.0195 -0.1207
 7336TIP3    H143499   2.191   6.419  10.532 -2.4773 -0.9869  0.0635
 7336TIP3    H243500   2.258   6.512  10.632  1.0118 -2.3741 -0.8187
 7337TIP3   OH243501   4.259   1.717   3.223 -0.0865  0.4789 -0.7689
 7337TIP3    H143502   4.308   1.709   3.141 -0.6253 -1.2746 -0.9615
 7337TIP3    H243503   4.205   1.638   3.227  0.3386  0.2260  1.5670
 7338TIP3   OH243504   6.341   4.684   3.523 -0.8088 -0.6181 -0.6694
 7338TIP3    H143505   6.422   4.658   3.478 -0.3389  0.1216 -0.2793
 7338TIP3    H243506   6.330   4.776   3.499 -0.7658 -0.3280  0.3946
 7339TIP3   OH243507   6.628   1.238   3.933  0.0505  0.0672  0.1473
 7339TIP3    H143508   6.578   1.215   4.011  0.2232 -1.6085 -0.1991
 7339TIP3    H243509   6.720   1.223   3.959  0.1711  0.3771 -0.1000
 7340TIP3   OH243510   5.580   4.099  15.518 -0.1613  0.6816  0.2782
 7340TIP3    H143511   5.577   4.041  15.442 -0.1243  0.2624  0.5963
 7340TIP3    H243512   5.491   4.097  15.553 -0.5825  2.0657 -0.6343
 7341TIP3   OH243513   0.185   3.549   3.813 -0.4336  0.1614  0.3097
 7341TIP3    H143514   0.209   3.487   3.745 -2.2741 -0.1458 -0.1218
 7341TIP3    H243515   0.268   3.583   3.845  0.5789 -1.7474 -0.1490
 7342TIP3   OH243516   2.370   4.415  13.566 -0.4915  0.0574 -0.2149
 7342TIP3    H143517   2.428   4.490  13.578  1.3841 -1.3229 -0.2729
 7342TIP3    H243518   2.323   4.408  13.649 -0.6035  1.2070 -0.1648
 7343TIP3   OH243519   4.049   6.377   3.602 -0.0917 -0.9696 -0.7310
 7343TIP3    H143520   4.137   6.345   3.621  0.1717 -0.4123 -0.9785
 7343TIP3    H243521   4.014   6.315   3.537  0.6311 -0.4494 -1.6409
 7344TIP3   OH243522   1.819   6.623  13.830  0.6954 -0.0032  0.6064
 7344TIP3    H143523   1.907   6.596  13.803  0.9084  0.4057  0.8873
 7344TIP3    H243524   1.816   6.603  13.924  0.8351  0.8940  0.8062
 7345TIP3   OH243525   0.714   3.845   1.492 -0.3924  0.6766 -0.1697
 7345TIP3    H143526   0.782   3.842   1.425  0.7674  1.1818  0.9439
 7345TIP3    H243527   0.762   3.852   1.574 -1.8090  1.7099  0.6045
 7346TIP3   OH243528   4.768   4.752   6.511 -0.2141  0.4081  0.0803
 7346TIP3    H143529   4.681   4.789   6.494  0.0885  1.1545  0.0905
 7346TIP3    H243530   4.805   4.809   6.578  0.0851 -0.2183  0.4486
 7347TIP3   OH243531   5.098   2.557   5.259 -0.0781 -0.6810  0.0865
 7347TIP3    H143532   5.183   2.519   5.282  0.6011  0.6145 -0.2274
 7347TIP3    H243533   5.077   2.520   5.173  1.1277  0.5288 -0.7444
 7348TIP3   OH243534   5.974   0.440  16.577  0.1093 -0.5355  0.6519
 7348TIP3    H143535   6.025   0.438  16.657 -0.0752 -0.7419  0.7660
 7348TIP3    H243536   6.001   0.521  16.533 -0.0119 -0.2680  1.0643
 7349TIP3   OH243537   1.024   0.344  14.630 -0.3645  0.7846 -0.5406
 7349TIP3    H143538   1.103   0.379  14.589 -0.3850  0.6801 -0.6700
 7349TIP3    H243539   1.034   0.249  14.625 -0.6384  0.7674 -0.8372
 7350TIP3   OH243540   1.123   6.170  14.898  0.1083  0.6126 -0.0897
 7350TIP3    H143541   1.174   6.239  14.940  0.4421 -0.0125  0.5514
 7350TIP3    H243542   1.166   6.155  14.814 -0.6303  1.9548 -0.7295
 7351TIP3   OH243543   2.531   6.137  12.089  0.6465 -0.0039 -0.1057
 7351TIP3    H143544   2.617   6.131  12.130  0.6172 -1.4065 -0.1984
 7351TIP3    H243545   2.486   6.057  12.117 -1.1219  1.3065  1.0374
 7352TIP3   OH243546   3.249   0.214   0.406 -0.5867  0.3997 -0.0395
 7352TIP3    H143547   3.344   0.210   0.404 -0.5724 -0.0324  1.0171
 7352TIP3    H243548   3.223   0.209   0.314  0.4008  0.4414 -0.3320
 7353TIP3   OH243549   2.802   3.824  17.277  0.2200 -0.1545  0.2179
 7353TIP3    H143550   2.851   3.868  17.207 -2.0787  0.4765 -1.1049
 7353TIP3    H243551   2.785   3.893  17.342 -1.9887  0.6556 -1.0936
 7354TIP3   OH243552   2.039   4.515  15.950 -0.1101 -0.4722  0.2432
 7354TIP3    H143553   1.998   4.592  15.911 -0.3916 -0.1051  1.2421
 7354TIP3    H243554   2.037   4.531  16.044  0.3575 -1.4384  0.4353
 7355TIP3   OH243555   4.110   0.256   5.641  0.2678  0.2109  0.2166
 7355TIP3    H143556   4.186   0.228   5.691 -0.3241 -0.2371  0.8865
 7355TIP3    H243557   4.036   0.241   5.699 -0.3465  0.5589 -0.4530
 7356TIP3   OH243558   5.409   3.293  13.572  0.0594 -0.0964 -0.3679
 7356TIP3    H143559   5.447   3.367  13.524  0.1712  1.1163  1.4770
 7356TIP3    H243560   5.483   3.236  13.592 -0.2510 -1.6663 -3.2401
 7357TIP3   OH243561   0.324   4.703   0.243  0.7590  0.3259  0.1857
 7357TIP3    H143562   0.327   4.667   0.332  1.2271 -0.7224 -0.2300
 7357TIP3    H243563   0.381   4.645   0.193 -0.5458  0.0895 -1.0777
 7358TIP3   OH243564   0.490   1.214  16.163 -0.0238  0.0027  0.3924
 7358TIP3    H143565   0.500   1.120  16.174  0.2377 -0.1010 -0.6231
 7358TIP3    H243566   0.455   1.224  16.074  0.9149  0.9061  0.1015
 7359TIP3   OH243567   3.511   1.643  11.382  0.1181  0.1773  0.0348
 7359TIP3    H143568   3.496   1.685  11.297 -1.2179  0.7310  0.5294
 7359TIP3    H243569   3.602   1.615  11.378  0.2077  0.5691 -1.4225
 7360TIP3   OH243570   6.275   2.779  14.382 -0.0515 -0.5762  0.7533
 7360TIP3    H143571   6.345   2.843  14.394  0.7486 -1.2252 -0.3555
 7360TIP3    H243572   6.252   2.784  14.289 -1.4657 -0.4168  1.0761
 7361TIP3   OH243573   1.593   5.986  11.558  0.1398 -0.1853  0.0543
 7361TIP3    H143574   1.603   5.901  11.515 -0.4049 -0.3648  0.2841
 7361TIP3    H243575   1.564   6.045  11.489  0.3515 -0.2204 -0.0668
 7362TIP3   OH243576   3.484   0.952   0.480  0.4949 -0.1153 -1.0635
 7362TIP3    H143577   3.539   0.897   0.536  1.4895 -0.0464 -1.9396
 7362TIP3    H243578   3.403   0.902   0.469  0.9444 -0.8907 -0.9126
 7363TIP3   OH243579   2.968   0.501  12.524  0.5209  0.7390 -0.0098
 7363TIP3    H143580   3.047   0.456  12.555  0.4383  0.2777 -0.4688
 7363TIP3    H243581   2.899   0.470  12.583  0.7743  1.5605  0.7411
 7364TIP3   OH243582   3.308   1.153   0.190 -0.1659  0.1762 -0.3730
 7364TIP3    H143583   3.340   1.063   0.189 -2.1734 -0.5826  0.0154
 7364TIP3    H243584   3.222   1.148   0.230 -0.0324  2.4000  0.3426
 7365TIP3   OH243585   5.898   6.580  13.597  0.3980  0.1469 -0.2932
 7365TIP3    H143586   5.845   6.575  13.517 -0.3775 -0.8994  0.2581
 7365TIP3    H243587   5.977   6.531  13.577 -0.7917 -2.1371  0.2847
 7366TIP3   OH243588   0.022   5.807  17.487  0.1115  0.7109 -0.1704
 7366TIP3    H143589   0.010   5.837  17.577  0.2281  0.9861 -0.2465
 7366TIP3    H243590  -0.049   5.745  17.473 -1.0750  2.1138 -0.5324
 7367TIP3   OH243591   3.013   4.893   4.377  0.3220  0.4789 -0.0489
 7367TIP3    H143592   3.009   4.941   4.295  0.9536 -1.3583 -1.2182
 7367TIP3    H243593   2.938   4.833   4.373  1.2790 -0.7591 -0.0782
 7368TIP3   OH243594   0.829   1.218   3.914  0.6673  0.1619  0.4230
 7368TIP3    H143595   0.747   1.265   3.932  0.7097  0.4216 -0.0394
 7368TIP3    H243596   0.875   1.274   3.852  0.2301 -0.9911 -1.0006
 7369TIP3   OH243597   6.068   5.396  10.914  0.7394  0.2424  0.2121
 7369TIP3    H143598   6.004   5.461  10.887  0.2018 -1.3964 -2.8989
 7369TIP3    H243599   6.016   5.330  10.961  0.2774 -0.4672 -1.2256
 7370TIP3   OH243600   2.385   1.237   2.493  0.2211 -0.2744  0.1828
 7370TIP3    H143601   2.479   1.249   2.481  0.1548 -0.3752 -0.4621
 7370TIP3    H243602   2.371   1.142   2.487  0.0049 -0.2162 -0.3261
 7371TIP3   OH243603   5.627   6.587   2.542  0.6147 -0.4215 -0.4975
 7371TIP3    H143604   5.543   6.612   2.503 -0.2317 -1.3309  0.6786
 7371TIP3    H243605   5.647   6.502   2.504  0.0630 -1.0546  0.5753
 7372TIP3   OH243606   0.576   5.576   1.441 -0.9434  0.6975  0.0948
 7372TIP3    H143607   0.504   5.520   1.414 -1.3754  0.6379  1.3334
 7372TIP3    H243608   0.553   5.606   1.529  0.4591  0.7979  0.4625
 7373TIP3   OH243609   3.071   5.825  11.760  0.3296 -0.0631  0.0940
 7373TIP3    H143610   3.056   5.809  11.666 -0.5638 -1.4324  0.4390
 7373TIP3    H243611   3.056   5.919  11.770 -1.4236 -0.1984 -0.8334
 7374TIP3   OH243612   4.697   1.156   3.024 -0.6760  0.0887  0.0063
 7374TIP3    H143613   4.751   1.171   3.101 -3.5601  1.8571  1.9028
 7374TIP3    H243614   4.719   1.067   2.996  0.3565 -0.7357  3.0355
 7375TIP3   OH243615   3.493   0.807  13.116  0.1388 -0.4153 -0.6656
 7375TIP3    H143616   3.464   0.729  13.163  0.7371 -1.5339 -2.0716
 7375TIP3    H243617   3.471   0.790  13.024 -0.1676  1.2919 -0.9491
 7376TIP3   OH243618   4.070   3.453  13.560 -0.3328 -0.5791  0.4802
 7376TIP3    H143619   4.059   3.360  13.580 -1.6253 -0.9456 -1.5812
 7376TIP3    H243620   3.981   3.488  13.561  0.0694  0.4493  0.4877
 7377TIP3   OH243621   0.438   1.981   3.063 -0.1672 -0.1863 -0.4237
 7377TIP3    H143622   0.411   1.889   3.054 -0.3693 -0.0849 -0.9093
 7377TIP3    H243623   0.465   2.006   2.975 -1.2627  0.5773 -0.5631
 7378TIP3   OH243624   6.742   0.893  17.196  0.0465 -0.5752 -0.2444
 7378TIP3    H143625   6.766   0.878  17.287 -0.3026 -0.0404 -0.0561
 7378TIP3    H243626   6.711   0.809  17.164  0.0863 -0.7422  0.1577
 7379TIP3   OH243627   4.830   2.580   3.423  0.0074  0.4265 -0.2934
 7379TIP3    H143628   4.857   2.665   3.459  0.9289  0.2272 -0.5024
 7379TIP3    H243629   4.735   2.579   3.434 -0.0239  1.5235 -0.3611
 7380TIP3   OH243630   6.545   5.134  11.217 -0.0222 -0.7895  0.1817
 7380TIP3    H143631   6.541   5.159  11.125  3.0403 -1.0481 -0.1483
 7380TIP3    H243632   6.537   5.216  11.265 -0.6796 -0.5353 -0.3559
 7381TIP3   OH243633   3.369   2.577   0.932 -0.0646 -0.5802 -0.1790
 7381TIP3    H143634   3.454   2.534   0.920 -0.1928 -0.6715 -0.7928
 7381TIP3    H243635   3.306   2.516   0.893 -0.2039  0.3357 -1.4306
 7382TIP3   OH243636   6.609   6.009   5.618  0.3268 -0.3904 -0.3953
 7382TIP3    H143637   6.526   6.055   5.613 -0.0106 -1.0035 -0.6012
 7382TIP3    H243638   6.669   6.060   5.563 -0.1177 -0.3677 -0.8602
 7383TIP3   OH243639   4.254   4.518   3.665 -0.5592  0.4823  0.7696
 7383TIP3    H143640   4.171   4.565   3.668 -1.2220 -0.4965 -0.7968
 7383TIP3    H243641   4.229   4.430   3.636  1.2115  0.6952 -1.6449
 7384TIP3   OH243642   5.044   6.600   2.729  0.8558 -0.0126 -0.0759
 7384TIP3    H143643   4.971   6.583   2.670 -0.1771  1.8074  0.5927
 7384TIP3    H243644   5.099   6.662   2.681  0.8846  0.1838  0.2065
 7385TIP3   OH243645   4.522   4.454  15.851  1.0954 -0.4312  0.2237
 7385TIP3    H143646   4.569   4.460  15.934  1.8058 -0.5614 -0.1514
 7385TIP3    H243647   4.479   4.369  15.853  1.7846 -0.7876  0.1256
 7386TIP3   OH243648   1.551   2.907  14.831 -0.1234 -0.7658 -0.5891
 7386TIP3    H143649   1.634   2.888  14.786  0.3116 -0.6841  0.1635
 7386TIP3    H243650   1.558   2.998  14.857 -0.5127 -0.7190 -0.6560
 7387TIP3   OH243651   5.459   0.799  11.470  0.4281  0.0482  0.5302
 7387TIP3    H143652   5.388   0.736  11.461  0.6256 -0.2888  1.2243
 7387TIP3    H243653   5.416   0.881  11.493  0.0887  0.4312 -1.3358
 7388TIP3   OH243654   4.086   0.489  14.620  0.0333  0.2812  0.5788
 7388TIP3    H143655   4.174   0.455  14.608 -0.9209 -1.7397 -1.4326
 7388TIP3    H243656   4.088   0.533  14.705  3.6109  2.6168 -0.4961
 7389TIP3   OH243657   3.010   3.643  12.232 -0.0657  0.2328 -0.1844
 7389TIP3    H143658   2.965   3.686  12.160 -2.5207  0.1703  1.2126
 7389TIP3    H243659   3.075   3.586  12.190 -0.1373  1.5607 -2.2201
 7390TIP3   OH243660   1.917   4.888  11.409  0.6370 -0.6271  0.1513
 7390TIP3    H143661   1.929   4.931  11.494 -0.8644  2.5223 -1.0671
 7390TIP3    H243662   1.844   4.827  11.423 -0.8823  1.2436  0.7457
 7391TIP3   OH243663   6.072   1.506  11.206 -0.1920  0.0368 -0.1455
 7391TIP3    H143664   6.040   1.596  11.201  0.6547  0.2801 -2.9453
 7391TIP3    H243665   6.012   1.456  11.150  0.1432 -0.8956  0.2982
 7392TIP3   OH243666   0.036   6.585   6.513 -0.7791 -0.2614 -0.2416
 7392TIP3    H143667  -0.012   6.524   6.458 -0.4435 -1.3671  0.6607
 7392TIP3    H243668   0.111   6.535   6.546 -0.6261  0.5470  0.7049
 7393TIP3   OH243669   6.440   0.719   2.811  0.1095  0.2938  0.3672
 7393TIP3    H143670   6.475   0.752   2.729  0.2060  1.3267  0.8122
 7393TIP3    H243671   6.346   0.736   2.807 -0.0758 -0.7122 -0.0011
 7394TIP3   OH243672   4.198   0.788   5.752 -0.3541 -0.1182  0.3912
 7394TIP3    H143673   4.239   0.868   5.786 -0.2738 -0.3874  0.9411
 7394TIP3    H243674   4.219   0.721   5.817 -3.1003  0.0815  1.6208
 7395TIP3   OH243675   5.919   3.005  11.980  0.3495  0.0616  0.1942
 7395TIP3    H143676   5.889   2.983  12.068 -1.7272  0.7682 -0.2772
 7395TIP3    H243677   5.857   3.072  11.950  2.2540  1.3586 -1.0342
 7396TIP3   OH243678   3.518   3.074  14.852  0.1066 -0.7632 -1.1602
 7396TIP3    H143679   3.529   2.991  14.899  0.3717  0.2879  0.7351
 7396TIP3    H243680   3.581   3.133  14.893  0.2455  0.2786 -2.7804
 7397TIP3   OH243681   1.918   0.217  13.541 -0.4896 -0.1770 -0.0800
 7397TIP3    H143682   1.953   0.166  13.615  1.7143 -0.0366 -0.9492
 7397TIP3    H243683   1.872   0.290  13.582  0.0538 -0.4954  1.1603
 7398TIP3   OH243684   5.174   3.365   0.219 -0.4916  0.0480 -0.4876
 7398TIP3    H143685   5.102   3.331   0.272  0.2010 -1.6257 -0.5620
 7398TIP3    H243686   5.143   3.449   0.186 -1.3910  0.5893  1.6090
 7399TIP3   OH243687   6.614   5.429   5.104 -0.0047  0.3540 -0.1557
 7399TIP3    H143688   6.622   5.522   5.124 -1.0657  0.7731 -1.5505
 7399TIP3    H243689   6.638   5.422   5.012 -1.6299 -0.4625 -0.5504
 7400TIP3   OH243690   6.578   1.079   1.219  0.4109  0.4246 -0.4126
 7400TIP3    H143691   6.498   1.039   1.254  1.5196 -0.9485  0.6568
 7400TIP3    H243692   6.648   1.018   1.242  1.8197  1.7080 -1.1071
 7401TIP3   OH243693   3.383   1.056  12.366 -0.0675  0.1574  0.3968
 7401TIP3    H143694   3.348   1.145  12.374 -0.3109  0.3770 -2.1693
 7401TIP3    H243695   3.332   1.017  12.294  2.3299 -0.8293 -0.8922
 7402TIP3   OH243696   3.980   1.554  12.133 -0.4481 -0.3183 -0.0601
 7402TIP3    H143697   4.028   1.597  12.062 -2.0128  2.1370  0.2363
 7402TIP3    H243698   4.044   1.497  12.175  1.2396  0.2674 -1.7183
 7403TIP3   OH243699   1.227   6.508   0.006  0.9234  0.5294  0.1993
 7403TIP3    H143700   1.199   6.529   0.095  1.8009  0.8961  0.3979
 7403TIP3    H243701   1.147   6.512  -0.046  0.1353 -1.1517  1.2105
 7404TIP3   OH243702   1.943   1.756   4.424  0.4409  0.6758 -0.8876
 7404TIP3    H143703   1.862   1.711   4.445 -0.9153  2.1556 -2.5480
 7404TIP3    H243704   2.011   1.690   4.432 -0.4749 -0.0394  3.0487
 7405TIP3   OH243705   3.895   6.450   1.801 -1.2132  0.6649  0.3514
 7405TIP3    H143706   3.831   6.463   1.871 -1.5607  0.6064  0.0481
 7405TIP3    H243707   3.850   6.480   1.722 -0.3894  1.9226  0.3284
 7406TIP3   OH243708   4.832   1.418   1.407 -0.1468 -0.0173  0.5223
 7406TIP3    H143709   4.882   1.339   1.427  2.0356  0.8348 -1.1707
 7406TIP3    H243710   4.806   1.453   1.492  1.1399 -1.1421  1.4163
 7407TIP3   OH243711   2.671   2.712  15.740  0.0718 -0.5117 -0.2450
 7407TIP3    H143712   2.718   2.745  15.664 -1.3999 -0.1602 -1.0332
 7407TIP3    H243713   2.664   2.787  15.799 -0.0532 -0.4008 -0.4020
 7408TIP3   OH243714   3.257   4.960  12.668 -0.9512 -0.1448  0.8779
 7408TIP3    H143715   3.204   4.903  12.724  0.0536  0.4867  2.5577
 7408TIP3    H243716   3.347   4.935  12.687 -0.5619  0.7299  0.2314
 7409TIP3   OH243717   4.791   5.033  14.157 -0.3299 -0.1014  0.8983
 7409TIP3    H143718   4.865   4.982  14.188 -1.3322 -1.6057  0.9408
 7409TIP3    H243719   4.801   5.037  14.062 -0.8532 -1.4332  0.7701
 7410TIP3   OH243720   6.160   0.006  15.124  0.2596 -0.1306  0.4492
 7410TIP3    H143721   6.076   0.007  15.078  0.0833 -1.0241  0.7286
 7410TIP3    H243722   6.137  -0.005  15.216  0.5629  2.5575  0.9113
 7411TIP3   OH243723   4.730   0.724  12.463 -0.0508 -0.4701 -0.2538
 7411TIP3    H143724   4.638   0.703  12.483 -0.2064 -0.5350 -1.0034
 7411TIP3    H243725   4.774   0.639  12.464 -0.0039 -0.4407  0.0928
 7412TIP3   OH243726   5.389   3.008  13.870 -0.0539  0.3681 -0.1954
 7412TIP3    H143727   5.421   3.048  13.952  0.1333 -0.5346  0.1809
 7412TIP3    H243728   5.349   3.081  13.823  2.3676  1.5216 -0.6064
 7413TIP3   OH243729   4.905   3.751  11.672 -0.2761 -0.1279  0.5816
 7413TIP3    H143730   4.858   3.668  11.667 -1.0963  0.3750 -2.9315
 7413TIP3    H243731   4.841   3.813  11.707 -0.5783 -0.4357  0.5757
 7414TIP3   OH243732   5.304   5.675   1.551  0.5232 -0.2627  0.3929
 7414TIP3    H143733   5.297   5.672   1.647 -0.2635  0.5659  0.3787
 7414TIP3    H243734   5.368   5.744   1.535 -0.4435  0.6329  0.3079
 7415TIP3   OH243735   2.914   4.888   1.954  0.4255  0.1659  0.0432
 7415TIP3    H143736   2.984   4.915   2.014  0.1794 -1.7876  1.3163
 7415TIP3    H243737   2.957   4.880   1.869  1.6541 -0.4534  0.6881
 7416TIP3   OH243738   3.807   2.089  13.072 -0.6373 -0.1235 -0.1058
 7416TIP3    H143739   3.859   2.164  13.100 -2.2989  0.5974  1.2369
 7416TIP3    H243740   3.786   2.107  12.980  0.1703  0.3208 -0.2103
 7417TIP3   OH243741   4.076   4.355  13.065 -0.0475 -0.6167 -0.2875
 7417TIP3    H143742   4.027   4.437  13.064 -1.3854 -1.3214 -3.1053
 7417TIP3    H243743   4.157   4.375  13.112 -1.3193  1.6464  1.1096
 7418TIP3   OH243744   1.587   3.505  12.089  0.4719 -0.2650  0.0050
 7418TIP3    H143745   1.675   3.542  12.102  0.2816  0.0778  0.3059
 7418TIP3    H243746   1.563   3.468  12.174  1.5732 -3.1253 -0.7790
 7419TIP3   OH243747   0.397   2.080  15.231  0.0229  0.2045  0.2088
 7419TIP3    H143748   0.349   2.004  15.262  0.0743  0.7471  1.6931
 7419TIP3    H243749   0.489   2.053  15.234  0.0727  0.4624  1.1670
 7420TIP3   OH243750   5.631   5.184  15.833 -0.2177 -0.2323 -0.7293
 7420TIP3    H143751   5.605   5.208  15.743  2.1299 -0.1505 -1.4461
 7420TIP3    H243752   5.632   5.089  15.832 -2.1456 -0.3066 -0.1334
 7421TIP3   OH243753   4.319   5.507  13.138  0.2896 -0.9672  0.3125
 7421TIP3    H143754   4.359   5.462  13.213 -0.4859 -0.6635  0.9155
 7421TIP3    H243755   4.263   5.574  13.177 -1.3392 -1.8186 -0.4868
 7422TIP3   OH243756   5.331   2.640  14.691 -0.3323  0.4609  0.7141
 7422TIP3    H143757   5.366   2.560  14.730  2.8935  1.7515  0.7900
 7422TIP3    H243758   5.334   2.624  14.597  2.0233  1.0058  0.6293
 7423TIP3   OH243759   5.073   5.612   5.101  0.2610 -0.0519 -0.1108
 7423TIP3    H143760   5.004   5.584   5.041 -1.0846 -0.4643  1.5372
 7423TIP3    H243761   5.145   5.552   5.085 -1.5541 -2.8719  1.4111
 7424TIP3   OH243762   5.843   5.621  17.287  0.7617  0.3601 -0.2130
 7424TIP3    H143763   5.828   5.617  17.382  1.6296  0.5174 -0.0577
 7424TIP3    H243764   5.919   5.679  17.278  1.7866 -1.0364 -0.8731
 7425TIP3   OH243765   2.267   0.071   3.544  0.0376 -0.4825 -0.0779
 7425TIP3    H143766   2.212   0.013   3.596 -0.0527 -1.2998 -1.0695
 7425TIP3    H243767   2.356   0.049   3.569  0.0094 -1.1489 -0.5326
 7426TIP3   OH243768   3.210   4.707  15.521  0.0199  0.4095  0.6547
 7426TIP3    H143769   3.195   4.712  15.427 -0.3909  1.0441  0.7491
 7426TIP3    H243770   3.177   4.621  15.546 -0.4724  0.4931  0.3177
 7427TIP3   OH243771   2.423   2.376   4.341 -0.1811  0.7222  0.2188
 7427TIP3    H143772   2.403   2.290   4.306 -1.5178  0.9639  0.3622
 7427TIP3    H243773   2.485   2.358   4.412 -0.0114 -0.0600 -0.1123
 7428TIP3   OH243774   2.593   4.746   1.838  0.0126 -0.1155  0.6292
 7428TIP3    H143775   2.543   4.826   1.825 -0.3337 -0.5689 -0.9789
 7428TIP3    H243776   2.537   4.691   1.893 -1.3245 -0.6355 -1.1848
 7429TIP3   OH243777   0.332   4.485  10.879  0.5110  0.3691  0.1258
 7429TIP3    H143778   0.325   4.406  10.933 -0.8341  1.6604  1.9771
 7429TIP3    H243779   0.426   4.503  10.876  0.6912 -0.2991  1.1960
 7430TIP3   OH243780   1.363   4.203  15.925  0.1232 -0.2094 -1.4044
 7430TIP3    H143781   1.445   4.220  15.972  0.5400 -1.7001 -1.5216
 7430TIP3    H243782   1.380   4.121  15.879 -1.2431 -0.2142 -1.9228
 7431TIP3   OH243783   5.412   1.061  13.904  0.2664 -0.0473 -0.3958
 7431TIP3    H143784   5.428   1.013  13.823 -0.9274  0.8286 -1.1941
 7431TIP3    H243785   5.401   0.993  13.971  1.8318 -0.7633 -0.8247
 7432TIP3   OH243786   2.738   0.665  11.111  0.3229 -0.0468 -0.1452
 7432TIP3    H143787   2.664   0.699  11.061  0.6440  0.6484 -0.1548
 7432TIP3    H243788   2.699   0.602  11.171 -0.4507  1.1730  0.6781
 7433TIP3   OH243789   3.980   2.724   6.170 -0.3424  0.7296  0.1304
 7433TIP3    H143790   4.047   2.760   6.228 -0.1090  0.9108 -0.2511
 7433TIP3    H243791   4.017   2.732   6.083 -0.9498  1.0325 -0.1036
 7434TIP3   OH243792   4.087   6.069  16.717 -0.1832 -0.2422 -0.2955
 7434TIP3    H143793   4.150   6.007  16.754 -1.7051 -2.2266 -0.8325
 7434TIP3    H243794   4.121   6.155  16.741  2.4855 -1.2179 -0.2312
 7435TIP3   OH243795   4.823   6.461  14.734 -0.1458 -0.0519 -0.1996
 7435TIP3    H143796   4.784   6.445  14.648 -0.4728  1.3816 -0.3497
 7435TIP3    H243797   4.840   6.555  14.735 -0.6408  0.0535  1.5087
 7436TIP3   OH243798   0.160   1.337   4.253 -0.3849 -0.1101 -0.3768
 7436TIP3    H143799   0.191   1.425   4.231 -0.1463 -0.1156 -0.0753
 7436TIP3    H243800   0.208   1.314   4.333 -1.7241  0.2086  0.5658
 7437TIP3   OH243801   4.865   5.915   5.578  0.1807 -0.0634 -0.3817
 7437TIP3    H143802   4.795   5.979   5.587  1.1450  0.9896 -0.2319
 7437TIP3    H243803   4.925   5.953   5.514  1.9782  0.3135  1.4400
 7438TIP3   OH243804   0.812   5.267   6.726  1.1716  0.2736 -0.3583
 7438TIP3    H143805   0.831   5.175   6.745 -2.2560 -0.5202 -0.2307
 7438TIP3    H243806   0.831   5.277   6.633 -0.6872 -1.2919 -0.9645
 7439TIP3   OH243807   3.032   2.185  13.647 -0.1711  0.2551  0.7984
 7439TIP3    H143808   3.098   2.240  13.691  1.8028 -0.0961 -1.5131
 7439TIP3    H243809   2.966   2.247  13.616 -0.6990  0.6810  2.6808
 7440TIP3   OH243810   6.261   2.131  16.429 -0.4806  0.0007 -0.1322
 7440TIP3    H143811   6.204   2.062  16.396  0.3984 -0.1532 -1.4176
 7440TIP3    H243812   6.229   2.150  16.517 -1.5800 -1.0884 -0.2831
 7441TIP3   OH243813   0.456   5.259   5.415  0.4618 -0.5363  0.5610
 7441TIP3    H143814   0.438   5.169   5.442 -3.8319 -0.0864 -0.1530
 7441TIP3    H243815   0.430   5.312   5.489  0.4245  0.2146  0.0185
 7442TIP3   OH243816   4.190   5.676  13.281 -0.4380 -0.1758 -0.1970
 7442TIP3    H143817   4.232   5.760  13.303 -2.0636  0.5184  0.4097
 7442TIP3    H243818   4.121   5.667  13.346 -0.0082 -2.2387  0.0241
 7443TIP3   OH243819   5.100   5.887   0.206 -0.2058 -0.5431 -0.5952
 7443TIP3    H143820   5.193   5.890   0.230 -0.2907  1.3019 -0.3766
 7443TIP3    H243821   5.079   5.976   0.181 -1.5813 -1.2371 -2.0570
 7444TIP3   OH243822   1.327   1.693  13.091 -0.2897  0.4258  0.1498
 7444TIP3    H143823   1.379   1.637  13.034 -0.3519  0.1629  0.3449
 7444TIP3    H243824   1.391   1.749  13.136  0.0084 -0.9900  1.5935
 7445TIP3   OH243825   4.428   1.537   0.168  0.2455 -0.0202 -0.4615
 7445TIP3    H143826   4.403   1.608   0.108 -1.3149  0.0906  0.2816
 7445TIP3    H243827   4.422   1.577   0.255 -1.4820 -1.2526  0.0322
 7446TIP3   OH243828   0.621   2.526  11.388 -0.2555  0.3612  0.0948
 7446TIP3    H143829   0.663   2.523  11.302  1.1286  0.2721  0.7367
 7446TIP3    H243830   0.654   2.607  11.428 -1.4780  0.7958  0.2719
 7447TIP3   OH243831   0.916   1.513   4.589 -0.3380 -0.0645 -0.3197
 7447TIP3    H143832   0.977   1.570   4.542 -0.8389  0.1850 -0.6750
 7447TIP3    H243833   0.831   1.529   4.547 -0.6542 -0.3800  0.1916
 7448TIP3   OH243834   2.256   5.540  16.176 -0.7224  0.0700 -0.4691
 7448TIP3    H143835   2.259   5.579  16.088 -2.1511 -0.2490 -0.6777
 7448TIP3    H243836   2.290   5.452  16.164  0.6707  0.5650 -0.3628
 7449TIP3   OH243837   3.865   6.525   4.220  0.5379  0.1744 -0.0609
 7449TIP3    H143838   3.799   6.542   4.153  0.3618 -0.4166 -0.0404
 7449TIP3    H243839   3.832   6.450   4.268 -0.0153  1.4207  1.6084
 7450TIP3   OH243840   4.024   2.036   5.441 -0.0396  0.6401 -0.1679
 7450TIP3    H143841   3.981   1.968   5.494 -0.7201  0.8126 -0.4858
 7450TIP3    H243842   3.952   2.083   5.401  0.4680  0.1526 -1.7069
 7451TIP3   OH243843   0.760   6.432  14.790 -0.6615 -0.2114 -0.2811
 7451TIP3    H143844   0.763   6.528  14.788 -0.8377 -0.1418  1.3641
 7451TIP3    H243845   0.799   6.408  14.874  0.6894 -1.6798 -1.2550
 7452TIP3   OH243846   0.860   1.338   1.569  0.2791  0.0693 -0.1998
 7452TIP3    H143847   0.935   1.383   1.530 -0.2954  1.3606  0.1485
 7452TIP3    H243848   0.859   1.252   1.526  1.0995  0.5634 -1.2588
 7453TIP3   OH243849   3.036   1.395  16.483  0.4902  0.0859  0.3537
 7453TIP3    H143850   3.097   1.384  16.410 -1.4173 -0.8526 -1.1942
 7453TIP3    H243851   2.982   1.469  16.458 -0.5386 -0.5912  0.5148
 7454TIP3   OH243852   0.068   2.927  15.086 -0.2283 -0.2297 -0.0572
 7454TIP3    H143853   0.063   2.847  15.034  0.5398 -0.0948 -0.3537
 7454TIP3    H243854  -0.010   2.925  15.140 -0.0069 -1.4044  0.2568
 7455TIP3   OH243855   2.349   6.764  15.066  0.4864 -0.3324  0.1854
 7455TIP3    H143856   2.325   6.699  15.132 -0.6573  0.0764  0.2093
 7455TIP3    H243857   2.444   6.758  15.058  0.5178 -1.1459  1.0730
 7456TIP3   OH243858   3.830   3.401  13.812  0.7429  0.2696 -0.2165
 7456TIP3    H143859   3.887   3.330  13.784  1.2368  1.0203 -1.1409
 7456TIP3    H243860   3.791   3.369  13.894  0.5339 -1.2820 -0.8884
 7457TIP3   OH243861   1.966   4.806  16.808  0.3752  0.0742 -0.0059
 7457TIP3    H143862   1.919   4.731  16.844  2.8380 -1.6160 -0.0440
 7457TIP3    H243863   2.036   4.823  16.871  0.4061  1.7808 -0.4588
 7458TIP3   OH243864   5.515   4.717   0.493 -0.0054 -0.4214 -0.1914
 7458TIP3    H143865   5.595   4.723   0.545 -0.3797  0.5284  0.2997
 7458TIP3    H243866   5.531   4.771   0.416 -0.2041 -0.1451 -0.0420
 7459TIP3   OH243867   3.804   4.355   2.097  0.4072 -0.4983 -0.5860
 7459TIP3    H143868   3.894   4.357   2.065  1.4597 -3.6698  1.7869
 7459TIP3    H243869   3.810   4.378   2.189 -1.2765 -0.4802 -0.4450
 7460TIP3   OH243870   6.570   5.372  14.614 -0.8009  0.0451  0.0517
 7460TIP3    H143871   6.532   5.292  14.651 -1.3616  1.0862  1.8579
 7460TIP3    H243872   6.659   5.375  14.649 -1.4021  1.1422  1.5539
 7461TIP3   OH243873   4.936   6.612   4.268 -0.2713 -0.2425  0.4753
 7461TIP3    H143874   5.004   6.618   4.335 -1.0480 -1.3391  1.3956
 7461TIP3    H243875   4.870   6.676   4.295  0.1327  0.4414 -0.1267
 7462TIP3   OH243876   5.005   5.280  16.363  0.1649 -0.2663 -0.4660
 7462TIP3    H143877   4.996   5.318  16.276 -0.4483  0.4663 -0.0956
 7462TIP3    H243878   4.915   5.269  16.394  0.3821  0.8447  0.6357
 7463TIP3   OH243879   3.484   6.445  17.366  0.2866  0.4130 -0.6060
 7463TIP3    H143880   3.550   6.478  17.305  0.1573  2.5513  0.3281
 7463TIP3    H243881   3.452   6.522  17.412 -1.7652 -0.7556  0.0917
 7464TIP3   OH243882   6.014   6.029  12.486 -0.1277  0.7086 -0.6054
 7464TIP3    H143883   5.981   6.021  12.396 -1.5448  1.2767 -0.1704
 7464TIP3    H243884   6.094   6.081  12.477  0.8429 -0.9089 -1.7290
 7465TIP3   OH243885   1.638   1.902  16.795  0.3420 -0.6093 -0.4825
 7465TIP3    H143886   1.660   1.826  16.742  1.8115  0.4156 -1.3920
 7465TIP3    H243887   1.666   1.977  16.743  0.0085  0.5135  0.9009
 7466TIP3   OH243888   3.962   5.513  13.980 -0.4180 -0.6419  0.3206
 7466TIP3    H143889   3.894   5.578  13.963 -0.9662 -1.4207 -0.5526
 7466TIP3    H243890   3.921   5.451  14.041 -0.3965 -0.9698  0.0016
 7467TIP3   OH243891   1.876   2.184   0.150  0.6678  0.4502 -0.1075
 7467TIP3    H143892   1.895   2.125   0.077 -1.5065  1.5186 -1.6343
 7467TIP3    H243893   1.828   2.130   0.213  0.4974  0.0834 -0.5479
 7468TIP3   OH243894   5.945   5.723   2.146  0.1741  0.2981  0.2465
 7468TIP3    H143895   6.019   5.712   2.086  1.3111  1.2440  1.3968
 7468TIP3    H243896   5.870   5.739   2.089  0.9488 -0.1837 -0.9516
 7469TIP3   OH243897   1.998   6.264   1.219  0.1268  0.2912  0.1719
 7469TIP3    H143898   2.023   6.255   1.311 -0.2930  0.8653  0.3536
 7469TIP3    H243899   1.999   6.175   1.184  0.4126  0.0862  0.7010
 7470TIP3   OH243900   4.544   1.378  11.503 -0.2885  0.7042 -0.3864
 7470TIP3    H143901   4.605   1.424  11.561  0.6422  0.5114 -1.1798
 7470TIP3    H243902   4.527   1.441  11.432 -1.3887  0.9278  0.0519
 7471TIP3   OH243903   5.961   0.219   1.841 -0.8025 -0.3445 -0.1919
 7471TIP3    H143904   5.902   0.213   1.765  0.7426 -1.6925 -1.3823
 7471TIP3    H243905   5.948   0.137   1.888 -0.5448 -0.2494  0.0488
 7472TIP3   OH243906   3.435   1.248  15.289  0.2659  0.4972  0.2566
 7472TIP3    H143907   3.414   1.341  15.290 -1.5437  0.1226  1.2743
 7472TIP3    H243908   3.364   1.207  15.238  1.1588 -0.3233 -0.3841
 7473TIP3   OH243909   4.367   2.293   1.577  0.3841  0.5604  0.4816
 7473TIP3    H143910   4.323   2.369   1.541 -0.8193  0.3434  1.4555
 7473TIP3    H243911   4.365   2.228   1.506  0.0299  0.8931  0.1871
 7474TIP3   OH243912   2.550   6.450   0.028 -0.7594  0.5860 -0.4786
 7474TIP3    H143913   2.573   6.493  -0.054  1.3140 -0.4351 -0.5000
 7474TIP3    H243914   2.604   6.371   0.029 -1.1175  0.3182  1.6409
 7475TIP3   OH243915   2.769   2.422  15.654 -0.4181  0.6741 -0.6900
 7475TIP3    H143916   2.760   2.516  15.663  0.0331  0.6784 -0.2228
 7475TIP3    H243917   2.803   2.393  15.739 -0.8887  0.0493 -0.7065
 7476TIP3   OH243918   2.974   1.940  12.677 -0.4209 -0.8723  0.4093
 7476TIP3    H143919   2.893   1.990  12.670  0.3544  0.6072  1.4528
 7476TIP3    H243920   3.043   2.005  12.663  0.6120 -2.2819 -1.5647
 7477TIP3   OH243921   2.071   1.131  13.204  0.1636  0.1359 -0.2424
 7477TIP3    H143922   2.146   1.187  13.187  0.9651 -0.5971  0.7519
 7477TIP3    H243923   2.019   1.179  13.269  1.1069 -0.4429  0.9876
 7478TIP3   OH243924   3.831   3.079   5.486 -0.0654 -0.2498  0.0665
 7478TIP3    H143925   3.762   3.103   5.424 -0.7726 -4.0766 -0.8905
 7478TIP3    H243926   3.801   3.114   5.570 -0.4369  2.6599 -1.1308
 7479TIP3   OH243927   2.016   6.376   0.719 -0.1420  0.0326 -0.4395
 7479TIP3    H143928   2.019   6.388   0.624  0.7637 -1.2117 -0.6003
 7479TIP3    H243929   2.029   6.463   0.754  1.5028  0.2501 -1.4794
 7480TIP3   OH243930   1.285   0.769  17.308  0.5885 -0.1119  0.3848
 7480TIP3    H143931   1.366   0.771  17.257  0.3405  1.3349  0.0025
 7480TIP3    H243932   1.252   0.859  17.303 -1.5983 -0.8905 -0.3906
 7481TIP3   OH243933   4.584   1.657   4.580  0.1956  0.6453  0.0791
 7481TIP3    H143934   4.621   1.611   4.656  1.8829 -3.8595 -3.0116
 7481TIP3    H243935   4.492   1.631   4.578  0.5470 -0.6186 -0.2669
 7482TIP3   OH243936   5.391   5.956  15.991  0.3628  0.3754  0.3657
 7482TIP3    H143937   5.442   5.949  15.911  0.1163  1.8236  0.0600
 7482TIP3    H243938   5.332   5.880  15.989  2.9880 -1.8565  1.1567
 7483TIP3   OH243939   5.571   3.682   5.202 -0.4724 -0.3705  0.8516
 7483TIP3    H143940   5.627   3.742   5.252 -0.2282 -0.3390  0.5393
 7483TIP3    H243941   5.612   3.676   5.116 -0.3185 -1.2149  0.9683
 7484TIP3   OH243942   3.538   4.150   0.476 -0.1492  0.8356  0.0485
 7484TIP3    H143943   3.462   4.099   0.451 -1.3213  2.3809  0.2967
 7484TIP3    H243944   3.561   4.200   0.397  0.0028  1.0788  0.2417
 7485TIP3   OH243945   0.999   4.078   2.570  0.1543  0.0091 -0.0060
 7485TIP3    H143946   0.906   4.091   2.553  0.1144 -0.1361  0.1040
 7485TIP3    H243947   1.012   3.983   2.559  0.2386 -0.0071  0.2336
 7486TIP3   OH243948   4.309   2.221   0.325 -0.0856 -0.0496 -0.2742
 7486TIP3    H143949   4.233   2.220   0.266  0.3475 -2.0106 -0.8584
 7486TIP3    H243950   4.271   2.230   0.413 -0.9121  0.0707 -0.6344
 7487TIP3   OH243951   2.694   6.496   6.016  0.4533 -0.3887  0.2198
 7487TIP3    H143952   2.613   6.463   6.054  0.1513 -0.2825 -0.3182
 7487TIP3    H243953   2.742   6.534   6.090 -1.0986  1.8283  0.1930
 7488TIP3   OH243954   0.705   3.717   4.253  0.0003 -0.8691  0.2008
 7488TIP3    H143955   0.777   3.654   4.246 -0.3896 -1.3268  0.2101
 7488TIP3    H243956   0.672   3.705   4.342 -0.0830 -0.6588  0.1979
 7489TIP3   OH243957   1.708   3.348  14.648 -0.3615 -0.1023  0.7342
 7489TIP3    H143958   1.701   3.444  14.641 -1.3956  0.0093  2.8244
 7489TIP3    H243959   1.696   3.318  14.558  1.7117  1.7792 -0.2880
 7490TIP3   OH243960   0.118   4.502  16.639  0.8678 -0.5141  0.1367
 7490TIP3    H143961   0.063   4.425  16.627 -1.0458  0.7553  0.1901
 7490TIP3    H243962   0.117   4.546  16.554  2.2976 -0.7302 -0.0197
 7491TIP3   OH243963   5.320   0.753   0.345  0.1477 -0.6984  0.4617
 7491TIP3    H143964   5.367   0.672   0.364  1.9314 -0.0685 -0.9547
 7491TIP3    H243965   5.319   0.758   0.249 -1.2446  0.2279  0.5052
 7492TIP3   OH243966   2.732   2.342   0.439  0.2359 -0.4466 -0.4402
 7492TIP3    H143967   2.725   2.431   0.405 -0.9599  0.2616  1.4440
 7492TIP3    H243968   2.650   2.329   0.488  1.1275 -1.9303  0.7500
 7493TIP3   OH243969   0.910   2.045  16.026  0.0849 -0.7401  0.0780
 7493TIP3    H143970   0.947   1.957  16.025 -1.3101 -1.3535 -0.6963
 7493TIP3    H243971   0.842   2.043  15.959 -0.8087  0.5518  0.8926
 7494TIP3   OH243972   2.278   1.864  12.743 -0.3085 -0.8857  0.4222
 7494TIP3    H143973   2.299   1.945  12.695 -0.3915  0.3220  2.3386
 7494TIP3    H243974   2.355   1.809  12.730 -0.1747 -0.4491 -0.7774
 7495TIP3   OH243975   5.510   4.855  12.578 -0.2247  0.0078 -0.4148
 7495TIP3    H143976   5.479   4.896  12.658  0.3925  0.1546 -0.2394
 7495TIP3    H243977   5.449   4.885  12.510  1.3933  3.0618 -0.7122
 7496TIP3   OH243978   6.657   6.232  12.806 -0.1581 -0.1072  0.3297
 7496TIP3    H143979   6.607   6.162  12.762  0.5618 -0.9108  0.7661
 7496TIP3    H243980   6.744   6.228  12.766  0.6216 -1.0803  2.0295
 7497TIP3   OH243981   4.713   1.024  16.268 -0.0411 -0.0090  0.1635
 7497TIP3    H143982   4.653   0.981  16.328  0.3049  0.9807  1.2576
 7497TIP3    H243983   4.677   1.113  16.258  0.2346  0.0217 -0.6262
 7498TIP3   OH243984   4.705   2.441   5.697  0.1049 -0.1203  0.0036
 7498TIP3    H143985   4.720   2.353   5.661  1.1485 -0.9955  2.3561
 7498TIP3    H243986   4.719   2.500   5.623  2.5507 -1.7606 -0.9683
 7499TIP3   OH243987   3.549   1.422  15.492  0.1033 -0.1596  0.4952
 7499TIP3    H143988   3.536   1.340  15.539  1.4518 -0.5895  0.1678
 7499TIP3    H243989   3.469   1.472  15.509 -0.9877 -1.7292  0.2727
 7500TIP3   OH243990   6.003   3.742   3.822 -0.2646  0.7623  0.0728
 7500TIP3    H143991   6.054   3.732   3.903 -1.0382 -0.6779  0.4079
 7500TIP3    H243992   6.012   3.835   3.800  0.2274  1.1161  1.6336
 7501TIP3   OH243993   1.380   2.810  11.862 -0.3711  0.7015  0.2823
 7501TIP3    H143994   1.370   2.799  11.767 -2.6237 -0.0407  0.5500
 7501TIP3    H243995   1.327   2.887  11.883 -0.6048  0.3477  1.0430
 7502TIP3   OH243996   1.374   1.793   0.005  0.0128 -0.0597  0.0534
 7502TIP3    H143997   1.316   1.807   0.079  1.3981  0.1858  1.1324
 7502TIP3    H243998   1.461   1.781   0.044  0.4311 -2.2512 -1.3967
 7503TIP3   OH243999   6.671   3.252   0.619  0.7913  0.0066  0.1987
 7503TIP3    H144000   6.751   3.208   0.647  0.9936 -0.1280 -0.5632
 7503TIP3    H244001   6.613   3.247   0.695  1.2638 -0.4776  0.5373
 7504TIP3   OH244002   0.013   1.692   2.142  0.2707  0.1733 -0.0096
 7504TIP3    H144003  -0.046   1.618   2.124 -2.0308  1.8159  0.2472
 7504TIP3    H244004   0.096   1.667   2.102 -0.7703 -2.0374 -0.9632
 7505TIP3   OH244005   2.023   5.589   6.046  0.0212  0.3921  0.1796
 7505TIP3    H144006   1.953   5.651   6.068 -0.7130  0.3119 -1.7582
 7505TIP3    H244007   1.986   5.534   5.978  1.9474  0.2839 -0.8374
 7506TIP3   OH244008   2.104   2.850   2.519  0.5073  0.6179 -0.0419
 7506TIP3    H144009   2.040   2.792   2.561  0.8798  1.4806  1.7851
 7506TIP3    H244010   2.189   2.818   2.549  1.0296 -0.5148 -2.4448
 7507TIP3   OH244011   5.937   2.711  13.031  0.1681 -0.3023 -0.1267
 7507TIP3    H144012   5.954   2.718  12.938  1.5369  0.4069  0.1604
 7507TIP3    H244013   5.842   2.703  13.038  0.0230  0.0903 -1.5418
 7508TIP3   OH244014   0.415   4.923   0.547  0.6273 -0.3256  0.1337
 7508TIP3    H144015   0.405   5.016   0.526  1.7464 -0.2400 -0.0543
 7508TIP3    H244016   0.383   4.915   0.636 -2.8972 -0.4288 -0.9796
 7509TIP3   OH244017   1.552   0.639   3.328 -0.2047 -0.0348 -0.1982
 7509TIP3    H144018   1.588   0.587   3.257  1.6535  0.5645  0.2495
 7509TIP3    H244019   1.509   0.576   3.385  0.0848 -0.7863 -0.7934
 7510TIP3   OH244020   5.503   1.312  16.885  0.5937  0.4638  0.4343
 7510TIP3    H144021   5.509   1.403  16.859  0.7473  0.6340  1.0375
 7510TIP3    H244022   5.565   1.304  16.958  0.5530 -0.1083  0.4109
 7511TIP3   OH244023   2.401   1.115   4.207  0.0063  0.3798 -0.3753
 7511TIP3    H144024   2.382   1.196   4.160  0.1422  0.9328  0.5082
 7511TIP3    H244025   2.475   1.137   4.263 -0.2201 -0.2398  0.1752
 7512TIP3   OH244026   1.768   3.266  15.522 -0.2697 -0.0255  0.0010
 7512TIP3    H144027   1.699   3.322  15.486 -0.7611  0.1291  1.1193
 7512TIP3    H244028   1.838   3.326  15.547  0.3443 -0.1950 -1.2508
 7513TIP3   OH244029   3.835   5.807   2.652  0.5654  0.3178 -0.0916
 7513TIP3    H144030   3.866   5.875   2.592 -0.3515 -0.8273 -1.9374
 7513TIP3    H244031   3.913   5.754   2.670  0.7336  0.3570 -0.7004
 7514TIP3   OH244032   4.570   3.259  16.571  0.3641 -0.3302 -0.7219
 7514TIP3    H144033   4.662   3.288  16.579  0.9023 -1.9218 -0.8567
 7514TIP3    H244034   4.572   3.166  16.592 -1.3030 -0.3172 -0.3687
 7515TIP3   OH244035   5.750   2.001   3.271 -0.6090  0.0773 -0.0604
 7515TIP3    H144036   5.740   2.015   3.365  0.5101  0.0771  0.0803
 7515TIP3    H244037   5.786   2.083   3.238  0.9778 -0.6001 -0.1164
 7516TIP3   OH244038   5.007   1.399   1.906  0.0527  0.4496  0.1692
 7516TIP3    H144039   4.957   1.481   1.912  0.1548  0.4699  0.8055
 7516TIP3    H244040   5.072   1.406   1.975  1.2797  0.6447 -0.9660
 7517TIP3   OH244041   1.507   5.539  16.479 -0.0087  0.1933  1.1115
 7517TIP3    H144042   1.443   5.607  16.499  0.4149  1.5186 -1.5797
 7517TIP3    H244043   1.454   5.459  16.470 -0.5254  0.0709  4.1651
 7518TIP3   OH244044   4.989   2.590   5.500 -0.0460  0.0268  0.2254
 7518TIP3    H144045   4.906   2.544   5.491  0.2977 -1.0773  2.1779
 7518TIP3    H244046   5.029   2.584   5.413 -0.9797 -1.4583 -0.1389
 7519TIP3   OH244047   2.729   0.229  12.344 -0.0369  0.4306  0.3027
 7519TIP3    H144048   2.753   0.303  12.288 -0.1257  0.7362  0.6642
 7519TIP3    H244049   2.664   0.265  12.405  0.2663  0.1731  0.7820
 7520TIP3   OH244050   0.541   1.898  13.564 -0.5637  0.1023 -0.0917
 7520TIP3    H144051   0.589   1.816  13.557 -1.7939 -0.7271  0.7652
 7520TIP3    H244052   0.454   1.877  13.530 -1.8090  0.1964  2.7749
 7521TIP3   OH244053   3.817   4.383  17.178 -0.1196  0.5803 -0.1770
 7521TIP3    H144054   3.794   4.464  17.133  1.9502  2.4310  1.8850
 7521TIP3    H244055   3.912   4.386  17.186 -0.1682 -1.1052  1.6903
 7522TIP3   OH244056   5.540   1.695  16.655 -0.2805  0.5914 -0.7395
 7522TIP3    H144057   5.490   1.650  16.723  1.3187 -2.0791 -1.1932
 7522TIP3    H244058   5.501   1.782  16.650 -2.8137 -0.3312  1.0261
 7523TIP3   OH244059   2.404   3.170   3.604  0.1638 -0.3659 -0.3040
 7523TIP3    H144060   2.415   3.083   3.565 -0.1211 -0.7424  0.4415
 7523TIP3    H244061   2.415   3.156   3.698 -0.4115  0.3181 -0.1286
 7524TIP3   OH244062   1.052   4.230   6.265 -0.0777  0.8163 -0.4091
 7524TIP3    H144063   1.111   4.206   6.336 -0.9177  0.7847  0.2944
 7524TIP3    H244064   1.109   4.238   6.189  0.7986  0.5588  0.1971
 7525TIP3   OH244065   4.925   5.940  13.420  0.8289  0.2991  0.1233
 7525TIP3    H144066   5.016   5.927  13.445  0.5128 -1.4262  0.5089
 7525TIP3    H244067   4.877   5.945  13.503  0.6942  2.7187 -0.0185
 7526TIP3   OH244068   5.772   3.937  17.035 -0.0428  0.3931 -0.2900
 7526TIP3    H144069   5.693   3.883  17.035  0.9804 -1.2185  0.9229
 7526TIP3    H244070   5.750   4.010  17.093 -0.2144 -0.7851  1.1921
 7527TIP3   OH244071   3.670   0.145   3.474  0.5317 -0.1313 -0.4028
 7527TIP3    H144072   3.666   0.236   3.501 -0.4228  0.5606 -2.6057
 7527TIP3    H244073   3.713   0.099   3.546  1.8275  2.2032  0.3959
 7528TIP3   OH244074   6.130   4.564  16.320  0.1521  0.7552 -0.2039
 7528TIP3    H144075   6.192   4.547  16.249  1.9286  1.3877  1.1174
 7528TIP3    H244076   6.138   4.489  16.378 -1.2074  0.2939 -0.5830
 7529TIP3   OH244077   0.769   5.242  15.592  0.2804  0.5577  0.5786
 7529TIP3    H144078   0.725   5.298  15.528  0.1692  0.1816  0.3253
 7529TIP3    H244079   0.731   5.156  15.578  0.8528  0.3011  0.5939
 7530TIP3   OH244080   6.632   4.528  11.284  0.2044  0.2875 -0.7779
 7530TIP3    H144081   6.578   4.579  11.224 -0.0625  1.2494  0.2351
 7530TIP3    H244082   6.584   4.530  11.367  1.0156 -0.2003 -0.2828
 7531TIP3   OH244083   1.429   4.755   5.643  0.3331 -0.7795 -0.5110
 7531TIP3    H144084   1.382   4.709   5.574 -1.4878  0.2499 -0.0090
 7531TIP3    H244085   1.444   4.689   5.711 -1.5697 -0.8580 -0.1180
 7532TIP3   OH244086   1.122   1.691  11.663  0.3395  0.8212 -0.2314
 7532TIP3    H144087   1.084   1.664  11.580 -1.5341  2.1735  0.1054
 7532TIP3    H244088   1.046   1.710  11.719  1.5460  0.4380  1.6172
 7533TIP3   OH244089   0.153   3.190  15.678 -0.0766  0.1535 -0.1143
 7533TIP3    H144090   0.069   3.237  15.675 -0.8200 -1.1603 -0.9051
 7533TIP3    H244091   0.203   3.236  15.746 -1.2731  1.2168  0.1080
 7534TIP3   OH244092   3.356   6.540   3.968  0.5701  0.2326 -0.3404
 7534TIP3    H144093   3.354   6.632   3.994 -0.4133  0.4837 -1.2163
 7534TIP3    H244094   3.411   6.538   3.890  1.3164 -0.0755  0.1848
 7535TIP3   OH244095   2.811   3.669   2.010 -0.0598  0.0338  0.0377
 7535TIP3    H144096   2.775   3.690   2.096  1.9159 -0.4276  1.0381
 7535TIP3    H244097   2.816   3.574   2.009  0.1362  0.0469 -0.5119
 7536TIP3   OH244098   2.569   1.244   0.603  0.4652  0.4371 -0.5800
 7536TIP3    H144099   2.543   1.152   0.599  0.2384  0.3995  1.1160
 7536TIP3    H244100   2.602   1.263   0.516  0.1214 -1.1335 -1.0876
 7537TIP3   OH244101   1.327   6.512   3.205  0.2253 -0.4444  0.5481
 7537TIP3    H144102   1.303   6.600   3.234  1.4316  0.6269 -1.4054
 7537TIP3    H244103   1.318   6.457   3.282  0.3700  1.5917  2.0982
 7538TIP3   OH244104   3.498   5.934  13.714 -0.2399  0.4496  0.0848
 7538TIP3    H144105   3.403   5.945  13.708 -0.2778  0.8603  1.3006
 7538TIP3    H244106   3.534   6.008  13.664 -0.5565  1.4284  1.2755
 7539TIP3   OH244107   6.100   2.275  10.861 -0.1218  0.1107 -0.8733
 7539TIP3    H144108   6.086   2.180  10.865 -1.3149  0.3104  0.1460
 7539TIP3    H244109   6.029   2.312  10.913  1.0957  1.5086 -0.1518
 7540TIP3   OH244110   1.243   1.335  12.922 -0.1508 -0.0666  0.2042
 7540TIP3    H144111   1.232   1.378  12.838  0.9349 -1.0111 -0.4550
 7540TIP3    H244112   1.312   1.270  12.907 -0.6226 -0.9359  1.5560
 7541TIP3   OH244113   4.842   1.092  13.571 -0.6143 -0.0146 -0.0674
 7541TIP3    H144114   4.831   1.140  13.489  0.6757 -0.5398 -0.5883
 7541TIP3    H244115   4.832   1.000  13.546  1.8696 -0.3543 -0.1337
 7542TIP3   OH244116   1.019   0.847   3.947  0.1328 -0.7406 -0.4148
 7542TIP3    H144117   1.088   0.814   3.889  0.1295  0.2633 -1.0133
 7542TIP3    H244118   0.942   0.793   3.925  1.0975 -3.1104  1.5155
 7543TIP3   OH244119   6.702   6.637  10.873 -0.0565  0.3211  0.6274
 7543TIP3    H144120   6.722   6.602  10.960  2.2529 -0.4919 -0.1738
 7543TIP3    H244121   6.663   6.563  10.826 -0.1902  0.4078  0.6022
 7544TIP3   OH244122   3.144   4.937  16.990 -0.3155 -0.3582 -0.0142
 7544TIP3    H144123   3.112   4.988  17.064 -0.0620 -0.4353  0.1536
 7544TIP3    H244124   3.138   4.846  17.020 -0.8981 -0.4345 -0.3617
 7545TIP3   OH244125   2.390   3.592  12.412 -0.2131 -0.2218 -0.1527
 7545TIP3    H144126   2.362   3.567  12.324 -0.7861  0.2665 -0.1177
 7545TIP3    H244127   2.308   3.607  12.460  0.0377 -1.8357  0.8780
 7546TIP3   OH244128   5.355   5.325  15.246 -0.0424 -0.0279 -0.7647
 7546TIP3    H144129   5.392   5.254  15.193 -0.3560 -1.5322  0.9298
 7546TIP3    H244130   5.429   5.382  15.266  0.7803 -1.2982 -0.0297
 7547TIP3   OH244131   2.962   3.896  17.070  0.1218 -0.6407  0.1809
 7547TIP3    H144132   2.953   3.988  17.044  0.2296 -0.0568  2.0458
 7547TIP3    H244133   3.056   3.878  17.060  0.1508 -0.4628  0.1246
 7548TIP3   OH244134   5.150   6.308  11.639 -0.2178 -0.3110  0.4054
 7548TIP3    H144135   5.190   6.233  11.594 -1.1630 -0.6917  0.1841
 7548TIP3    H244136   5.075   6.271  11.686 -2.3822  0.8558 -1.8809
 7549TIP3   OH244137   4.462   1.790  16.879 -0.5333 -0.3292 -0.4086
 7549TIP3    H144138   4.385   1.769  16.931 -0.8474  2.6762  0.5242
 7549TIP3    H244139   4.520   1.715  16.891 -1.1391 -0.3944  3.2296
 7550TIP3   OH244140   2.239   4.581   0.161  0.0142 -0.1620 -0.0500
 7550TIP3    H144141   2.223   4.519   0.089  0.6941  0.6597 -0.9493
 7550TIP3    H244142   2.166   4.642   0.157 -0.5393 -0.7716  0.6925
 7551TIP3   OH244143   2.534   3.420  12.003  0.0093 -1.4539  0.5898
 7551TIP3    H144144   2.606   3.407  12.064  0.6941 -1.1571 -0.1416
 7551TIP3    H244145   2.538   3.512  11.979 -0.2029 -1.5783  0.0422
 7552TIP3   OH244146   4.224   1.965   0.851 -0.4543 -0.1639  0.0553
 7552TIP3    H144147   4.228   2.017   0.771  1.1130 -0.3528 -0.0373
 7552TIP3    H244148   4.310   1.978   0.892 -0.5959 -1.4209  0.8214
 7553TIP3   OH244149   2.019   5.725   1.410 -0.1304 -0.0190 -0.4802
 7553TIP3    H144150   2.090   5.701   1.350  2.0875  0.4803  1.7767
 7553TIP3    H244151   2.005   5.818   1.396 -0.6161 -0.1946 -1.1882
 7554TIP3   OH244152   4.403   3.435  13.395  0.0250 -0.3909  0.0412
 7554TIP3    H144153   4.416   3.355  13.446 -0.5332 -0.6913 -0.2814
 7554TIP3    H244154   4.486   3.446  13.347  0.6134 -0.0151  1.1190
 7555TIP3   OH244155   0.694   3.804   3.222 -0.4015 -0.3285 -0.1502
 7555TIP3    H144156   0.636   3.728   3.224 -0.8091 -0.0280 -0.4713
 7555TIP3    H244157   0.725   3.808   3.131  1.6136 -1.5984  0.4294
 7556TIP3   OH244158   1.924   5.226  12.838 -0.0588 -0.3254  0.1505
 7556TIP3    H144159   1.840   5.267  12.816 -0.7134 -1.7916 -0.2388
 7556TIP3    H244160   1.990   5.282  12.797 -0.8011  1.0550  0.7705
 7557TIP3   OH244161   4.304   2.261   5.778 -0.1994 -0.2501  0.2207
 7557TIP3    H144162   4.355   2.191   5.737  0.3735 -1.1698  2.3843
 7557TIP3    H244163   4.359   2.339   5.769  0.0799 -0.5072 -0.3788
 7558TIP3   OH244164   6.489   3.846   4.688 -0.2386 -0.3701  0.3435
 7558TIP3    H144165   6.584   3.859   4.688 -0.2572 -0.2212  0.6424
 7558TIP3    H244166   6.477   3.756   4.658  0.1484 -1.4226  3.0635
 7559TIP3   OH244167   4.650   3.227  13.816  0.2945 -0.4193 -0.1748
 7559TIP3    H144168   4.690   3.225  13.729  1.0087  0.7889  0.1147
 7559TIP3    H244169   4.715   3.269  13.872  0.0300 -1.5867  1.0557
 7560TIP3   OH244170   5.662   1.197   4.352 -0.3661 -0.2636 -0.1669
 7560TIP3    H144171   5.738   1.163   4.400 -0.5114  0.4607  0.5890
 7560TIP3    H244172   5.684   1.288   4.332 -0.7016 -0.2849 -0.6732
 7561TIP3   OH244173   0.071   2.961  13.002 -0.1614 -0.7665 -0.4875
 7561TIP3    H144174   0.114   2.910  12.934 -2.1891 -0.7870 -1.8471
 7561TIP3    H244175  -0.002   3.003  12.957 -2.1261 -1.4967  1.8338
 7562TIP3   OH244176   1.250   0.578  17.487  0.3262  0.1689 -0.0553
 7562TIP3    H144177   1.293   0.621  17.560  0.4845  0.3147 -0.2333
 7562TIP3    H244178   1.255   0.641  17.415 -2.1147  1.1123  0.5002
 7563TIP3   OH244179   0.746   2.029  13.685 -0.5616 -0.3735  0.5504
 7563TIP3    H144180   0.686   1.967  13.643 -1.4078  0.1642  0.9530
 7563TIP3    H244181   0.827   2.021  13.634 -0.8959 -1.2585  0.1298
 7564TIP3   OH244182   3.281   6.643  12.785 -0.1034  0.1918  0.3072
 7564TIP3    H144183   3.331   6.646  12.866  0.6059 -1.7618  0.0031
 7564TIP3    H244184   3.348   6.636  12.716 -0.7251  0.7798 -0.3740
 7565TIP3   OH244185   4.622   5.529   0.266  0.1179  0.0063 -0.1111
 7565TIP3    H144186   4.656   5.460   0.208 -0.2295 -1.8253  1.7571
 7565TIP3    H244187   4.694   5.592   0.271  1.1382 -1.0756 -0.5160
 7566TIP3   OH244188   2.752   1.975  16.408  0.4863 -0.6927 -0.3214
 7566TIP3    H144189   2.661   1.992  16.382  0.6870  0.7833 -0.1469
 7566TIP3    H244190   2.804   2.020  16.342  1.0286  1.1563  1.2831
 7567TIP3   OH244191   2.911   4.715  15.514  0.5905  0.1681  0.1179
 7567TIP3    H144192   2.882   4.634  15.555  0.0608  0.1337 -0.3195
 7567TIP3    H244193   2.995   4.735  15.557  0.1594  0.0208  1.0605
 7568TIP3   OH244194   4.878   6.580  11.437  0.1912  0.5024 -0.9242
 7568TIP3    H144195   4.886   6.485  11.451 -0.0311  0.6457  0.3248
 7568TIP3    H244196   4.788   6.592  11.407  0.3539  0.2865 -1.5265
 7569TIP3   OH244197   4.347   5.378  11.284 -0.5648  0.5940  0.1324
 7569TIP3    H144198   4.409   5.393  11.356 -0.6181 -0.1641  0.3403
 7569TIP3    H244199   4.368   5.446  11.220 -0.7868  1.5558  1.0375
 7570TIP3   OH244200   3.566   6.250   0.661 -0.2299 -0.5797 -0.1142
 7570TIP3    H144201   3.624   6.320   0.630  0.0922 -1.0567 -0.5845
 7570TIP3    H244202   3.536   6.206   0.582 -0.8262 -0.6699  0.1550
 7571TIP3   OH244203   4.096   3.860   0.705 -0.1128 -0.0749  0.2417
 7571TIP3    H144204   4.190   3.848   0.695 -0.1858 -0.5305  0.1086
 7571TIP3    H244205   4.078   3.837   0.796 -0.0971  0.0231  0.2704
 7572TIP3   OH244206   3.981   5.262  17.520  0.1794 -0.7101 -0.1632
 7572TIP3    H144207   4.058   5.205  17.518 -0.4972 -1.6259 -1.8646
 7572TIP3    H244208   4.007   5.340  17.471  0.1522 -0.8484 -0.3971
 7573TIP3   OH244209   2.505   2.819   5.226  0.2015  1.0896  0.1195
 7573TIP3    H144210   2.584   2.793   5.273  0.2590  1.0047 -0.0244
 7573TIP3    H244211   2.440   2.833   5.295  0.3222  1.0940  0.2329
 7574TIP3   OH244212   0.277   1.177  12.694  0.2240  0.2009 -0.2773
 7574TIP3    H144213   0.270   1.229  12.775  0.7199 -0.1458 -0.0099
 7574TIP3    H244214   0.197   1.124  12.694 -0.3047  0.9795 -0.5677
 7575TIP3   OH244215   3.480   1.215  16.271 -0.1660  0.9000 -0.0289
 7575TIP3    H144216   3.501   1.301  16.233  2.1844 -0.2569 -1.5702
 7575TIP3    H244217   3.417   1.177  16.209  0.3446  0.7322 -0.4522
 7576TIP3   OH244218   4.740   1.764   1.688  0.3231  0.3904 -0.0165
 7576TIP3    H144219   4.743   1.841   1.631 -1.5068  1.4664  1.2440
 7576TIP3    H244220   4.802   1.783   1.758  1.2709 -0.1639 -0.6739
 7577TIP3   OH244221   3.894   1.856  11.711 -0.2122  0.7005 -0.1041
 7577TIP3    H144222   3.859   1.787  11.767  4.0580 -1.6559  0.1660
 7577TIP3    H244223   3.861   1.835  11.624 -0.5799 -0.5655  0.3117
 7578TIP3   OH244224   5.566   0.036   0.711  0.3336 -0.0046  0.3384
 7578TIP3    H144225   5.513   0.107   0.676 -1.0368  0.0824  2.4520
 7578TIP3    H244226   5.633   0.021   0.644  0.2263  2.7518 -0.4985
 7579TIP3   OH244227   0.882   2.746   5.268  0.1252  0.1470  0.2175
 7579TIP3    H144228   0.929   2.747   5.351  0.3780 -1.9894  0.1676
 7579TIP3    H244229   0.857   2.654   5.256 -0.8490  0.5985 -1.5475
 7580TIP3   OH244230   3.739   6.374   0.465  1.2821  0.6248 -0.1014
 7580TIP3    H144231   3.768   6.461   0.435  1.1571  0.7567  0.1609
 7580TIP3    H244232   3.820   6.329   0.488  1.2052  1.6476  2.4431
 7581TIP3   OH244233   5.583   2.488   4.821 -0.5818 -0.0585  0.1558
 7581TIP3    H144234   5.572   2.528   4.908 -0.5271 -0.9540  0.5907
 7581TIP3    H244235   5.652   2.423   4.834 -0.3219  0.0502 -0.6553
 7582TIP3   OH244236   2.174   2.181   4.707 -0.1791 -0.1832  0.1353
 7582TIP3    H144237   2.119   2.239   4.655  0.1363 -0.4883 -0.5568
 7582TIP3    H244238   2.190   2.106   4.650  3.1970  1.0625 -0.8414
 7583TIP3   OH244239   3.783   4.816   3.907 -0.5261  0.2250 -0.0270
 7583TIP3    H144240   3.696   4.814   3.945 -0.5662  0.2504 -0.1184
 7583TIP3    H244241   3.792   4.904   3.870 -0.1327  0.5162  0.7499
 7584TIP3   OH244242   4.858   5.160  15.323  0.4204 -0.2048 -0.0891
 7584TIP3    H144243   4.812   5.187  15.402  0.5945 -0.7926  0.2251
 7584TIP3    H244244   4.950   5.184  15.339  0.0886  2.0788 -1.2125
 7585TIP3   OH244245   0.788   1.354  17.146  0.1292 -0.1886  0.0657
 7585TIP3    H144246   0.741   1.382  17.067 -0.3017  0.8090  0.6597
 7585TIP3    H244247   0.750   1.269  17.167 -0.0668 -0.2613 -0.5435
 7586TIP3   OH244248   4.966   4.966   4.043 -0.3135  0.0409  0.5017
 7586TIP3    H144249   4.911   4.938   4.117 -0.1673  0.0590  0.6179
 7586TIP3    H244250   5.042   5.006   4.084  0.1961 -0.7498  0.3549
 7587TIP3   OH244251   5.023   5.648   0.467 -0.6782 -0.2482  0.2438
 7587TIP3    H144252   5.107   5.640   0.422 -0.5030  0.6152  0.4016
 7587TIP3    H244253   4.982   5.562   0.457  0.6332 -0.9871  0.9972
 7588TIP3   OH244254   1.665   0.220   5.863 -0.2573  0.2941  0.0139
 7588TIP3    H144255   1.646   0.259   5.778  0.1587 -2.1701 -1.3001
 7588TIP3    H244256   1.580   0.217   5.908 -0.9797 -0.5938 -1.3375
 7589TIP3   OH244257   2.414   2.580  14.017  0.3639  0.3022 -0.1083
 7589TIP3    H144258   2.335   2.575  13.962  1.0131  1.1672 -1.1549
 7589TIP3    H244259   2.380   2.578  14.106 -1.0003  2.1158 -0.5204
 7590TIP3   OH244260   4.826   0.177   2.747 -0.1767  0.3431  0.5098
 7590TIP3    H144261   4.782   0.095   2.722  0.8372 -0.6647  1.8271
 7590TIP3    H244262   4.838   0.169   2.841  2.8611  0.4990  0.2257
 7591TIP3   OH244263   5.324   6.169   6.055  0.0527 -0.1699  0.1826
 7591TIP3    H144264   5.346   6.187   6.147 -0.1986 -1.7524  0.5834
 7591TIP3    H244265   5.228   6.171   6.054  0.0385 -0.8197  0.1079
 7592TIP3   OH244266   6.280   6.465  16.755  0.1173  0.2847  0.5669
 7592TIP3    H144267   6.341   6.535  16.730  0.3842 -0.3062 -0.4789
 7592TIP3    H244268   6.193   6.502  16.740  0.2456  0.6097  0.6217
 7593TIP3   OH244269   5.352   2.297  14.087 -0.4338 -0.3024 -0.6549
 7593TIP3    H144270   5.390   2.213  14.112  0.8131 -0.2453 -2.1591
 7593TIP3    H244271   5.258   2.280  14.080 -0.5685 -0.8534  1.6347
 7594TIP3   OH244272   5.800   0.969  14.797 -0.0630 -0.3259  0.1935
 7594TIP3    H144273   5.717   1.007  14.767  1.6387  1.6141 -2.5514
 7594TIP3    H244274   5.775   0.889  14.843 -3.3849 -0.3406 -1.3579
 7595TIP3   OH244275   0.229   5.412  17.431 -0.4099  0.2026 -0.0041
 7595TIP3    H144276   0.319   5.404  17.402 -0.2847 -0.9680  0.6267
 7595TIP3    H244277   0.177   5.372  17.361 -0.5754  1.8933 -0.9053
 7596TIP3   OH244278   2.241   3.751   1.708  0.2417 -0.5049 -0.1876
 7596TIP3    H144279   2.235   3.833   1.758 -0.8016 -0.4720 -0.3496
 7596TIP3    H244280   2.168   3.698   1.740  0.4325 -1.0610 -0.6529
 7597TIP3   OH244281   3.536   3.104   3.291 -0.0933  0.5520  0.3868
 7597TIP3    H144282   3.599   3.130   3.358 -0.0859 -0.3803  0.7567
 7597TIP3    H244283   3.508   3.186   3.250  0.3572  1.0763  1.1234
 7598TIP3   OH244284   2.129   2.633  16.970 -0.2388  0.3036 -0.4761
 7598TIP3    H144285   2.139   2.723  16.941 -0.1610 -0.3827 -2.7524
 7598TIP3    H244286   2.214   2.610  17.008 -0.5182  1.4017  0.8889
 7599TIP3   OH244287   2.149   4.133   2.156  0.4859 -0.2098  0.1448
 7599TIP3    H144288   2.088   4.204   2.180 -0.2657 -0.5780 -0.6116
 7599TIP3    H244289   2.093   4.067   2.115  1.4571 -0.3859 -0.9461
 7600TIP3   OH244290   3.643   6.194   5.534 -0.0200 -0.0696 -0.1222
 7600TIP3    H144291   3.700   6.257   5.578  1.1902 -1.8052  0.9465
 7600TIP3    H244292   3.577   6.172   5.600 -0.2805 -0.1199 -0.3983
 7601TIP3   OH244293   3.287   4.924   2.038 -0.6014 -0.3736 -0.1263
 7601TIP3    H144294   3.238   4.945   1.958  1.2764  1.0070 -1.0010
 7601TIP3    H244295   3.305   4.830   2.030 -1.9842 -0.6336 -0.4049
 7602TIP3   OH244296   5.303   5.917  13.832 -0.9416  0.1082 -0.3664
 7602TIP3    H144297   5.249   5.843  13.806 -1.3252  0.1924  0.1755
 7602TIP3    H244298   5.335   5.894  13.919 -1.4687  0.7834  0.0186
 7603TIP3   OH244299   2.677   2.305   4.838  0.6266 -0.5912 -0.0012
 7603TIP3    H144300   2.586   2.290   4.865  0.1904  0.4551 -0.8387
 7603TIP3    H244301   2.720   2.338   4.917 -0.7569  2.9560 -0.5775
 7604TIP3   OH244302   5.755   1.890  14.051  0.0756  0.5496  0.1082
 7604TIP3    H144303   5.816   1.891  13.976 -0.9775  2.2161 -0.7672
 7604TIP3    H244304   5.752   1.798  14.076  0.0887 -0.1729 -2.2359
 7605TIP3   OH244305   2.794   4.996  13.596  0.3385  1.0957 -0.0330
 7605TIP3    H144306   2.770   5.082  13.629 -2.5976  0.8123 -1.0930
 7605TIP3    H244307   2.761   4.994  13.506  3.7484  0.1463 -1.4388
 7606TIP3   OH244308   4.814   5.955   4.518 -0.2732 -0.4535  0.0382
 7606TIP3    H144309   4.806   5.860   4.509  1.3210 -0.8063  1.9102
 7606TIP3    H244310   4.907   5.974   4.505 -0.1801  0.5532  1.8254
 7607TIP3   OH244311   0.099   2.470   1.830  0.3417  0.3178  0.6330
 7607TIP3    H144312   0.038   2.522   1.881  1.2440  2.9511 -0.7609
 7607TIP3    H244313   0.159   2.433   1.895 -1.2926 -0.3578  1.8070
 7608TIP3   OH244314   4.247   6.193  16.132  0.1696 -0.5714 -0.2558
 7608TIP3    H144315   4.334   6.171  16.100  1.0921  1.1291  0.9589
 7608TIP3    H244316   4.237   6.141  16.211  0.4344 -0.1339  0.0664
 7609TIP3   OH244317   4.567   2.883  17.187 -0.1776 -0.1961  0.2582
 7609TIP3    H144318   4.526   2.913  17.268  1.7984  2.6688  0.3518
 7609TIP3    H244319   4.524   2.933  17.118  0.7466  0.2484 -0.0098
 7610TIP3   OH244320   1.470   2.910   5.682  0.1404  0.5841  1.0054
 7610TIP3    H144321   1.398   2.912   5.745 -1.2682  4.1896 -0.5001
 7610TIP3    H244322   1.548   2.923   5.736 -0.3844 -1.4845  2.4461
 7611TIP3   OH244323   5.775   4.393   4.016  0.4885  0.3985 -0.3721
 7611TIP3    H144324   5.814   4.307   4.003 -0.7290 -0.0205 -1.5258
 7611TIP3    H244325   5.809   4.446   3.943  0.0214  0.4320 -0.5716
 7612TIP3   OH244326   4.543   4.449   4.184  0.6343 -0.3186  0.6896
 7612TIP3    H144327   4.517   4.437   4.093 -0.6503 -0.2797  1.0265
 7612TIP3    H244328   4.631   4.412   4.189  1.1929  0.7173 -0.8079
 7613TIP3   OH244329   1.269   3.747  15.979  0.3712 -0.0867 -0.0190
 7613TIP3    H144330   1.319   3.714  15.904  2.6579  0.8874  0.9724
 7613TIP3    H244331   1.257   3.670  16.035  0.9311 -0.3227 -0.2135
 7614TIP3   OH244332   4.796   3.629   6.217  0.2916 -0.3727  0.2969
 7614TIP3    H144333   4.760   3.657   6.133  0.9537 -1.6526 -0.4543
 7614TIP3    H244334   4.751   3.683   6.282  0.8747  1.7405 -0.9536
 7615TIP3   OH244335   2.239   4.741   5.267 -0.2131  0.1419  0.0448
 7615TIP3    H144336   2.207   4.795   5.339  0.9870 -0.1807  0.8349
 7615TIP3    H244337   2.300   4.797   5.219  3.0439 -1.1362  2.3380
 7616TIP3   OH244338   3.949   5.080  16.473  0.0614 -0.2014 -0.3255
 7616TIP3    H144339   4.033   5.074  16.426 -0.6784  0.2382 -1.7692
 7616TIP3    H244340   3.884   5.055  16.408 -0.9583 -0.3826  0.7372
 7617TIP3   OH244341   0.814   2.340   6.328 -0.0971 -0.1388  0.2375
 7617TIP3    H144342   0.883   2.352   6.393  0.9707 -1.4847 -0.5936
 7617TIP3    H244343   0.753   2.412   6.344  0.7013  0.1932  1.9920
 7618TIP3   OH244344   0.137   4.672  14.392 -0.2755  0.4563 -0.0395
 7618TIP3    H144345   0.104   4.701  14.307  1.8172  0.5659 -0.8861
 7618TIP3    H244346   0.102   4.583  14.402 -0.0464  0.1895 -1.3311
 7619TIP3   OH244347   4.425   6.456  16.922  0.3897  0.2918 -0.0533
 7619TIP3    H144348   4.495   6.480  16.861  1.0543  0.9408  0.9387
 7619TIP3    H244349   4.396   6.539  16.958 -0.4561 -0.0354  0.0271
 7620TIP3   OH244350   3.032   1.887   1.133  0.2275 -0.4114  0.1927
 7620TIP3    H144351   3.041   1.792   1.123  0.6945 -0.4777  1.2021
 7620TIP3    H244352   3.051   1.922   1.045  0.3266 -1.2329 -0.1178
 7621TIP3   OH244353   6.535   4.008  12.663  0.3373 -0.6306  0.0772
 7621TIP3    H144354   6.487   4.048  12.735  1.0358 -0.6268  0.5578
 7621TIP3    H244355   6.512   3.915  12.668 -2.5094 -0.1560 -1.9986
 7622TIP3   OH244356   5.420   5.956   4.859 -0.1828  0.5736 -0.0526
 7622TIP3    H144357   5.390   5.881   4.807  1.0740  0.5856 -0.8269
 7622TIP3    H244358   5.380   5.943   4.945 -1.1323 -0.2206 -0.5930
 7623TIP3   OH244359   5.905   5.307   0.416 -0.2242  0.7595  0.0903
 7623TIP3    H144360   5.961   5.229   0.419  0.6190  1.3553  0.3091
 7623TIP3    H244361   5.879   5.315   0.324 -2.4779 -1.2352  0.4511
 7624TIP3   OH244362   0.325   3.680  11.889  0.4972  0.4503  0.3374
 7624TIP3    H144363   0.231   3.695  11.888  0.0228 -2.0396 -0.9506
 7624TIP3    H244364   0.339   3.619  11.961  0.7028 -1.0545 -0.9167
 7625TIP3   OH244365   1.765   3.860  15.453 -0.6569 -0.2428  0.4986
 7625TIP3    H144366   1.779   3.848  15.547  1.0466 -1.8142  0.1068
 7625TIP3    H244367   1.777   3.772  15.416  1.6115  0.8119 -1.4919
 7626TIP3   OH244368   0.390   4.912  12.959  0.6223 -0.3756 -0.2473
 7626TIP3    H144369   0.411   4.840  13.018 -0.3445 -0.4428  0.0448
 7626TIP3    H244370   0.344   4.976  13.014  0.4015 -0.0916 -0.7514
 7627TIP3   OH244371   0.101   3.725  16.338  0.2622  0.0663 -0.4340
 7627TIP3    H144372   0.169   3.681  16.389 -0.3229 -0.1549  0.1575
 7627TIP3    H244373   0.099   3.677  16.255  2.8359  1.8510 -1.6461
 7628TIP3   OH244374   5.956   1.203  15.390 -0.0040 -0.2286 -0.0340
 7628TIP3    H144375   5.934   1.218  15.482 -0.2889  0.3226 -0.1918
 7628TIP3    H244376   5.938   1.110  15.376  1.7608 -0.7691  0.9392
 7629TIP3   OH244377   4.216   3.264   4.171  0.2289  0.2818 -0.2405
 7629TIP3    H144378   4.151   3.194   4.165 -1.8085  1.9976  0.5091
 7629TIP3    H244379   4.272   3.237   4.243  0.1959 -1.1050 -0.6986
 7630TIP3   OH244380   0.352   4.044  15.059  0.2834 -0.0710  0.0415
 7630TIP3    H144381   0.360   3.949  15.053 -0.8833 -0.2746  1.3603
 7630TIP3    H244382   0.442   4.075  15.072  0.9185 -0.8065 -2.2128
 7631TIP3   OH244383   1.555   5.906  12.136 -0.5763 -0.6786  0.0090
 7631TIP3    H144384   1.586   5.816  12.131 -0.6407 -0.8021  1.3789
 7631TIP3    H244385   1.586   5.937  12.221  0.2263  0.9002 -0.8300
 7632TIP3   OH244386   3.385   0.272  14.355 -0.3981 -0.0262 -0.5322
 7632TIP3    H144387   3.300   0.263  14.312 -0.0660  0.1146 -1.2327
 7632TIP3    H244388   3.448   0.274  14.283  0.1291  0.7410 -0.0643
 7633TIP3   OH244389   5.261   1.535  14.996  0.0834  0.0941  0.3548
 7633TIP3    H144390   5.303   1.502  14.917  0.6979  3.1354 -0.7386
 7633TIP3    H244391   5.203   1.464  15.025  0.4549 -1.4243 -2.3323
 7634TIP3   OH244392   0.639   1.021  16.849  0.1333  0.4247 -0.0948
 7634TIP3    H144393   0.680   0.988  16.929  0.2865  1.0939  0.1040
 7634TIP3    H244394   0.578   1.088  16.878 -1.2413 -0.6465 -0.3753
 7635TIP3   OH244395   2.808   5.168  11.040  0.1260  0.3686 -0.0739
 7635TIP3    H144396   2.878   5.221  11.002  2.0876 -2.0008 -0.0209
 7635TIP3    H244397   2.838   5.077  11.029 -1.6125 -0.6334  2.5169
 7636TIP3   OH244398   5.743   5.349   1.653 -0.4784  0.3610  0.1633
 7636TIP3    H144399   5.662   5.315   1.691 -0.6769  1.7697  1.0743
 7636TIP3    H244400   5.800   5.365   1.729 -0.9600  3.4342 -0.0164
 7637TIP3   OH244401   4.540   0.540   5.523 -0.3947 -0.4960 -0.4166
 7637TIP3    H144402   4.622   0.502   5.553  0.5357  0.2209 -1.9324
 7637TIP3    H244403   4.530   0.508   5.433 -0.9737  0.6329 -0.7757
 7638TIP3   OH244404   5.130   3.198  11.694 -0.0995 -0.4326  0.4034
 7638TIP3    H144405   5.056   3.159  11.648 -0.7485  0.4567  0.6518
 7638TIP3    H244406   5.093   3.228  11.777  0.8329 -1.1170  1.0819
 7639TIP3   OH244407   2.809   0.807  15.603 -0.1229  0.0229  0.1531
 7639TIP3    H144408   2.740   0.862  15.567  0.2009 -0.6205 -1.5948
 7639TIP3    H244409   2.890   0.848  15.572  0.1827 -0.3847  0.4103
 7640TIP3   OH244410   0.969   2.827  14.180 -0.1554 -0.3342  0.0786
 7640TIP3    H144411   0.946   2.911  14.140 -1.9287 -0.6978  0.2483
 7640TIP3    H244412   0.987   2.770  14.106  1.5784  0.2898 -0.0307
 7641TIP3   OH244413   4.888   2.171   4.323 -0.4081  0.4819 -0.7588
 7641TIP3    H144414   4.897   2.109   4.250 -2.7300 -1.3557  0.3945
 7641TIP3    H244415   4.856   2.252   4.281  1.7588  0.7037 -2.1638
 7642TIP3   OH244416   0.931   4.494  12.374  0.3049 -0.3813  0.0890
 7642TIP3    H144417   1.008   4.499  12.316  0.3215  0.8677  0.1882
 7642TIP3    H244418   0.889   4.579  12.364 -0.1283 -0.4393  1.3289
 7643TIP3   OH244419   2.974   6.088  11.139  0.1439 -0.0767  0.1049
 7643TIP3    H144420   2.886   6.052  11.155  0.1211  0.0117  0.1778
 7643TIP3    H244421   3.011   6.101  11.226  0.8677 -1.6458  0.0739
 7644TIP3   OH244422   0.960   3.623   5.676 -0.6090  0.2322  0.1307
 7644TIP3    H144423   0.900   3.673   5.621 -1.0358  0.8233  1.0927
 7644TIP3    H244424   0.904   3.582   5.742  0.0558  1.2768  1.4086
 7645TIP3   OH244425   4.261   4.475  12.777  0.0488 -0.1950 -0.2183
 7645TIP3    H144426   4.197   4.523  12.724 -1.3455 -3.1867 -1.4146
 7645TIP3    H244427   4.332   4.455  12.716  0.5954  0.2509  0.2579
 7646TIP3   OH244428   5.000   0.402   4.798  0.0537 -0.3653 -0.1708
 7646TIP3    H144429   5.010   0.386   4.704 -0.4685  0.7337 -0.4288
 7646TIP3    H244430   5.089   0.423   4.828  0.4055 -1.7470 -0.1970
 7647TIP3   OH244431   3.177   2.505  10.833  0.6409 -0.3784  0.1252
 7647TIP3    H144432   3.130   2.500  10.750 -0.5903  0.7083  0.7280
 7647TIP3    H244433   3.121   2.558  10.890  1.9057 -0.2897  1.3535
 7648TIP3   OH244434   3.420   4.214   6.220  0.5473  0.1733 -0.3053
 7648TIP3    H144435   3.469   4.132   6.234 -0.1318 -0.6655 -2.4895
 7648TIP3    H244436   3.488   4.280   6.208  1.1126 -0.0340  1.4457
 7649TIP3   OH244437   4.974   5.685   5.660 -0.0361  0.1254  0.1715
 7649TIP3    H144438   4.903   5.636   5.701 -0.4163  1.4682  1.1902
 7649TIP3    H244439   4.935   5.771   5.641  0.7017  0.1786 -1.2513
 7650TIP3   OH244440   3.556   2.142  15.007 -0.5584  0.3956 -0.2732
 7650TIP3    H144441   3.502   2.175  15.079  2.5878  1.4737  1.7914
 7650TIP3    H244442   3.563   2.216  14.947 -2.9326 -0.4088 -1.6833
 7651TIP3   OH244443   3.775   1.571  13.841 -0.4808  0.0917 -0.5027
 7651TIP3    H144444   3.740   1.630  13.907  0.4625 -0.9922  1.0400
 7651TIP3    H244445   3.765   1.618  13.758 -4.2863  0.3672 -0.0257
 7652TIP3   OH244446   0.156   5.672   1.528 -0.1381  0.2118 -0.0760
 7652TIP3    H144447   0.227   5.608   1.518  0.7439  0.9661  0.9738
 7652TIP3    H244448   0.094   5.651   1.459  0.2518 -1.6031  0.0678
 7653TIP3   OH244449   4.832   6.111   2.085 -0.6737  0.3875  0.1647
 7653TIP3    H144450   4.842   6.016   2.075  0.1144  0.4946 -0.0902
 7653TIP3    H244451   4.899   6.135   2.149 -0.0803  0.9421 -0.6499
 7654TIP3   OH244452   4.669   3.024  16.654 -0.2847 -0.0864 -0.5045
 7654TIP3    H144453   4.745   3.004  16.599  1.4812  1.9538  1.0152
 7654TIP3    H244454   4.697   3.002  16.743 -1.4388  0.7998  0.1095
 7655TIP3   OH244455   6.038   1.819  17.137  0.0282 -0.3420 -0.1470
 7655TIP3    H144456   6.110   1.763  17.164  1.2435  0.5930 -1.3342
 7655TIP3    H244457   6.018   1.791  17.047 -0.0426  0.4186 -0.3740
 7656TIP3   OH244458   5.860   5.377  16.645  0.6881  0.2334 -0.6402
 7656TIP3    H144459   5.823   5.458  16.610  1.6706  0.8381 -0.3221
 7656TIP3    H244460   5.948   5.402  16.675  1.0215 -0.9601 -0.5805
 7657TIP3   OH244461   4.833   6.057   0.733 -0.2295  0.4736  0.1953
 7657TIP3    H144462   4.818   5.999   0.659 -0.7513  1.2438 -0.3165
 7657TIP3    H244463   4.749   6.060   0.779 -0.4784  1.4996 -0.2890
 7658TIP3   OH244464   0.396   6.129  14.387  0.0699  0.2850 -0.4502
 7658TIP3    H144465   0.445   6.176  14.453  0.6701 -1.4404  0.3973
 7658TIP3    H244466   0.411   6.177  14.306  1.6560  0.8307  0.1463
 7659TIP3   OH244467   6.240   4.816   3.223  0.0704  0.6107  0.1616
 7659TIP3    H144468   6.145   4.810   3.213  0.0831  0.6561  0.0198
 7659TIP3    H244469   6.274   4.746   3.168  0.1291  0.7276  0.0506
 7660TIP3   OH244470   0.609   5.552   3.486 -0.0876 -0.0132  0.4727
 7660TIP3    H144471   0.679   5.557   3.551  1.9617  1.4231 -1.7048
 7660TIP3    H244472   0.603   5.459   3.464  1.4183 -0.1307  0.4450
 7661TIP3   OH244473   5.033   1.368  17.255 -0.1541 -0.0990 -0.2970
 7661TIP3    H144474   5.013   1.449  17.209  1.1100  0.9559  0.9185
 7661TIP3    H244475   4.953   1.316  17.248 -0.4578  0.5825 -2.4370
 7662TIP3   OH244476   1.649   2.673  17.286 -0.2074 -0.0529  0.3623
 7662TIP3    H144477   1.642   2.682  17.191 -2.0490 -0.9598  0.3689
 7662TIP3    H244478   1.722   2.613  17.300 -1.0687 -1.3855 -0.5990
 7663TIP3   OH244479   6.181   5.257  12.289  0.2646 -0.4902  0.1285
 7663TIP3    H144480   6.181   5.295  12.201 -0.0654  2.0543  1.1274
 7663TIP3    H244481   6.259   5.293  12.331 -0.6278 -0.0338  1.4695
 7664TIP3   OH244482   1.064   5.303  17.461 -0.5128 -0.2704 -0.3539
 7664TIP3    H144483   1.143   5.331  17.415 -0.5337  0.1436 -0.1506
 7664TIP3    H244484   0.999   5.288  17.392 -0.4481  0.0256 -0.4812
 7665TIP3   OH244485   2.707   5.710  13.306  0.5681 -0.0905  0.1942
 7665TIP3    H144486   2.735   5.633  13.256  2.4597 -0.0100  1.0539
 7665TIP3    H244487   2.674   5.771  13.239  0.5079 -1.0234 -0.6558
 7666TIP3   OH244488   3.228   3.006  16.138 -0.6654  0.2925 -0.6584
 7666TIP3    H144489   3.249   2.938  16.074 -0.0768  1.1528 -1.3902
 7666TIP3    H244490   3.150   2.973  16.182  0.2283 -1.3952 -0.2146
 7667TIP3   OH244491   6.097   0.171   5.530  0.7581  0.2346  0.1004
 7667TIP3    H144492   6.101   0.244   5.469  2.1539 -0.6706 -0.9493
 7667TIP3    H244493   6.177   0.121   5.513 -0.3500 -1.7577  0.5076
 7668TIP3   OH244494   4.963   2.683  13.688 -0.1013  0.4849 -0.1979
 7668TIP3    H144495   4.936   2.649  13.602  1.3767  0.2955 -0.6271
 7668TIP3    H244496   4.996   2.606  13.735  0.8746  0.8747 -0.2095
 7669TIP3   OH244497   5.671   1.723  11.020 -0.3702  0.4972 -0.3115
 7669TIP3    H144498   5.673   1.757  10.930 -0.6610  1.1165 -0.0963
 7669TIP3    H244499   5.660   1.629  11.010  0.8088  0.4046 -0.9413
 7670TIP3   OH244500   5.230   4.978   5.070  0.0267 -0.1260  0.3322
 7670TIP3    H144501   5.172   4.990   4.994 -0.3124  1.0616  0.7470
 7670TIP3    H244502   5.300   5.042   5.056  1.0437 -1.2726  0.0431
 7671TIP3   OH244503   4.200   6.588  15.178  0.7451  0.2691 -0.5110
 7671TIP3    H144504   4.197   6.614  15.086 -3.1832  1.1695 -0.3313
 7671TIP3    H244505   4.187   6.669  15.226 -1.2244 -0.6145  0.5773
 7672TIP3   OH244506   4.670   4.390  11.445  0.3274  0.3280  0.1152
 7672TIP3    H144507   4.743   4.351  11.494  1.8739 -0.1111 -2.3538
 7672TIP3    H244508   4.682   4.484  11.457  2.1308  0.3287 -1.2334
 7673TIP3   OH244509   3.802   0.659   3.669  0.4183 -0.1067  0.4153
 7673TIP3    H144510   3.894   0.657   3.642 -0.1307 -0.0725 -1.6282
 7673TIP3    H244511   3.756   0.611   3.601 -1.0923 -0.1644  1.4314
 7674TIP3   OH244512   3.386   3.652  17.420 -0.2308 -0.1328 -0.7152
 7674TIP3    H144513   3.434   3.571  17.440  0.7680 -0.1138 -2.7952
 7674TIP3    H244514   3.450   3.722  17.430 -0.3854  0.1195 -1.4075
 7675TIP3   OH244515   1.535   1.638   0.993  0.3722 -0.3323  0.4239
 7675TIP3    H144516   1.518   1.557   1.040  0.7801  0.9255  2.9225
 7675TIP3    H244517   1.527   1.615   0.901  1.3643 -3.3963  0.9980
 7676TIP3   OH244518   3.347   4.033  11.461 -0.1086 -0.2611 -0.2541
 7676TIP3    H144519   3.337   4.017  11.367  0.6559  0.7684 -0.5225
 7676TIP3    H244520   3.393   4.116  11.467 -1.1212  0.2490  1.0516
 7677TIP3   OH244521   1.544   0.776  12.336  0.7516  0.6192 -0.8265
 7677TIP3    H144522   1.538   0.780  12.432  1.9431  0.4057 -0.7158
 7677TIP3    H244523   1.588   0.693  12.319 -0.8572 -0.0820 -1.6592
 7678TIP3   OH244524   6.733   2.798  16.634  0.5223  0.0332  0.8967
 7678TIP3    H144525   6.777   2.835  16.711  2.4395 -1.8040  0.7923
 7678TIP3    H244526   6.795   2.812  16.563 -0.6185  0.4316 -0.0468
 7679TIP3   OH244527   6.094   3.657  14.281  0.2825  0.5185  0.5383
 7679TIP3    H144528   6.136   3.708  14.211 -0.9450  0.5017 -0.2418
 7679TIP3    H244529   6.094   3.567  14.247  0.5626  0.3460  0.9943
 7680TIP3   OH244530   2.084   3.233  14.032 -0.1724 -0.4976 -0.4239
 7680TIP3    H144531   2.117   3.211  14.119 -0.6187  1.6392  0.3550
 7680TIP3    H244532   2.025   3.161  14.010  0.2189 -1.2597  0.8740
 7681TIP3   OH244533   3.766   3.329   0.070  1.1340 -0.2866 -0.0041
 7681TIP3    H144534   3.720   3.366   0.146  2.3768  0.7594  0.2837
 7681TIP3    H244535   3.757   3.235   0.080 -0.7077 -0.1409  0.1701
 7682TIP3   OH244536   4.441   1.943  17.331 -0.0014  0.0227  0.1373
 7682TIP3    H144537   4.443   2.033  17.363  0.3254  0.4587 -1.0624
 7682TIP3    H244538   4.361   1.938  17.280  0.4860 -0.0699 -0.6218
 7683TIP3   OH244539   2.321   5.781  14.833  0.1137  0.7209 -0.0418
 7683TIP3    H144540   2.313   5.719  14.905  2.2921 -0.0962 -0.4240
 7683TIP3    H244541   2.241   5.770  14.782  0.0728 -1.1316  0.3797
 7684TIP3   OH244542   1.147   2.233  12.215  0.0388  0.4463  0.2000
 7684TIP3    H144543   1.200   2.180  12.155 -0.2865 -0.3200  0.5704
 7684TIP3    H244544   1.064   2.185  12.222 -0.3328  1.1148  0.3936
 7685TIP3   OH244545   3.409   3.766  12.213 -0.4035 -0.0658 -0.4950
 7685TIP3    H144546   3.366   3.810  12.287  1.4998  1.5205 -0.2583
 7685TIP3    H244547   3.380   3.816  12.136  0.0334  0.2356 -0.4671
 7686TIP3   OH244548   5.098   3.895  15.125 -0.1945 -0.2412 -0.2170
 7686TIP3    H144549   5.171   3.834  15.134 -0.3786 -0.3202  0.7425
 7686TIP3    H244550   5.039   3.875  15.197 -0.0331  1.3574  0.4022
 7687TIP3   OH244551   3.754   1.236  12.514  0.0047 -0.5660 -0.3955
 7687TIP3    H144552   3.706   1.208  12.437 -1.1394 -1.9314  0.7479
 7687TIP3    H244553   3.697   1.298  12.558  0.8673  0.6030 -0.8792
 7688TIP3   OH244554   5.199   5.619  14.306 -0.6117 -0.1045  0.5802
 7688TIP3    H144555   5.163   5.702  14.277 -1.7919  0.0129  2.2272
 7688TIP3    H244556   5.123   5.563  14.320 -0.0987 -0.4077  2.5271
 7689TIP3   OH244557   5.655   0.953   5.549  0.3154 -0.6856  0.2874
 7689TIP3    H144558   5.620   0.951   5.638  0.8454 -0.3002  0.5111
 7689TIP3    H244559   5.743   0.990   5.558 -0.0177  0.3819 -0.5241
 7690TIP3   OH244560   4.607   4.966   3.121  0.0019 -0.5067  0.1518
 7690TIP3    H144561   4.630   4.881   3.159  1.5288 -0.6900 -1.0553
 7690TIP3    H244562   4.617   4.953   3.027  0.0548  0.9511 -0.0687
 7691TIP3   OH244563   3.166   6.685   2.020  0.2888 -0.2005  0.0019
 7691TIP3    H144564   3.252   6.726   2.025  0.3463 -0.3141 -0.0408
 7691TIP3    H244565   3.135   6.703   1.931  0.2998 -0.2221 -0.0062
 7692TIP3   OH244566   6.312   2.811   0.570 -0.2565  0.5318  0.0996
 7692TIP3    H144567   6.275   2.787   0.656 -1.6352  1.1005 -0.3034
 7692TIP3    H244568   6.301   2.732   0.517  3.4272 -0.9168  1.2332
 7693TIP3   OH244569   1.609   2.905  16.638 -1.0436  0.2278  0.8086
 7693TIP3    H144570   1.701   2.881  16.651 -1.0653  0.2682  1.0477
 7693TIP3    H244571   1.582   2.855  16.562 -0.5424  0.9819  0.1211
 7694TIP3   OH244572   6.348   0.818   5.251  0.0926  0.2228 -0.0981
 7694TIP3    H144573   6.274   0.810   5.312 -0.4146  0.1740 -0.7094
 7694TIP3    H244574   6.418   0.856   5.304 -1.0230  2.3315 -0.0394
 7695TIP3   OH244575   5.996   3.507  15.596  0.3385 -0.1939 -0.6057
 7695TIP3    H144576   5.934   3.459  15.541  0.3237 -0.8792 -0.0200
 7695TIP3    H244577   6.035   3.572  15.538 -1.7757  1.0762 -0.7096
 7696TIP3   OH244578   0.602   4.565  16.391 -0.1818 -0.4830 -0.2881
 7696TIP3    H144579   0.515   4.529  16.405  0.1242 -1.0062  0.2872
 7696TIP3    H244580   0.662   4.497  16.421  0.4344 -0.2446 -0.9366
 7697TIP3   OH244581   4.442   1.112   2.692  0.1614  0.0755 -0.1288
 7697TIP3    H144582   4.395   1.048   2.745 -2.4082  0.5454 -1.6418
 7697TIP3    H244583   4.401   1.196   2.714 -0.9954  0.2879 -2.7234
 7698TIP3   OH244584   5.406   4.509   5.320 -0.3973  0.6411  0.3268
 7698TIP3    H144585   5.345   4.438   5.301  1.2271 -1.0532  1.1949
 7698TIP3    H244586   5.419   4.552   5.235 -0.0817 -1.2083 -0.6150
 7699TIP3   OH244587   6.612   4.370   3.426  0.2591  0.2215  0.0701
 7699TIP3    H144588   6.626   4.462   3.448 -0.9022  0.6234 -0.7686
 7699TIP3    H244589   6.521   4.353   3.451 -0.0051 -0.2644 -1.1551
 7700TIP3   OH244590   4.477   3.190   0.235  0.4255 -0.1725  0.3464
 7700TIP3    H144591   4.410   3.180   0.167  1.3934  0.3640 -0.7264
 7700TIP3    H244592   4.528   3.109   0.231  1.3466  0.4137 -0.5853
 7701TIP3   OH244593   4.545   6.022   4.895  0.2663 -0.5343  0.1468
 7701TIP3    H144594   4.640   6.015   4.905  0.9970  0.1564 -4.3615
 7701TIP3    H244595   4.510   5.947   4.944  3.1003 -1.0149  1.6274
 7702TIP3   OH244596   1.524   5.198  11.790 -0.6047  0.8552  0.2823
 7702TIP3    H144597   1.593   5.212  11.725  0.1032 -0.4107  0.7317
 7702TIP3    H244598   1.451   5.254  11.760  0.2507  1.4616 -0.7345
 7703TIP3   OH244599   2.466   1.461  16.834  0.9387  0.4243 -0.1836
 7703TIP3    H144600   2.454   1.467  16.929 -0.3561 -0.9405 -0.2287
 7703TIP3    H244601   2.557   1.486  16.820  1.3453  0.0098  1.5003
 7704TIP3   OH244602   6.057   3.008   4.911 -0.2157  0.1995  0.2267
 7704TIP3    H144603   6.009   3.070   4.965  0.1089  1.2469 -0.6490
 7704TIP3    H244604   6.056   3.046   4.823 -0.4031 -1.2612 -0.4480
 7705TIP3   OH244605   1.914   2.926   5.067  0.4046  0.4592 -0.0327
 7705TIP3    H144606   1.967   2.852   5.098  0.5879  0.9081  0.7764
 7705TIP3    H244607   1.975   3.000   5.067 -0.1963  0.9792  0.8832
 7706TIP3   OH244608   5.070   2.456  17.233 -0.4209 -0.2071  0.1134
 7706TIP3    H144609   5.102   2.399  17.163 -0.4023 -2.1674  1.6243
 7706TIP3    H244610   5.054   2.540  17.191  0.2769 -1.1129 -2.0715
 7707TIP3   OH244611   3.189   2.900  12.466  0.2732 -0.0488  0.1014
 7707TIP3    H144612   3.259   2.952  12.506 -1.6454  1.6551  1.4653
 7707TIP3    H244613   3.224   2.873  12.381  2.2096  1.5424  0.3214
 7708TIP3   OH244614   4.639   0.813   4.038  0.2847  0.1136  0.3820
 7708TIP3    H144615   4.556   0.860   4.039 -0.0529 -0.4619  0.0300
 7708TIP3    H244616   4.619   0.727   4.074  0.6894 -0.0832  0.1549
 7709TIP3   OH244617   0.933   3.819   1.305  0.1183 -0.1848  0.2461
 7709TIP3    H144618   0.937   3.883   1.234 -0.7396 -1.0292 -0.5852
 7709TIP3    H244619   0.925   3.735   1.262  1.9603 -0.9732  1.3119
 7710TIP3   OH244620   1.687   2.170   2.533  0.3758 -0.4122 -0.4475
 7710TIP3    H144621   1.626   2.108   2.573  0.3464 -0.2423 -0.2295
 7710TIP3    H244622   1.774   2.140   2.558  0.4027 -0.8985 -1.1056
 7711TIP3   OH244623   4.258   5.297  16.024 -0.4998  0.1433  0.7261
 7711TIP3    H144624   4.343   5.253  16.030 -0.9425 -0.7102  0.9299
 7711TIP3    H244625   4.273   5.369  15.962  0.0554 -0.7833 -0.2702
 7712TIP3   OH244626   5.951   0.630  15.820  0.0226 -0.1639  0.2346
 7712TIP3    H144627   5.997   0.553  15.788 -0.0223 -0.6679  1.3430
 7712TIP3    H244628   6.003   0.659  15.895 -2.4077 -1.8404  2.7104
 7713TIP3   OH244629   5.942   4.923   1.487  0.0412  0.6035 -0.1277
 7713TIP3    H144630   5.878   4.992   1.470 -0.7121 -0.2701 -0.9334
 7713TIP3    H244631   5.891   4.853   1.527  0.6984  0.2790  0.1647
 7714TIP3   OH244632   4.814   1.841   6.997  0.0940 -0.5462 -0.0418
 7714TIP3    H144633   4.780   1.765   7.043 -0.4305 -0.5206 -0.3759
 7714TIP3    H244634   4.801   1.914   7.058 -2.0667 -0.2264 -0.7797
 7715TIP3   OH244635   6.344   6.698  12.157  0.7062 -0.1921 -0.0480
 7715TIP3    H144636   6.319   6.772  12.211  3.4348 -0.0397  1.1991
 7715TIP3    H244637   6.304   6.622  12.200  0.9432  0.1948  0.8927
 7716TIP3   OH244638   2.800   2.497   5.832 -0.3675  0.6691 -0.8645
 7716TIP3    H144639   2.803   2.425   5.769 -0.8211 -0.3037  0.1833
 7716TIP3    H244640   2.891   2.525   5.842  0.5270 -2.5835  1.7999
 7717TIP3   OH244641   4.092   6.353   2.005 -0.4021  0.2135 -0.1063
 7717TIP3    H144642   4.065   6.410   1.933  1.5162  2.7272  1.0402
 7717TIP3    H244643   4.183   6.377   2.022 -0.0167 -2.0991  1.5437
 7718TIP3   OH244644   2.703   3.691   2.246  0.4140 -0.7723 -0.2157
 7718TIP3    H144645   2.782   3.651   2.282  0.3620  0.0690  0.9087
 7718TIP3    H244646   2.644   3.700   2.321 -1.1098 -2.1182 -1.1661
 7719TIP3   OH244647   0.670   1.386  16.562  0.9764  0.3205  0.1166
 7719TIP3    H144648   0.678   1.312  16.503  2.1207  0.5946 -0.1002
 7719TIP3    H244649   0.593   1.367  16.615  1.0465 -0.8453 -0.1811
 7720TIP3   OH244650   6.604   0.335  12.858 -0.5122  0.3731 -0.1019
 7720TIP3    H144651   6.660   0.367  12.787  0.7630  0.8021  1.0593
 7720TIP3    H244652   6.519   0.377  12.843  0.0020  1.1716 -0.8538
 7721TIP3   OH244653   5.931   4.009   4.609 -0.0420  0.1525  0.1533
 7721TIP3    H144654   5.950   3.939   4.672 -0.2958  0.3373  0.4356
 7721TIP3    H244655   5.836   4.009   4.601  0.0504 -1.0361 -1.5507
 7722TIP3   OH244656   6.504   2.594  11.817  0.6220 -0.3690  0.2349
 7722TIP3    H144657   6.567   2.537  11.774  0.9549  0.0198  0.1987
 7722TIP3    H244658   6.556   2.668  11.849  0.1588  0.0581  0.0203
 7723TIP3   OH244659   4.815   2.877  17.387  0.1303 -0.1115  0.1784
 7723TIP3    H144660   4.728   2.883  17.348 -0.3624  0.1225  1.2772
 7723TIP3    H244661   4.802   2.827  17.467  0.9975  0.0164  0.4090
 7724TIP3   OH244662   1.139   5.107  14.954  0.1443 -0.0787 -0.3961
 7724TIP3    H144663   1.107   5.047  15.021 -0.1498 -1.1064 -1.4102
 7724TIP3    H244664   1.235   5.100  14.959  0.2691  1.9831  1.7423
 7725TIP3   OH244665   6.023   4.072   5.523  0.4514 -0.2027 -0.3005
 7725TIP3    H144666   6.081   4.008   5.563 -0.5620  0.0502  1.7202
 7725TIP3    H244667   6.075   4.152   5.518  0.7219 -0.3383  0.2338
 7726TIP3   OH244668   2.918   4.188   1.115  0.4085 -0.3457  0.0886
 7726TIP3    H144669   2.827   4.195   1.085  0.0354 -0.0913  1.2145
 7726TIP3    H244670   2.969   4.174   1.035 -0.3979  1.3866 -0.7900
 7727TIP3   OH244671   2.281   4.460   4.327 -0.1063  0.1833  0.6977
 7727TIP3    H144672   2.245   4.500   4.406  0.8791  1.7474  0.4006
 7727TIP3    H244673   2.376   4.466   4.338  0.1225  2.7962 -1.6675
 7728TIP3   OH244674   6.372   0.985   4.686 -0.0619 -0.9266  0.2869
 7728TIP3    H144675   6.319   0.972   4.764 -1.3745  0.5654 -0.2996
 7728TIP3    H244676   6.460   1.003   4.719 -0.7753  0.5780  1.5166
 7729TIP3   OH244677   6.083   1.966   4.108 -0.0288  0.1006 -0.5105
 7729TIP3    H144678   6.129   2.048   4.087  0.6076  0.0424  0.5739
 7729TIP3    H244679   6.045   1.981   4.194 -2.5787  0.3328 -1.5990
 7730TIP3   OH244680   1.173   6.086  14.184 -0.0518  0.0934 -0.1538
 7730TIP3    H144681   1.263   6.085  14.218  0.4999  1.0390 -1.4872
 7730TIP3    H244682   1.180   6.045  14.097 -0.3914  2.3869 -1.3379
 7731TIP3   OH244683   3.971   3.419   2.037  0.0804 -0.4240  0.5219
 7731TIP3    H144684   3.876   3.423   2.024  0.2753  0.2856 -0.9344
 7731TIP3    H244685   3.995   3.333   2.005 -0.1196 -0.7742  1.3006
 7732TIP3   OH244686   0.516   1.462   0.065 -0.5779  0.4199 -0.1868
 7732TIP3    H144687   0.493   1.377   0.029 -0.3950  0.9308 -1.5852
 7732TIP3    H244688   0.433   1.497   0.098 -0.5043 -0.6241  1.1652
 7733TIP3   OH244689   4.820   2.230  17.390  0.3864  0.2475 -0.2037
 7733TIP3    H144690   4.781   2.222  17.477  1.0445  1.4781  0.2252
 7733TIP3    H244691   4.801   2.319  17.363 -0.9050 -0.4765 -1.8906
 7734TIP3   OH244692   3.526   0.911   1.274 -0.1676  0.1252 -0.4629
 7734TIP3    H144693   3.562   0.851   1.209  1.3589 -0.2083  0.6347
 7734TIP3    H244694   3.586   0.985   1.275 -1.5580  1.3181 -1.1805
 7735TIP3   OH244695   1.722   3.181  16.500  0.2075  0.6761  0.2350
 7735TIP3    H144696   1.640   3.138  16.524  0.1648  0.8956  0.4890
 7735TIP3    H244697   1.695   3.270  16.473  0.1805  0.2599 -1.2139
 7736TIP3   OH244698   4.080   1.355   6.031  0.2677  0.5014  0.3065
 7736TIP3    H144699   4.004   1.372   5.975  0.3218  1.5528  0.5411
 7736TIP3    H244700   4.047   1.367   6.120  0.4669 -0.0334  0.4534
 7737TIP3   OH244701   6.034   2.845  16.343 -0.2119 -0.3202  0.2509
 7737TIP3    H144702   6.122   2.877  16.326 -0.9560  1.0361 -1.2965
 7737TIP3    H244703   6.016   2.784  16.272 -1.4396  1.3907 -0.9694
 7738TIP3   OH244704   1.449   3.587  12.711 -0.5523 -0.7849  0.4096
 7738TIP3    H144705   1.377   3.649  12.703  2.3928  2.7435 -2.7050
 7738TIP3    H244706   1.460   3.550  12.624  0.8217 -1.9267  1.0234
 7739TIP3   OH244707   6.112   1.939  16.318 -0.1151  0.1886  0.2840
 7739TIP3    H144708   6.102   1.867  16.256  0.5071  0.8468 -0.5959
 7739TIP3    H244709   6.058   2.010  16.282  0.2581  0.5819  0.4843
 7740TIP3   OH244710   4.906   1.314   3.439  0.0901 -0.5006 -0.3748
 7740TIP3    H144711   4.984   1.347   3.482 -0.4976 -0.8916  1.0316
 7740TIP3    H244712   4.839   1.312   3.507 -1.3108  0.2797 -1.6380
 7741TIP3   OH244713   5.558   2.937   3.804 -0.1280 -0.0040  0.5768
 7741TIP3    H144714   5.626   2.961   3.741  0.1782  0.5849  1.1103
 7741TIP3    H244715   5.485   2.906   3.751  0.3842 -0.1828 -0.0276
 7742TIP3   OH244716   6.510   3.910  14.569 -0.5446  0.0116 -0.4143
 7742TIP3    H144717   6.426   3.867  14.555 -1.6863  1.9218  0.3055
 7742TIP3    H244718   6.566   3.876  14.499 -1.5033 -2.2307 -0.1823
 7743TIP3   OH244719   2.648   2.400   5.288 -0.2715 -0.0411  0.1728
 7743TIP3    H144720   2.632   2.309   5.262 -0.3400  0.7605 -2.9554
 7743TIP3    H244721   2.604   2.453   5.221 -0.3799  2.3332  1.9769
 7744TIP3   OH244722   5.565   3.232  11.524 -0.4251 -0.6899 -0.2293
 7744TIP3    H144723   5.531   3.143  11.534 -0.5365 -0.4928  1.4237
 7744TIP3    H244724   5.489   3.285  11.503 -0.7087 -0.7013  0.6974
 7745TIP3   OH244725   4.171   0.820   3.340 -0.0069  0.0080  0.1228
 7745TIP3    H144726   4.234   0.790   3.406  0.3402  0.1120 -0.1573
 7745TIP3    H244727   4.151   0.742   3.289  0.9868  0.2554 -0.6807
 7746TIP3   OH244728   2.658   1.913   5.627 -0.6510 -0.5311 -0.2162
 7746TIP3    H144729   2.574   1.867   5.627 -0.6515 -0.7263  2.9941
 7746TIP3    H244730   2.724   1.844   5.617 -0.8038 -0.5672 -1.0126
 7747TIP3   OH244731   1.623   0.748   0.357  0.0921 -0.2346  0.7801
 7747TIP3    H144732   1.544   0.725   0.307  2.1119 -0.3585 -2.6970
 7747TIP3    H244733   1.612   0.841   0.378 -1.1657 -0.3648  0.7426
 7748TIP3   OH244734   5.360   5.486  15.657 -0.1523 -0.0864  0.5948
 7748TIP3    H144735   5.326   5.574  15.643 -1.0591 -0.5328 -0.0958
 7748TIP3    H244736   5.294   5.443  15.711  0.2585 -0.3589  0.8805
 7749TIP3   OH244737   4.831   3.979   2.912 -0.2505 -0.2587 -0.3131
 7749TIP3    H144738   4.735   3.972   2.912 -0.5810  2.6393  1.8663
 7749TIP3    H244739   4.849   4.073   2.914  2.6800 -0.7210 -0.2806
 7750TIP3   OH244740   4.168   1.703  15.106  0.5679 -0.6290 -0.4635
 7750TIP3    H144741   4.151   1.688  15.199  2.4730  0.7982  0.1944
 7750TIP3    H244742   4.181   1.615  15.070 -2.3212 -1.3801  0.0754
 7751TIP3   OH244743   0.199   6.590  16.726 -0.1530 -0.0976 -0.1431
 7751TIP3    H144744   0.176   6.514  16.780 -1.5773  0.6303  0.3194
 7751TIP3    H244745   0.257   6.554  16.658 -0.0653 -1.4246  0.5900
 7752TIP3   OH244746   4.808   0.731  15.521 -0.1373 -0.4982 -0.5934
 7752TIP3    H144747   4.871   0.659  15.514  0.0506 -0.3384 -0.5719
 7752TIP3    H244748   4.862   0.810  15.518 -0.3872 -0.3409 -1.2283
 7753TIP3   OH244749   3.086   5.365   4.865  0.1962  0.3950  0.5446
 7753TIP3    H144750   3.017   5.430   4.853 -0.6789 -1.0894 -4.3910
 7753TIP3    H244751   3.042   5.281   4.859  2.2073 -0.6026 -1.9002
 7754TIP3   OH244752   1.734   4.986   5.816 -0.0254  0.3212  0.7301
 7754TIP3    H144753   1.685   4.961   5.738 -1.9425 -0.7421  2.2042
 7754TIP3    H244754   1.758   5.078   5.800 -0.5822  0.2207 -0.9708
 7755TIP3   OH244755   6.457   2.710   5.721 -0.1700 -0.5091  0.0338
 7755TIP3    H144756   6.536   2.663   5.693  0.0738 -1.1247  1.6740
 7755TIP3    H244757   6.445   2.686   5.813 -1.2161  1.0341  0.3502
 7756TIP3   OH244758   5.254   2.867  13.231  0.0235  0.6157  0.3996
 7756TIP3    H144759   5.250   2.823  13.316 -0.9386  0.1321  0.1174
 7756TIP3    H244760   5.215   2.953  13.248  0.1857  0.6650  0.5302
 7757TIP3   OH244761   4.692   5.873   2.469 -0.2452 -0.7544  0.2725
 7757TIP3    H144762   4.664   5.962   2.450 -0.5291 -0.5613  1.4637
 7757TIP3    H244763   4.773   5.862   2.419 -1.3416 -0.6044 -1.5855
 7758TIP3   OH244764   3.645   4.396   6.195 -0.1285  0.3135 -0.0193
 7758TIP3    H144765   3.731   4.433   6.176  0.2756 -1.0931 -1.0822
 7758TIP3    H244766   3.593   4.414   6.116  0.0303 -1.1876 -0.4978
 7759TIP3   OH244767   2.311   0.221   5.941  0.1719  0.2042 -0.1924
 7759TIP3    H144768   2.250   0.181   5.879  0.8436 -0.4669 -0.4273
 7759TIP3    H244769   2.255   0.254   6.012 -0.3708 -1.6239  0.2709
 7760TIP3   OH244770   0.270   1.246   1.711 -0.2803  0.2674  0.2317
 7760TIP3    H144771   0.362   1.217   1.712 -0.7372 -1.3138  1.0241
 7760TIP3    H244772   0.238   1.219   1.625  0.1885  1.5576 -0.3676
 7761TIP3   OH244773   5.096   4.481  15.796 -0.2603 -0.8312 -0.7016
 7761TIP3    H144774   5.024   4.419  15.808 -0.4541 -0.5152 -0.1884
 7761TIP3    H244775   5.097   4.497  15.701 -0.6009 -1.1511 -0.7641
 7762TIP3   OH244776   4.751   5.446   1.267 -0.3130  0.1616  0.5606
 7762TIP3    H144777   4.721   5.418   1.354  0.1619  1.4718  1.1660
 7762TIP3    H244778   4.672   5.447   1.213 -0.6076 -0.6976  0.9498
 7763TIP3   OH244779   1.034   3.878   2.226 -0.4845 -0.2386  0.1270
 7763TIP3    H144780   1.058   3.969   2.208  0.5903 -0.6511 -0.5593
 7763TIP3    H244781   0.943   3.883   2.256 -1.1337  0.8615 -1.8741
 7764TIP3   OH244782   1.582   5.249   4.916 -0.0525  0.2865 -0.1695
 7764TIP3    H144783   1.616   5.214   4.999  0.1325  2.2202  0.6275
 7764TIP3    H244784   1.637   5.326   4.899 -0.6797  0.4308 -1.6198
 7765TIP3   OH244785   4.013   2.381   1.200  0.0540  0.0138 -0.3316
 7765TIP3    H144786   4.046   2.458   1.248  1.1599 -0.3365 -0.5018
 7765TIP3    H244787   4.090   2.345   1.157 -0.3086 -1.6006  0.2949
 7766TIP3   OH244788   3.422   4.458  15.248  0.9542  0.0188  0.0669
 7766TIP3    H144789   3.508   4.474  15.285 -0.5841  2.0809  3.1602
 7766TIP3    H244790   3.390   4.380  15.294  0.3850  0.5195  0.5410
 7767TIP3   OH244791   3.565   1.238  14.375  0.1271  1.2802  0.4774
 7767TIP3    H144792   3.510   1.193  14.311  0.3983  1.6238 -0.0041
 7767TIP3    H244793   3.623   1.170  14.410  0.0571  1.1141  0.2708
 7768TIP3   OH244794   2.921   6.392   2.261  0.4296 -0.5113 -0.3309
 7768TIP3    H144795   2.842   6.338   2.257  0.3004 -0.2505 -2.0330
 7768TIP3    H244796   2.926   6.420   2.352 -1.8042  0.0030 -0.3186
 7769TIP3   OH244797   1.795   5.008  11.176 -0.0140 -0.5916 -0.7209
 7769TIP3    H144798   1.821   4.983  11.265 -1.9512  0.8250  0.3082
 7769TIP3    H244799   1.821   4.934  11.122  0.2244 -1.9828  1.1926
 7770TIP3   OH244800   4.458   4.438  16.304 -0.3217 -0.6344  0.7132
 7770TIP3    H144801   4.475   4.419  16.396 -0.7225  1.4759  1.2762
 7770TIP3    H244802   4.474   4.532  16.295 -0.6852 -0.7103 -1.2884
 7771TIP3   OH244803   0.019   6.291  14.163 -0.2499  0.1007 -0.0039
 7771TIP3    H144804  -0.048   6.274  14.097 -0.3362 -0.4439  0.2172
 7771TIP3    H244805  -0.002   6.378  14.196  0.0764  0.5786 -1.0201
 7772TIP3   OH244806   3.510   5.320  15.658 -0.0590 -0.0868 -0.1936
 7772TIP3    H144807   3.500   5.390  15.594  0.2831  3.1511  3.0081
 7772TIP3    H244808   3.604   5.299  15.657 -0.2264 -0.8980 -1.4410
 7773TIP3   OH244809   4.915   4.287  17.415 -0.1697  0.7338  0.0428
 7773TIP3    H144810   4.849   4.276  17.484 -0.2540  0.7481 -0.0339
 7773TIP3    H244811   4.969   4.360  17.444  0.9839 -0.4625  1.0291
 7774TIP3   OH244812   0.918   3.465  10.932  0.2539  0.3297  0.2900
 7774TIP3    H144813   0.921   3.545  10.879  3.0338  1.1853  1.5635
 7774TIP3    H244814   1.008   3.432  10.931 -0.7681 -2.7445 -0.0148
 7775TIP3   OH244815   0.099   3.497  12.425 -0.0174 -0.8699  0.6217
 7775TIP3    H144816   0.128   3.588  12.421 -2.0424 -0.2196 -1.0159
 7775TIP3    H244817   0.039   3.495  12.500  0.2227 -0.9383  0.8149
 7776TIP3   OH244818   0.853   4.206   3.685 -0.2284  0.0603  0.2344
 7776TIP3    H144819   0.847   4.211   3.780 -0.8115  1.6983  0.1602
 7776TIP3    H244820   0.775   4.158   3.658 -1.6351  2.0540  0.4899
 7777TIP3   OH244821   3.557   0.152  12.442 -0.0121 -0.5587 -0.0173
 7777TIP3    H144822   3.466   0.183  12.449  0.0747 -0.4431  0.7209
 7777TIP3    H244823   3.608   0.218  12.490  0.4722 -0.5821 -0.4962
 7778TIP3   OH244824   3.999   1.816  13.874 -0.2929  0.2326  0.2186
 7778TIP3    H144825   4.084   1.858  13.877  0.3815 -1.0674 -0.0042
 7778TIP3    H244826   3.994   1.778  13.786 -0.3478 -1.1898  0.8109
 7779TIP3   OH244827   6.192   3.796  15.169 -0.0892  0.9474  0.1493
 7779TIP3    H144828   6.152   3.883  15.163  0.5490  1.2172 -0.2980
 7779TIP3    H244829   6.273   3.804  15.120  0.5691  0.4335  1.1297
 7780TIP3   OH244830   1.203   2.929   2.476  0.0364  0.1846 -0.6599
 7780TIP3    H144831   1.289   2.909   2.513 -0.7093  0.2556  1.2277
 7780TIP3    H244832   1.217   3.006   2.422  0.9789  0.8874  0.5434
 7781TIP3   OH244833   1.650   2.182   2.086 -0.4882 -0.2486 -0.8667
 7781TIP3    H144834   1.686   2.255   2.035  1.2244 -1.2168 -1.0825
 7781TIP3    H244835   1.713   2.167   2.156 -1.8812 -0.1800  0.4555
 7782TIP3   OH244836   3.726   5.083  13.159  0.2818  0.9044  0.4841
 7782TIP3    H144837   3.644   5.063  13.203 -0.7661 -0.0558 -1.7661
 7782TIP3    H244838   3.729   5.179  13.156  0.2148  0.9921  2.2253
 7783TIP3   OH244839   4.847   2.475   4.489 -0.1078  0.4228  0.5041
 7783TIP3    H144840   4.932   2.514   4.512  0.8491 -1.5053  0.4880
 7783TIP3    H244841   4.856   2.452   4.396 -0.4518 -0.2212  0.6231
 7784TIP3   OH244842   3.781   4.128  16.368 -0.1234 -0.3452  0.0952
 7784TIP3    H144843   3.701   4.078  16.351 -0.7330  1.3957 -2.8002
 7784TIP3    H244844   3.751   4.216  16.390  0.9482  0.4414 -1.4041
 7785TIP3   OH244845   6.491   0.746   0.181  0.1093  0.0997  0.1164
 7785TIP3    H144846   6.566   0.697   0.216  1.9608  0.5968 -2.7780
 7785TIP3    H244847   6.427   0.746   0.252  1.8894 -2.3985  1.9096
 7786TIP3   OH244848   4.145   0.281   0.867  0.1872  0.1419 -0.3647
 7786TIP3    H144849   4.080   0.315   0.929  0.7338  0.2620  0.1570
 7786TIP3    H244850   4.107   0.296   0.781  0.0055  1.2470 -0.1099
 7787TIP3   OH244851   1.695   4.686  12.385  0.7064 -0.0298 -0.2180
 7787TIP3    H144852   1.767   4.628  12.413 -1.0037 -1.5787  1.2889
 7787TIP3    H244853   1.665   4.727  12.466 -1.6595 -1.3413 -0.3433
 7788TIP3   OH244854   0.959   4.925   0.239  0.7469  0.1180  0.7440
 7788TIP3    H144855   0.927   4.910   0.150  2.2114  1.2134 -0.0111
 7788TIP3    H244856   0.880   4.940   0.291 -0.2268 -1.8804 -0.0643
 7789TIP3   OH244857   4.412   0.429  13.326 -0.1335  0.3440  0.4468
 7789TIP3    H144858   4.465   0.364  13.280  2.4547  1.8028  1.1676
 7789TIP3    H244859   4.377   0.382  13.402  0.9665 -0.4529  0.4866
 7790TIP3   OH244860   5.008   0.227   0.897 -0.3373 -0.4051  0.1772
 7790TIP3    H144861   4.976   0.183   0.818 -2.2211 -1.0575  1.2464
 7790TIP3    H244862   4.932   0.231   0.955  0.6751  1.1875  1.4869
 7791TIP3   OH244863   5.449   4.445  16.863  0.0530 -0.4689 -0.2940
 7791TIP3    H144864   5.416   4.497  16.937  0.8201  0.4522 -0.5784
 7791TIP3    H244865   5.378   4.448  16.799 -0.6090 -1.2556  0.3911
 7792TIP3   OH244866   3.246   1.702  11.419 -0.2867 -0.3189  0.2414
 7792TIP3    H144867   3.331   1.665  11.394  0.3216  1.0248  0.2308
 7792TIP3    H244868   3.197   1.704  11.337  0.1299  0.0597 -0.0018
 7793TIP3   OH244869   4.943   5.612  14.658  0.7765  0.0904  0.8904
 7793TIP3    H144870   5.036   5.623  14.679  0.6039  1.3289  1.0388
 7793TIP3    H244871   4.929   5.669  14.583  0.0607  0.1601  1.0738
 7794TIP3   OH244872   3.192   0.419  11.938 -0.8119 -0.0467  0.1530
 7794TIP3    H144873   3.196   0.329  11.907  1.3176  0.8038 -2.4108
 7794TIP3    H244874   3.195   0.412  12.034  0.1836 -2.6591 -0.0010
 7795TIP3   OH244875   0.662   0.500   4.733  0.1381  0.0402  0.0277
 7795TIP3    H144876   0.695   0.509   4.643  3.2962 -0.3403  1.0402
 7795TIP3    H244877   0.730   0.452   4.779 -0.9522  1.0111  2.8838
 7796TIP3   OH244878   2.101   1.244  12.485  0.5841 -0.3377  0.6094
 7796TIP3    H144879   2.085   1.327  12.439  2.1740 -1.0700 -1.4480
 7796TIP3    H244880   2.082   1.263  12.577 -0.9728  1.7488 -0.0526
 7797TIP3   OH244881   1.945   1.788   1.650 -0.0768 -0.2611 -0.6079
 7797TIP3    H144882   1.943   1.856   1.717 -0.7359 -0.3974 -0.4850
 7797TIP3    H244883   1.945   1.706   1.699 -0.6912 -0.3616 -0.7780
 7798TIP3   OH244884   5.158   2.710  11.564  0.4416  0.6778  0.5730
 7798TIP3    H144885   5.131   2.684  11.476 -0.3552  2.1803  0.3535
 7798TIP3    H244886   5.254   2.706  11.562  0.4152 -2.0419  0.5398
 7799TIP3   OH244887   5.174   5.480   1.958 -0.4944  0.1687 -1.0451
 7799TIP3    H144888   5.155   5.422   1.885 -0.6679 -3.1693  1.4294
 7799TIP3    H244889   5.249   5.531   1.929 -0.3933 -1.1786 -3.4148
 7800TIP3   OH244890   5.539   1.249   4.789  0.3121 -0.1862  0.1012
 7800TIP3    H144891   5.546   1.343   4.801 -2.5178  0.3095 -1.3588
 7800TIP3    H244892   5.622   1.214   4.821  0.9349  2.6532  1.8576
 7801TIP3   OH244893   2.315   0.058   4.366 -0.2806 -0.0542  0.2437
 7801TIP3    H144894   2.358   0.057   4.280  0.9936 -0.1797  0.8547
 7801TIP3    H244895   2.378   0.101   4.424 -0.8373 -0.5639  1.2572
 7802TIP3   OH244896   4.971   6.601  17.321  0.5772  0.4374 -0.7329
 7802TIP3    H144897   5.066   6.596  17.328  0.6569  0.8168 -1.4472
 7802TIP3    H244898   4.952   6.693  17.306  0.0524  0.4404 -0.1200
 7803TIP3   OH244899   4.410   4.719   4.522  0.5355 -0.1461  0.0883
 7803TIP3    H144900   4.420   4.624   4.524  0.3236 -0.1923 -0.9142
 7803TIP3    H244901   4.329   4.736   4.571  2.0080 -0.2341  2.7494
 7804TIP3   OH244902   1.778   0.590   2.412 -0.4224 -0.7115 -0.4355
 7804TIP3    H144903   1.690   0.599   2.377  0.8587  1.3385 -3.5862
 7804TIP3    H244904   1.817   0.520   2.360  1.1115  1.4862 -2.4543
 7805TIP3   OH244905   0.316   5.791   2.447  0.7605 -0.8185 -0.0042
 7805TIP3    H144906   0.293   5.739   2.524 -1.4574  2.2772  1.6909
 7805TIP3    H244907   0.240   5.785   2.390  0.9753 -0.3967 -0.3437
 7806TIP3   OH244908   2.550   3.765   2.875 -0.6161  0.7555 -0.0106
 7806TIP3    H144909   2.527   3.675   2.852 -0.5435  0.1409  2.0740
 7806TIP3    H244910   2.502   3.819   2.813  0.5236 -0.7236 -2.3074
 7807TIP3   OH244911   0.784   3.838   0.023 -0.3969 -0.1257  0.2435
 7807TIP3    H144912   0.780   3.744   0.039  1.0182 -0.2375  0.1227
 7807TIP3    H244913   0.837   3.872   0.096  0.6332  0.2883 -0.6632
 7808TIP3   OH244914   2.854   1.927  16.671  0.0458  0.1759  0.2158
 7808TIP3    H144915   2.862   2.006  16.725  0.7825 -0.0716  0.4809
 7808TIP3    H244916   2.834   1.960  16.583 -2.9064  0.5433  0.8937
 7809TIP3   OH244917   3.186   0.879   1.214  0.6527  0.2762 -0.3504
 7809TIP3    H144918   3.174   0.952   1.154  0.5082  0.6470  0.1224
 7809TIP3    H244919   3.222   0.918   1.293  1.2211 -0.2631 -0.3294
 7810TIP3   OH244920   4.614   3.947   6.818  0.0978  0.4626  0.0436
 7810TIP3    H144921   4.652   3.977   6.900 -1.0398 -1.2236  1.2507
 7810TIP3    H244922   4.676   3.881   6.785  0.4021  0.9190 -0.3100
 7811TIP3   OH244923   1.030   1.137   1.920 -0.1783  0.2440  0.3411
 7811TIP3    H144924   0.958   1.197   1.903  0.4643  0.9833  0.1611
 7811TIP3    H244925   0.991   1.065   1.971 -1.2725  0.0139 -0.7994
 7812TIP3   OH244926   3.621   3.353   4.941  0.0670  0.0039  0.0580
 7812TIP3    H144927   3.533   3.389   4.929  1.0604  2.6038  0.1160
 7812TIP3    H244928   3.640   3.366   5.034  0.6163 -0.3623  0.0022
 7813TIP3   OH244929   0.311   3.560  16.374 -0.3742  0.1439 -0.5245
 7813TIP3    H144930   0.390   3.551  16.426  0.6550  2.2002 -1.5978
 7813TIP3    H244931   0.259   3.482  16.394  1.2734 -0.5525  1.2797
 7814TIP3   OH244932   4.292   5.997  12.072 -0.6649  0.1962  0.2412
 7814TIP3    H144933   4.286   5.935  12.000  0.5334 -0.2322  0.4931
 7814TIP3    H244934   4.287   5.943  12.151  1.7363  0.2283  0.4699
 7815TIP3   OH244935   2.785   1.277   4.083 -0.0497  0.3470 -0.3948
 7815TIP3    H144936   2.856   1.339   4.102  1.0447 -0.6359 -1.1230
 7815TIP3    H244937   2.708   1.317   4.123  0.6292  2.1048 -0.7034
 7816TIP3   OH244938   0.035   2.638  12.919  0.7718  0.0854  0.2003
 7816TIP3    H144939  -0.006   2.557  12.950 -3.9705  2.1156  0.0928
 7816TIP3    H244940   0.059   2.684  12.999 -0.7184  0.4066  0.4957
 7817TIP3   OH244941   1.853   3.311   5.483 -0.2130  0.0922  0.1681
 7817TIP3    H144942   1.823   3.331   5.394  0.5237  0.8876  0.0810
 7817TIP3    H244943   1.772   3.304   5.533 -0.6219  0.3000 -0.4384
 7818TIP3   OH244944   6.455   4.266   1.520 -0.3103 -0.0882 -0.4196
 7818TIP3    H144945   6.413   4.300   1.599 -1.2268  1.3802 -1.4750
 7818TIP3    H244946   6.388   4.211   1.479 -0.1135 -0.2117 -0.5765
 7819TIP3   OH244947   5.265   6.651   0.444  0.1531  0.3189  0.2091
 7819TIP3    H144948   5.211   6.655   0.365 -1.7248  1.7029  1.4737
 7819TIP3    H244949   5.352   6.678   0.415  0.0828 -1.3324 -1.7811
 7820TIP3   OH244950   3.904   6.253   3.395 -0.2126  0.3858  0.0312
 7820TIP3    H144951   3.931   6.311   3.324  0.8796  0.2710  0.3361
 7820TIP3    H244952   3.893   6.167   3.353  2.1014 -0.0808  0.2483
 7821TIP3   OH244953   1.116   0.591   0.853 -0.6429 -0.1367 -0.1703
 7821TIP3    H144954   1.185   0.528   0.874  1.3220  1.6143 -0.9939
 7821TIP3    H244955   1.035   0.546   0.875  0.7633 -2.1072  1.3842
 7822TIP3   OH244956   6.059   4.528   3.093 -0.2422  0.3390 -0.3028
 7822TIP3    H144957   6.010   4.600   3.135  0.9092  1.1195 -0.2506
 7822TIP3    H244958   6.148   4.562   3.083  0.5269 -1.3596  0.3880
 7823TIP3   OH244959   6.390   1.082  12.178 -0.3170  0.0088 -0.0591
 7823TIP3    H144960   6.440   1.002  12.161  0.5301  0.7580 -1.2655
 7823TIP3    H244961   6.382   1.085  12.273 -0.2754 -1.4428  0.0151
 7824TIP3   OH244962   1.140   0.547  17.206 -0.0710  0.1404  0.0274
 7824TIP3    H144963   1.167   0.635  17.230 -1.0609  0.5395 -0.3076
 7824TIP3    H244964   1.215   0.511  17.159  0.3544  0.7778  0.2085
 7825TIP3   OH244965   4.395   2.092   6.159 -0.2753  0.1162 -0.1042
 7825TIP3    H144966   4.462   2.024   6.162  0.5363  0.8952  2.2021
 7825TIP3    H244967   4.441   2.171   6.131 -0.4005  0.4651  0.6438
 7826TIP3   OH244968   3.609   4.051  11.213  0.3878  0.2072 -0.6200
 7826TIP3    H144969   3.625   4.138  11.177  0.4666  0.7768  0.7366
 7826TIP3    H244970   3.513   4.043  11.212  0.4175 -0.3740 -2.2385
 7827TIP3   OH244971   2.381   0.033  17.193 -0.4882  0.3045 -0.2361
 7827TIP3    H144972   2.341  -0.053  17.203  0.2369  0.0416  0.6271
 7827TIP3    H244973   2.433   0.045  17.273 -0.5595  1.5361 -0.3463
 7828TIP3   OH244974   1.911   1.057   6.162 -0.5026  0.3022  1.0191
 7828TIP3    H144975   1.974   0.992   6.195  1.5403  0.8254 -1.5515
 7828TIP3    H244976   1.826   1.015   6.174  0.6450 -2.3602  0.6169
 7829TIP3   OH244977   0.974   6.166   3.487 -0.0800  0.0826 -0.1864
 7829TIP3    H144978   1.036   6.209   3.428 -1.0270 -0.4021 -1.5744
 7829TIP3    H244979   0.964   6.078   3.451 -2.0184  0.3271 -0.3511
 7830TIP3   OH244980   3.284   4.229   2.154  0.1557  0.5032 -0.0341
 7830TIP3    H144981   3.207   4.233   2.098  0.9276 -0.1101 -1.1641
 7830TIP3    H244982   3.354   4.270   2.103  0.3552  2.0837  1.4187
 7831TIP3   OH244983   5.811   1.815  13.736  0.5584  0.5225 -0.3498
 7831TIP3    H144984   5.905   1.799  13.743  0.2198 -1.1012  1.0565
 7831TIP3    H244985   5.802   1.909  13.751  1.9127  0.6116  0.0452
 7832TIP3   OH244986   2.035   6.323  13.762 -0.3137  0.2829  0.3534
 7832TIP3    H144987   2.009   6.281  13.844 -1.5622  1.3899  0.5614
 7832TIP3    H244988   2.057   6.251  13.703  0.8363 -0.5229  1.7121
 7833TIP3   OH244989   0.002   5.372   5.831  0.1191 -0.3087 -0.2405
 7833TIP3    H144990   0.028   5.433   5.899  2.4553 -1.3550 -0.1170
 7833TIP3    H244991  -0.016   5.427   5.755 -0.0804  0.6695  0.4984
 7834TIP3   OH244992   1.273   4.489  14.109 -0.2322  0.1405  0.3653
 7834TIP3    H144993   1.204   4.537  14.155 -0.7277 -0.3573  0.1557
 7834TIP3    H244994   1.319   4.556  14.059 -1.1820  0.3536 -0.2584
 7835TIP3   OH244995   3.254   3.903  12.478 -0.0762  0.3980 -0.0355
 7835TIP3    H144996   3.202   3.849  12.538  0.9019 -0.5433 -0.0124
 7835TIP3    H244997   3.203   3.984  12.468 -0.7319  0.1679  1.2774
 7836TIP3   OH244998   5.809   5.621  16.968  0.7139 -0.4571 -0.2422
 7836TIP3    H144999   5.779   5.566  17.040  0.2547  0.5695  0.3697
 7836TIP3    H245000   5.741   5.613  16.900  1.3098 -1.6846 -0.7171
 7837TIP3   OH245001   3.615   2.531   0.972  0.0284  0.4712  0.2557
 7837TIP3    H145002   3.676   2.546   0.900  0.3794  0.4626  0.5505
 7837TIP3    H245003   3.641   2.595   1.039 -0.6230  0.8371  0.1737
 7838TIP3   OH245004   2.353   0.805   5.962  0.1831 -0.1325 -0.3725
 7838TIP3    H145005   2.297   0.876   5.931 -1.1206 -1.0892 -0.2672
 7838TIP3    H245006   2.433   0.814   5.910  0.1614  1.5571 -0.1771
 7839TIP3   OH245007   0.932   6.090  13.575  0.0641 -0.3662 -0.1175
 7839TIP3    H145008   0.921   6.066  13.483  1.1938 -1.3992 -0.0187
 7839TIP3    H245009   0.882   6.024  13.623 -1.3370  0.7474 -0.0035
 7840TIP3   OH245010   3.148   0.398   4.699 -0.5033  0.1713  0.2464
 7840TIP3    H145011   3.057   0.406   4.668 -0.2595 -0.0882 -0.5578
 7840TIP3    H245012   3.141   0.344   4.777 -1.1206  0.7464  0.6107
 7841TIP3   OH245013   1.646   3.009   5.448 -0.2405 -0.8141  0.3090
 7841TIP3    H145014   1.578   2.968   5.501 -0.4531  1.2715  1.7706
 7841TIP3    H245015   1.716   3.029   5.511  0.8090 -0.9943 -0.7731
 7842TIP3   OH245016   6.045   1.023   2.620  0.1555  0.1300  0.3441
 7842TIP3    H145017   6.126   1.026   2.569  0.3321 -2.5724  0.3331
 7842TIP3    H245018   6.010   0.935   2.604  0.3047 -1.0004  4.9923
 7843TIP3   OH245019   2.226   6.692  15.920  0.3730 -0.6569  0.0979
 7843TIP3    H145020   2.170   6.769  15.910  2.0824  0.6624  0.2353
 7843TIP3    H245021   2.167   6.624  15.953 -1.5142  0.1041 -1.5010
 7844TIP3   OH245022   4.187   2.476   5.183 -0.2163 -0.2052  0.0144
 7844TIP3    H145023   4.194   2.566   5.215  1.8596 -0.8598  1.6647
 7844TIP3    H245024   4.159   2.426   5.259 -2.1133 -0.9085 -1.0812
 7845TIP3   OH245025   6.358   1.646   3.633 -0.2473 -0.0207 -0.0136
 7845TIP3    H145026   6.441   1.669   3.591 -0.8809  0.8793 -0.8149
 7845TIP3    H245027   6.381   1.574   3.693  0.6902 -1.3710 -1.8966
 7846TIP3   OH245028   4.033   1.244   5.652 -0.5909  1.1107 -0.5654
 7846TIP3    H145029   4.128   1.249   5.640 -0.6240  0.2046 -1.2829
 7846TIP3    H245030   4.019   1.282   5.739  0.5932 -0.0855  0.1945
 7847TIP3   OH245031   0.221   4.337  14.572 -0.1286  0.3007 -0.1973
 7847TIP3    H145032   0.264   4.260  14.535 -1.1492  0.5017 -1.9406
 7847TIP3    H245033   0.163   4.368  14.502  0.8883  3.1835  0.0905
 7848TIP3   OH245034   6.036   3.159   1.332  0.1937 -0.2852  0.2424
 7848TIP3    H145035   5.951   3.159   1.288  0.7697 -0.5925 -0.9337
 7848TIP3    H245036   6.035   3.238   1.386 -0.1986  0.6623 -1.0827
 7849TIP3   OH245037   3.772   0.500   0.579 -0.2075  0.3638  0.2401
 7849TIP3    H145038   3.686   0.463   0.597 -0.1354  0.6620  1.2719
 7849TIP3    H245039   3.771   0.518   0.485 -1.4242  0.7424  0.3032
 7850TIP3   OH245040   0.091   1.097   4.146  0.1325 -0.2768 -0.3339
 7850TIP3    H145041   0.128   1.184   4.160  1.1139 -0.3326 -2.3116
 7850TIP3    H245042   0.160   1.037   4.171 -1.2696 -0.6914  3.2176
 7851TIP3   OH245043   4.601   0.294  12.628 -0.0694 -0.1459  0.1979
 7851TIP3    H145044   4.586   0.329  12.716  1.1703  2.9685 -0.7135
 7851TIP3    H245045   4.684   0.247  12.635  0.4807  0.8561  0.5131
 7852TIP3   OH245046   0.955   2.808  11.334 -0.6830 -0.4186 -0.8102
 7852TIP3    H145047   1.009   2.861  11.392  0.0370  0.1943 -2.0047
 7852TIP3    H245048   0.990   2.720  11.342  3.0942  0.4824 -4.2680
 7853TIP3   OH245049   0.003   2.793   5.367  0.7938  0.7538 -0.1361
 7853TIP3    H145050   0.018   2.883   5.339 -1.1053  1.1286 -0.0560
 7853TIP3    H245051   0.068   2.779   5.437  0.6120  2.3155  0.3801
 7854TIP3   OH245052   6.573   3.496   2.196  0.2799 -0.0917 -0.4102
 7854TIP3    H145053   6.614   3.409   2.190  0.5929  0.0880 -1.0127
 7854TIP3    H245054   6.484   3.479   2.226  0.6943 -0.5221  0.6017
 7855TIP3   OH245055   4.520   4.726   1.405  0.3456  0.2693  0.4326
 7855TIP3    H145056   4.494   4.634   1.394  1.3809 -0.2161  1.6593
 7855TIP3    H245057   4.508   4.743   1.498  0.2437  1.3611  0.2310
 7856TIP3   OH245058   0.995   0.211  11.796 -0.6106 -0.3916  0.1187
 7856TIP3    H145059   1.057   0.138  11.802  1.4683  1.2679  0.3588
 7856TIP3    H245060   0.941   0.203  11.874  0.0462 -1.2952  0.5041
 7857TIP3   OH245061   1.819   6.331  14.117 -0.1296  0.0447  0.7342
 7857TIP3    H145062   1.865   6.415  14.123 -1.0738  0.5977  0.5999
 7857TIP3    H245063   1.851   6.280  14.191 -0.3613  0.9604  1.4870
 7858TIP3   OH245064   4.385   5.253  13.613 -0.1709  0.1474 -0.1150
 7858TIP3    H145065   4.462   5.201  13.589 -0.8605 -1.1301  0.3214
 7858TIP3    H245066   4.313   5.190  13.610 -1.3160  1.4420 -1.1325
 7859TIP3   OH245067   1.352   4.063  12.263 -0.6029 -0.4806  0.4104
 7859TIP3    H145068   1.412   4.007  12.215 -0.8634 -0.3414 -0.0828
 7859TIP3    H245069   1.309   4.116  12.196  0.1464  0.8149  0.9064
 7860TIP3   OH245070   4.201   3.192   5.407 -0.1532  0.5365  0.0644
 7860TIP3    H145071   4.280   3.242   5.384  1.6135 -2.4869 -1.0518
 7860TIP3    H245072   4.229   3.138   5.481 -1.3710 -0.1834  0.0125
 7861TIP3   OH245073   3.211   0.564   5.656  0.1597 -1.0002  0.1450
 7861TIP3    H145074   3.206   0.534   5.566  1.3114  0.8147 -0.5779
 7861TIP3    H245075   3.218   0.660   5.650  0.0715 -0.8123  2.1554
 7862TIP3   OH245076   1.909   5.790  17.147 -0.1725  0.1776  0.2394
 7862TIP3    H145077   1.862   5.812  17.066  0.1770  2.1380  0.5201
 7862TIP3    H245078   2.001   5.809  17.128  0.0488 -0.3058  0.7909
 7863TIP3   OH245079   6.133   6.480  12.821 -0.5193  0.1868 -0.2321
 7863TIP3    H145080   6.228   6.477  12.813 -0.5893  1.6793 -2.3752
 7863TIP3    H245081   6.100   6.420  12.754 -1.0473  2.5059 -2.1904
 7864TIP3   OH245082   6.414   1.598   2.710  0.1739 -0.3817  0.5379
 7864TIP3    H145083   6.331   1.615   2.755 -1.0099 -1.6010 -1.0524
 7864TIP3    H245084   6.450   1.684   2.692 -0.7230  0.1742  1.2905
 7865TIP3   OH245085   5.675   2.037  13.258 -0.4182  0.3611 -0.1669
 7865TIP3    H145086   5.610   2.107  13.270 -1.7666 -1.0754  1.3346
 7865TIP3    H245087   5.637   1.981  13.190  0.4216  0.7919 -1.0077
 7866TIP3   OH245088   1.306   2.126  16.644  0.0109  0.4442  0.0383
 7866TIP3    H145089   1.235   2.190  16.633  1.3166  1.7903 -0.9501
 7866TIP3    H245090   1.300   2.070  16.567  0.6810  1.2479 -0.6091
 7867TIP3   OH245091   4.128   3.971  15.555 -0.1807 -0.4354 -0.2518
 7867TIP3    H145092   4.060   3.999  15.495  0.6300  1.3074 -0.4192
 7867TIP3    H245093   4.086   3.905  15.610 -1.9931  0.5816 -0.3434
 7868TIP3   OH245094   1.672   3.291  16.865  0.1671 -0.1114 -0.7237
 7868TIP3    H145095   1.730   3.314  16.792 -0.1037 -1.9419 -1.5788
 7868TIP3    H245096   1.657   3.197  16.854 -0.4495 -0.2913  1.3063
 7869TIP3   OH245097   3.949   3.420   4.220 -0.1957  0.1211  0.5675
 7869TIP3    H145098   4.017   3.352   4.223  0.5088  0.7976  0.2517
 7869TIP3    H245099   3.868   3.371   4.204  0.6023 -0.5160 -2.2624
 7870TIP3   OH245100   2.748   5.990  13.605 -0.4155  0.1941  0.3915
 7870TIP3    H145101   2.743   6.084  13.591 -1.4141  0.4701  2.2918
 7870TIP3    H245102   2.657   5.961  13.609 -0.1421 -1.1006 -1.3593
 7871TIP3   OH245103   0.382   0.210   5.250 -0.3543 -0.1795 -0.0659
 7871TIP3    H145104   0.360   0.118   5.232  1.2312 -0.6451  0.1758
 7871TIP3    H245105   0.437   0.236   5.176 -0.9975  0.6671 -0.2558
 7872TIP3   OH245106   0.572   0.175  14.776 -0.2378 -0.2322 -0.3626
 7872TIP3    H145107   0.630   0.247  14.750  0.6831 -0.3772  1.1570
 7872TIP3    H245108   0.535   0.204  14.860  1.4153 -2.1707  1.1188
 7873TIP3   OH245109   2.664   4.557   3.911 -0.3262 -0.0372 -0.3728
 7873TIP3    H145110   2.600   4.548   3.840 -0.9600 -0.2085  0.2029
 7873TIP3    H245111   2.741   4.595   3.870 -1.1474  1.0952 -0.9057
 7874TIP3   OH245112   4.913   6.329  16.401 -0.4889  0.0387 -0.5540
 7874TIP3    H145113   4.877   6.401  16.348 -0.4804 -0.4332 -1.2056
 7874TIP3    H245114   4.984   6.370  16.450 -0.9799  0.6539 -0.3386
 7875TIP3   OH245115   2.146   5.902   0.895 -0.0161 -0.3546  0.9732
 7875TIP3    H145116   2.121   5.854   0.816 -1.8144  0.6097  0.9121
 7875TIP3    H245117   2.183   5.984   0.863 -0.7542  0.0404  1.1224
 7876TIP3   OH245118   4.095   0.970   5.096 -0.4794  0.2095  0.0543
 7876TIP3    H145119   4.029   0.986   5.029 -2.4755  0.2304  1.9292
 7876TIP3    H245120   4.128   1.057   5.118 -1.9452  0.5203  1.1252
 7877TIP3   OH245121   3.848   5.306   5.488  0.1619 -0.1415 -0.2732
 7877TIP3    H145122   3.869   5.270   5.402  0.3936  1.3486 -0.8629
 7877TIP3    H245123   3.923   5.361   5.510  0.4779 -1.1239  1.2669
 7878TIP3   OH245124   1.456   6.202   4.422 -0.1515  0.0702 -0.3212
 7878TIP3    H145125   1.548   6.209   4.450 -0.4973  0.6933  0.7085
 7878TIP3    H245126   1.458   6.228   4.330  0.8704 -1.0754 -0.6571
 7879TIP3   OH245127   0.174   1.481   2.344 -0.3412 -0.6969 -0.6644
 7879TIP3    H145128   0.111   1.421   2.305 -0.2425 -1.0552 -0.2816
 7879TIP3    H245129   0.157   1.476   2.438  1.4189 -2.1563 -0.3649
 7880TIP3   OH245130   4.010   6.763   5.502 -0.8371 -0.1299 -0.3845
 7880TIP3    H145131   4.014   6.854   5.530 -1.4766 -0.3476  0.4532
 7880TIP3    H245132   4.100   6.740   5.479 -0.6765  0.7109 -0.6003
 7881TIP3   OH245133   3.602   2.289  13.482 -0.7536  0.1014 -0.1146
 7881TIP3    H145134   3.619   2.253  13.569 -0.7977 -0.8774 -0.4972
 7881TIP3    H245135   3.517   2.332  13.491  0.3008  2.1053  0.9299
 7882TIP3   OH245136   5.541   4.542  16.249 -1.1862 -0.5888 -0.4183
 7882TIP3    H145137   5.505   4.518  16.335 -0.3847 -1.4078 -0.3012
 7882TIP3    H245138   5.635   4.535  16.259 -0.9858  0.9128 -0.9174
 7883TIP3   OH245139   4.505   2.354   7.167  0.0808 -0.2150  0.3519
 7883TIP3    H145140   4.483   2.263   7.187  0.2605 -0.3099  0.1166
 7883TIP3    H245141   4.453   2.374   7.089  0.3690 -0.2496  0.1521
 7884TIP3   OH245142   5.354   3.423  11.686 -0.3610  0.0947  0.5763
 7884TIP3    H145143   5.404   3.473  11.622  0.3559 -1.7292 -0.3643
 7884TIP3    H245144   5.293   3.371  11.634 -1.8623  0.7698  1.5919
 7885TIP3   OH245145   1.407   2.747   2.563 -0.0234 -0.1985  0.0282
 7885TIP3    H145146   1.476   2.758   2.498 -1.7798 -0.9365 -2.0926
 7885TIP3    H245147   1.403   2.653   2.578  1.8074  0.0842  2.9900
 7886TIP3   OH245148   0.784   1.287  13.086 -0.7180 -0.2299  0.2808
 7886TIP3    H145149   0.868   1.333  13.092 -1.2794  0.8477  0.1890
 7886TIP3    H245150   0.787   1.222  13.156  0.7563 -1.1842 -0.6106
 7887TIP3   OH245151   3.938   5.625   5.357 -0.3096 -0.1551  0.7826
 7887TIP3    H145152   3.868   5.688   5.340 -0.3964 -0.7323 -1.3398
 7887TIP3    H245153   3.932   5.607   5.451 -1.9970  0.9875  0.9424
 7888TIP3   OH245154   3.468   6.003  15.250 -0.1868 -0.5590  1.0460
 7888TIP3    H145155   3.506   6.022  15.165 -0.4181  1.0651  1.2781
 7888TIP3    H245156   3.535   6.029  15.313 -0.2892 -1.1029  1.3956
 7889TIP3   OH245157   6.230   2.609  15.419  0.0183  0.1892  0.0143
 7889TIP3    H145158   6.178   2.542  15.374 -0.0511 -0.3225  0.8391
 7889TIP3    H245159   6.305   2.623  15.362 -0.3438 -0.0374 -0.5346
 7890TIP3   OH245160   3.912   1.903  13.458 -0.4153 -0.9091  0.9433
 7890TIP3    H145161   3.874   1.825  13.417  2.3420 -1.3045 -1.2175
 7890TIP3    H245162   3.865   1.976  13.419 -1.1586 -1.4233  0.8550
 7891TIP3   OH245163   6.671   4.299  17.159 -0.5920  0.0802  0.4371
 7891TIP3    H145164   6.635   4.367  17.103 -0.3314 -0.6919 -0.7074
 7891TIP3    H245165   6.604   4.230  17.158 -0.2209 -0.2803  0.4178
 7892TIP3   OH245166   0.656   5.280  11.681  0.0468 -0.5783 -0.6507
 7892TIP3    H145167   0.686   5.191  11.703  0.5337  0.0449  1.4183
 7892TIP3    H245168   0.734   5.323  11.646 -0.5175 -1.3121 -2.9792
 7893TIP3   OH245169   1.325   6.101  16.886  0.4282 -0.9833 -0.3006
 7893TIP3    H145170   1.397   6.160  16.867  0.5125 -1.3892 -1.3038
 7893TIP3    H245171   1.246   6.151  16.866  0.3867 -0.4283  1.1009
 7894TIP3   OH245172   0.849   6.701   0.214 -0.2115 -0.3425  0.1300
 7894TIP3    H145173   0.779   6.683   0.276 -0.5241 -0.1904 -0.1791
 7894TIP3    H245174   0.929   6.673   0.259 -0.3107  0.7376  1.0378
 7895TIP3   OH245175   4.334   2.370  14.931 -1.0179  0.2902  0.0620
 7895TIP3    H145176   4.384   2.330  15.001 -0.8189  1.2299  0.4804
 7895TIP3    H245177   4.302   2.452  14.969 -3.5172 -0.5925  0.0761
 7896TIP3   OH245178   2.837   5.093   4.408  0.9043 -0.0025 -0.3229
 7896TIP3    H145179   2.816   5.055   4.323  0.0686 -3.8290  1.3713
 7896TIP3    H245180   2.761   5.148   4.429  0.7952  0.4081 -1.6835
 7897TIP3   OH245181   3.419   1.849  14.980  0.2669  0.3450  0.3030
 7897TIP3    H145182   3.483   1.788  15.018  0.8314  0.5427 -0.3119
 7897TIP3    H245183   3.462   1.934  14.982  0.0933  0.4516 -0.2785
 7898TIP3   OH245184   3.471   5.946  12.143 -0.3449 -0.3923 -0.0606
 7898TIP3    H145185   3.541   5.898  12.099 -0.8005 -0.7817 -0.3728
 7898TIP3    H245186   3.390   5.901  12.116 -0.8513  0.9773 -0.9342
 7899TIP3   OH245187   4.772   1.695  14.029  0.7654  0.0634 -0.0610
 7899TIP3    H145188   4.753   1.787  14.047  1.1441  0.3990 -1.2834
 7899TIP3    H245189   4.694   1.664  13.982  0.9513 -0.0356 -0.3023
 7900TIP3   OH245190   2.775   5.000  11.516 -0.5733  0.3831 -0.2614
 7900TIP3    H145191   2.686   5.010  11.482  0.4818  0.7317 -3.2927
 7900TIP3    H245192   2.808   5.090  11.522  0.0627  0.1981 -0.7726
 7901TIP3   OH245193   0.539   5.219   4.987  0.5958 -0.3869  0.2407
 7901TIP3    H145194   0.468   5.250   5.043  0.5187  0.1971 -0.1772
 7901TIP3    H245195   0.546   5.125   5.007 -2.8651 -1.4117 -2.5148
 7902TIP3   OH245196   6.324   0.750  15.812  0.2314 -0.4882 -0.1246
 7902TIP3    H145197   6.239   0.778  15.779  0.1067 -0.2040  0.4138
 7902TIP3    H245198   6.366   0.707  15.738 -0.1250 -0.0722 -0.5773
 7903TIP3   OH245199   2.592   6.691   1.664 -0.4941 -0.1537 -0.7414
 7903TIP3    H145200   2.586   6.728   1.753 -0.1913 -1.3538 -0.2092
 7903TIP3    H245201   2.675   6.724   1.631 -0.4169 -0.0231 -0.4306
 7904TIP3   OH245202   0.812   2.097  11.073 -0.2839 -0.1589 -0.0807
 7904TIP3    H145203   0.798   2.162  11.142 -0.1591  0.9754 -1.0758
 7904TIP3    H245204   0.725   2.065  11.052 -0.2433 -1.1292  1.1563
 7905TIP3   OH245205   1.673   6.226  15.119 -0.6089 -0.1229  0.1085
 7905TIP3    H145206   1.688   6.316  15.092 -2.7295  0.9383  2.0978
 7905TIP3    H245207   1.645   6.181  15.039 -1.2616  1.4524 -0.5781
 7906TIP3   OH245208   3.735   0.831  16.119 -0.2915 -0.1199  0.0847
 7906TIP3    H145209   3.685   0.796  16.194  1.5774 -2.4752  0.3455
 7906TIP3    H245210   3.824   0.843  16.153  0.1369  0.7063 -1.2642
 7907TIP3   OH245211   0.211   2.036   3.556 -0.1411 -0.2625  0.3875
 7907TIP3    H145212   0.220   2.115   3.609 -1.1619 -1.0762  1.8493
 7907TIP3    H245213   0.117   2.030   3.538 -0.0783 -1.1076  0.2790
 7908TIP3   OH245214   2.427   6.163   3.458  0.7417 -0.3274  0.2136
 7908TIP3    H145215   2.466   6.223   3.395 -1.6866 -0.2037 -1.2921
 7908TIP3    H245216   2.412   6.217   3.536 -0.2946  0.7408 -0.6905
 7909TIP3   OH245217   6.514   2.366   1.033 -0.3601 -0.0647  0.0995
 7909TIP3    H145218   6.440   2.408   1.077 -1.9002 -2.1017 -0.3984
 7909TIP3    H245219   6.474   2.308   0.968  1.7018 -1.0335 -0.4005
 7910TIP3   OH245220   0.988   1.068  16.206  0.1895 -0.2371  0.1761
 7910TIP3    H145221   1.078   1.037  16.198  0.9821  1.6429  1.2083
 7910TIP3    H245222   0.944   1.000  16.257  1.2865 -0.6664  0.5871
 7911TIP3   OH245223   4.948   1.056   4.358  0.2874 -0.6295  0.3151
 7911TIP3    H145224   4.947   0.990   4.288 -2.6405 -0.3749  0.0091
 7911TIP3    H245225   4.970   1.138   4.313 -2.6989 -0.2521 -0.6547
 7912TIP3   OH245226   6.235   3.296  11.341  0.0654 -0.5553 -0.0428
 7912TIP3    H145227   6.226   3.204  11.317 -0.7461 -0.2212 -1.0784
 7912TIP3    H245228   6.160   3.339  11.301  0.0194  0.4485  1.0567
 7913TIP3   OH245229   0.826   0.618  11.996  0.3092 -0.0169  0.0062
 7913TIP3    H145230   0.793   0.582  12.079 -0.1956  0.8376  0.1908
 7913TIP3    H245231   0.899   0.562  11.973 -0.1151 -0.8248  0.5673
 7914TIP3   OH245232   3.165   5.549  14.828 -0.2392  0.1207 -0.1742
 7914TIP3    H145233   3.091   5.572  14.885 -0.2791  0.5817 -0.4013
 7914TIP3    H245234   3.175   5.626  14.771  0.1888 -0.0870 -0.3795
 7915TIP3   OH245235   2.221   3.290  16.430  0.6585 -0.3503  0.1868
 7915TIP3    H145236   2.272   3.224  16.477  1.8885 -0.1858 -0.8482
 7915TIP3    H245237   2.132   3.282  16.465  0.9692 -1.9719  0.6781
 7916TIP3   OH245238   4.903   5.467  11.149  0.0698  0.6201 -0.4940
 7916TIP3    H145239   4.981   5.441  11.100  1.8599  2.2125  1.2827
 7916TIP3    H245240   4.864   5.537  11.097  0.2293  0.2843 -1.0720
 7917TIP3   OH245241   0.128   1.626  17.281  0.8325  0.4960  0.3590
 7917TIP3    H145242   0.068   1.558  17.250 -1.7300  2.1871  1.2156
 7917TIP3    H245243   0.182   1.647  17.205 -1.3029  0.4906 -1.2794
 7918TIP3   OH245244   0.311   1.402  11.114 -0.3770  0.1418 -0.6802
 7918TIP3    H145245   0.232   1.363  11.150  1.2419 -1.5735  1.2741
 7918TIP3    H245246   0.305   1.387  11.020 -1.1359 -2.4861 -0.2787
 7919TIP3   OH245247   4.443   6.216   0.565 -1.1260  0.3313 -0.4806
 7919TIP3    H145248   4.429   6.203   0.659 -0.9873 -1.8711 -0.7091
 7919TIP3    H245249   4.356   6.234   0.531 -1.2814  0.4652 -0.0297
 7920TIP3   OH245250   0.778   4.934   0.731  0.4776 -0.0184 -0.5618
 7920TIP3    H145251   0.701   4.926   0.675  0.2219 -2.4086 -0.0049
 7920TIP3    H245252   0.759   5.007   0.789 -1.6411 -0.8732 -0.0971
 7921TIP3   OH245253   2.727   4.490  17.121 -0.2784 -0.6741  0.0552
 7921TIP3    H145254   2.756   4.581  17.109 -1.7535 -0.1200  0.5020
 7921TIP3    H245255   2.790   4.439  17.070  0.6885  0.5710 -0.0675
 7922TIP3   OH245256   2.772   0.821   5.188 -0.3711  0.2124 -0.0017
 7922TIP3    H145257   2.797   0.880   5.259 -2.4373  2.2462 -0.8481
 7922TIP3    H245258   2.700   0.769   5.224 -0.5093  0.2778 -0.1829
 7923TIP3   OH245259   6.365   4.742  16.538 -0.1443 -0.6809  0.2785
 7923TIP3    H145260   6.310   4.803  16.489  0.0826  0.4088  1.3419
 7923TIP3    H245261   6.414   4.695  16.471  0.8246  1.3896 -0.5521
 7924TIP3   OH245262   3.422   0.808  12.834  0.7230  0.4244  0.2408
 7924TIP3    H145263   3.327   0.807  12.826  0.8231 -1.4911 -2.4815
 7924TIP3    H245264   3.446   0.901  12.834 -1.0778  0.9489 -1.2497
 7925TIP3   OH245265   5.103   3.884   0.839  0.9171  0.2059  0.2160
 7925TIP3    H145266   5.152   3.807   0.869 -0.1002 -1.3039 -1.8068
 7925TIP3    H245267   5.030   3.891   0.901  0.0925 -1.5239 -0.4746
 7926TIP3   OH245268   1.219   2.586  15.191 -0.0996  0.1246  0.4321
 7926TIP3    H145269   1.223   2.497  15.227 -2.2569  0.4543  1.6666
 7926TIP3    H245270   1.280   2.585  15.118  0.7554 -2.0506  1.1002
 7927TIP3   OH245271   0.342   3.509  17.455 -0.6505 -0.5073  0.4143
 7927TIP3    H145272   0.334   3.546  17.543 -1.2232  2.2281 -0.6745
 7927TIP3    H245273   0.369   3.583  17.400 -0.2524 -2.1284 -1.7139
 7928TIP3   OH245274   2.760   4.570   3.289  0.3628  0.1267  0.1437
 7928TIP3    H145275   2.675   4.604   3.319  0.3856 -0.4662  0.9248
 7928TIP3    H245276   2.801   4.536   3.369  0.8274 -0.6718 -0.4280
 7929TIP3   OH245277   0.092   3.436   6.646 -0.2038  1.1134  0.2810
 7929TIP3    H145278   0.003   3.468   6.658  0.0492  2.6349 -1.5161
 7929TIP3    H245279   0.129   3.434   6.734 -2.0224  0.3257  1.0707
 7930TIP3   OH245280   3.460   3.001   1.601 -0.0269 -0.0570  0.2378
 7930TIP3    H145281   3.381   3.046   1.573  1.3446  1.2923 -1.6776
 7930TIP3    H245282   3.502   3.062   1.663 -0.2482 -0.5820  0.9194
 7931TIP3   OH245283   5.752   2.332  13.001  0.2250 -0.1580  0.4219
 7931TIP3    H145284   5.792   2.318  12.915 -0.6214  0.8344 -0.1550
 7931TIP3    H245285   5.693   2.257  13.012 -0.9967  0.5923 -0.6829
 7932TIP3   OH245286   4.656   4.209   5.249  0.0764 -0.4446  0.4975
 7932TIP3    H145287   4.649   4.221   5.154  0.8440 -1.1080  0.3522
 7932TIP3    H245288   4.576   4.248   5.284 -0.1665 -0.1119 -0.4163
 7933TIP3   OH245289   2.204   3.265  13.778  0.0270  0.4346  0.5649
 7933TIP3    H145290   2.206   3.255  13.873 -0.0495  1.0165  0.6315
 7933TIP3    H245291   2.111   3.274  13.757  0.0274  0.0599  0.4114
 7934TIP3   OH245292   2.898   1.750   3.978  0.3677  0.2927 -0.2509
 7934TIP3    H145293   2.861   1.806   3.910  2.0358 -1.0407 -2.3876
 7934TIP3    H245294   2.992   1.751   3.962  0.8311 -0.1840  2.0114
 7935TIP3   OH245295   3.756   1.558   3.099 -0.4805 -0.2512  0.0444
 7935TIP3    H145296   3.790   1.644   3.127  1.3756 -1.0858  0.5363
 7935TIP3    H245297   3.720   1.574   3.012 -0.3230  1.0638  0.1976
 7936TIP3   OH245298   4.484   5.411  13.348 -0.0844 -0.3084 -0.2207
 7936TIP3    H145299   4.469   5.350  13.420  0.3260 -0.2549 -0.0856
 7936TIP3    H245300   4.562   5.378  13.304  0.6591  0.5975  0.3836
 7937TIP3   OH245301   0.285   5.944   1.578  0.5267 -0.4184  0.4110
 7937TIP3    H145302   0.251   5.856   1.562 -0.8505 -0.4309  2.8959
 7937TIP3    H245303   0.370   5.930   1.620  0.2601 -0.5961  0.9043
 7938TIP3   OH245304   5.242   3.696   4.890 -0.0132  0.1326 -0.0329
 7938TIP3    H145305   5.333   3.722   4.904  0.3769 -1.1392 -0.0471
 7938TIP3    H245306   5.238   3.673   4.797  0.0188 -1.0935  0.2498
 7939TIP3   OH245307   4.689   6.314  13.025 -0.7485 -0.1626 -0.3457
 7939TIP3    H145308   4.760   6.358  13.072 -1.0961 -0.7783  0.7898
 7939TIP3    H245309   4.661   6.377  12.959  0.1138  0.5140 -0.0862
 7940TIP3   OH245310   2.547   1.627   6.161 -0.3646 -0.3772  0.4687
 7940TIP3    H145311   2.635   1.594   6.180 -0.1865  0.1458  0.5519
 7940TIP3    H245312   2.497   1.611   6.241  0.0428  0.6419  0.9385
 7941TIP3   OH245313   1.028   0.450   0.534  0.0621  0.9071  0.2045
 7941TIP3    H145314   1.089   0.500   0.589 -1.2470  1.6274  1.0384
 7941TIP3    H245315   0.966   0.514   0.500 -0.7153  0.0854  0.0193
 7942TIP3   OH245316   4.181   3.806  11.759 -0.2734  0.2412  0.2605
 7942TIP3    H145317   4.210   3.859  11.833 -2.2074  1.2343  0.3554
 7942TIP3    H245318   4.106   3.757  11.791 -0.8137  0.2820 -0.8771
 7943TIP3   OH245319   5.935   4.881   0.644  0.0188  0.0362  0.0473
 7943TIP3    H145320   5.884   4.800   0.633  1.1040 -1.2011  3.0833
 7943TIP3    H245321   5.893   4.925   0.718  0.3055  1.6211 -0.6902
 7944TIP3   OH245322   4.567   0.640   5.240  0.9382 -0.1190 -0.0753
 7944TIP3    H145323   4.477   0.673   5.244 -0.4313 -3.4701  1.8782
 7944TIP3    H245324   4.581   0.620   5.147 -1.6224 -2.2231 -0.1513
 7945TIP3   OH245325   0.639   2.964  12.051 -0.1631 -0.0239  0.1827
 7945TIP3    H145326   0.678   3.051  12.059  0.1091 -0.1283  0.0264
 7945TIP3    H245327   0.546   2.977  12.069 -0.1410  0.3156  0.0617
 7946TIP3   OH245328   4.013   2.270  13.103  0.4715 -0.3545 -0.8278
 7946TIP3    H145329   4.038   2.295  13.014  0.5862  0.1784 -0.6559
 7946TIP3    H245330   3.970   2.349  13.138 -1.1161 -1.1168 -0.9812
 7947TIP3   OH245331   6.451   5.446   5.842  0.5077 -0.4020  0.5238
 7947TIP3    H145332   6.539   5.432   5.879  1.3521 -0.6064 -1.4670
 7947TIP3    H245333   6.410   5.507   5.903  2.1983  0.0759  1.2636
 7948TIP3   OH245334   1.960   6.019   6.290 -0.1188 -0.0442 -0.4497
 7948TIP3    H145335   1.927   6.109   6.292  0.4747  0.1717  0.1498
 7948TIP3    H245336   2.042   6.023   6.341 -0.0507 -0.9070 -0.4837
 7949TIP3   OH245337   3.226   6.475  16.819  0.0725 -0.0590 -0.1387
 7949TIP3    H145338   3.267   6.396  16.784 -1.3507 -0.6085 -0.6769
 7949TIP3    H245339   3.133   6.465  16.797 -0.3161  1.2391  0.7867
 7950TIP3   OH245340   1.290   6.130   0.462  0.2562 -0.3702  0.5286
 7950TIP3    H145341   1.281   6.118   0.557 -0.3240  0.4532  0.5844
 7950TIP3    H245342   1.385   6.131   0.447  0.3536 -1.5591  0.9476
 7951TIP3   OH245343   1.632   2.296   1.553 -0.3480 -0.0691 -0.3049
 7951TIP3    H145344   1.665   2.210   1.579  1.1328  0.3836 -0.5852
 7951TIP3    H245345   1.553   2.278   1.502 -0.4583 -1.2078  0.2489
 7952TIP3   OH245346   2.971   5.804  16.029  0.0670 -0.3161  0.3474
 7952TIP3    H145347   2.918   5.805  16.109 -2.5376  0.0627 -1.2867
 7952TIP3    H245348   2.943   5.881  15.980  4.5770  1.8891  0.7346
 7953TIP3   OH245349   4.436   4.005  15.307  0.2366 -0.5870 -0.0287
 7953TIP3    H145350   4.452   4.051  15.224 -0.6498 -0.0362  0.0916
 7953TIP3    H245351   4.516   4.017  15.357  0.6385 -0.5954 -0.6562
 7954TIP3   OH245352   0.459   2.373   2.248 -0.5877  0.2898  0.6348
 7954TIP3    H145353   0.415   2.347   2.167  0.5799 -0.8953  0.3538
 7954TIP3    H245354   0.523   2.305   2.264  2.3846  2.7366  0.0908
 7955TIP3   OH245355   4.256   5.749   2.187 -0.1053  0.3837  0.0232
 7955TIP3    H145356   4.162   5.736   2.177 -0.1707  0.6939  0.2126
 7955TIP3    H245357   4.264   5.828   2.241  0.2613  0.3002  0.0976
 7956TIP3   OH245358   1.530   3.880  11.876  0.1646 -0.8244  0.2443
 7956TIP3    H145359   1.623   3.899  11.883  0.3184  0.9556 -3.8236
 7956TIP3    H245360   1.525   3.786  11.862  1.2822 -0.9722  0.7613
 7957TIP3   OH245361   2.800   6.509  15.236  0.3156 -0.1824 -0.1864
 7957TIP3    H145362   2.820   6.416  15.223 -0.2346 -0.3664  0.2286
 7957TIP3    H245363   2.834   6.552  15.157  1.3528 -0.6149  0.0093
 7958TIP3   OH245364   2.235   0.379   2.474 -0.3749  0.1590  0.1352
 7958TIP3    H145365   2.246   0.389   2.569  1.8636  0.0447 -0.0718
 7958TIP3    H245366   2.280   0.298   2.453 -1.1487  0.0023 -1.0080
 7959TIP3   OH245367   4.228   2.163  15.634 -0.2997 -0.3717  0.3688
 7959TIP3    H145368   4.322   2.179  15.632 -0.1555 -1.2554 -0.5764
 7959TIP3    H245369   4.192   2.235  15.686  0.7681  0.5865 -0.2017
 7960TIP3   OH245370   5.936   2.682  15.380 -0.8274  0.4093  0.5262
 7960TIP3    H145371   5.979   2.680  15.466  1.1159  0.9674 -0.3705
 7960TIP3    H245372   5.878   2.607  15.381  1.7589 -1.7456  1.1001
 7961TIP3   OH245373   5.286   1.894   6.036 -0.4349  0.0027 -0.5930
 7961TIP3    H145374   5.356   1.960   6.035 -1.3066  0.9425 -1.3329
 7961TIP3    H245375   5.214   1.935   5.989 -1.8641 -0.5552  1.0242
 7962TIP3   OH245376   6.176   0.682   3.470 -0.4330  0.3640 -0.0277
 7962TIP3    H145377   6.195   0.662   3.378  0.2006 -2.1317  0.5703
 7962TIP3    H245378   6.225   0.761   3.488  1.1439 -0.2659 -1.3053
 7963TIP3   OH245379   3.535   3.165  12.954 -0.2972 -0.1563 -0.8233
 7963TIP3    H145380   3.533   3.161  13.049 -0.3932 -2.2135 -0.8492
 7963TIP3    H245381   3.620   3.202  12.932  0.6567 -1.7098  0.0896
 7964TIP3   OH245382   0.994   5.517   2.423 -0.3530 -0.5021  0.3465
 7964TIP3    H145383   0.972   5.585   2.359 -0.7767 -0.9827 -0.0319
 7964TIP3    H245384   1.065   5.467   2.382 -0.6987 -0.8771  0.1935
 7965TIP3   OH245385   6.243   3.971  11.592  0.3805 -0.6904 -0.2612
 7965TIP3    H145386   6.209   3.896  11.542 -0.8764 -0.0892 -0.3644
 7965TIP3    H245387   6.165   4.023  11.611  1.3770  1.3088 -1.3624
 7966TIP3   OH245388   0.291   3.382   6.159  0.5306  0.1767 -0.2611
 7966TIP3    H145389   0.211   3.351   6.200 -0.7963  0.4069 -2.4740
 7966TIP3    H245390   0.335   3.303   6.129  0.6721  0.0921  0.1716
 7967TIP3   OH245391   2.871   5.117  13.997 -0.1255  0.0408  0.3776
 7967TIP3    H145392   2.874   5.026  14.025 -0.3012  0.3512  1.4298
 7967TIP3    H245393   2.779   5.133  13.977 -0.0441 -0.1014 -0.1166
 7968TIP3   OH245394   6.498   1.377   5.003 -0.0899  0.2028  1.0553
 7968TIP3    H145395   6.503   1.463   4.961  1.6063  0.2667  1.3140
 7968TIP3    H245396   6.417   1.339   4.970 -1.3331  2.2281  1.5991
 7969TIP3   OH245397   1.126   4.430   5.409  0.5973 -0.6168 -0.8166
 7969TIP3    H145398   1.128   4.522   5.437  0.6675 -0.6980 -0.5551
 7969TIP3    H245399   1.218   4.404   5.403  0.6029 -0.4734 -1.5533
 7970TIP3   OH245400   4.150   0.299  14.254  0.6634 -0.5537  0.2165
 7970TIP3    H145401   4.201   0.294  14.173  1.5155  0.3774  0.6735
 7970TIP3    H245402   4.106   0.214  14.260  0.9954 -0.8209 -0.9566
 7971TIP3   OH245403   1.366   0.004   6.903 -0.2655  0.2729  0.1899
 7971TIP3    H145404   1.389  -0.087   6.919 -0.6231 -0.5302 -3.1994
 7971TIP3    H245405   1.446   0.043   6.867 -0.5396  0.9147  0.2567
 7972TIP3   OH245406   3.744   0.743  16.996 -0.2811 -1.1215  0.2311
 7972TIP3    H145407   3.840   0.739  16.993 -0.2596 -0.2917 -0.4608
 7972TIP3    H245408   3.723   0.738  17.090  0.5731  0.9564  0.5896
 7973TIP3   OH245409   1.213   1.160   5.622 -0.8763 -0.6336 -0.0226
 7973TIP3    H145410   1.229   1.254   5.617  0.1222 -0.8038 -0.2047
 7973TIP3    H245411   1.255   1.124   5.544  0.7883 -1.4823  1.2124
 7974TIP3   OH245412   1.649   6.192   0.696  0.0207  0.0136  0.0499
 7974TIP3    H145413   1.655   6.285   0.717 -1.1293  0.0889  0.0796
 7974TIP3    H245414   1.739   6.159   0.706  0.6299  1.3148 -0.8975
 7975TIP3   OH245415   2.437   0.441   3.041  0.1979  0.2644 -0.0201
 7975TIP3    H145416   2.418   0.347   3.039 -0.2997  0.3641 -0.3710
 7975TIP3    H245417   2.451   0.461   3.133 -0.8436  0.0554  0.2019
 7976TIP3   OH245418   3.545   0.918   6.202 -0.8735 -0.5686 -0.2945
 7976TIP3    H145419   3.551   0.922   6.298  0.8061  0.3760 -0.3937
 7976TIP3    H245420   3.512   1.003   6.177 -0.5730 -0.5362 -0.5859
 7977TIP3   OH245421   0.623   6.144   2.089 -0.1951  0.2203  0.1254
 7977TIP3    H145422   0.689   6.166   2.156 -0.7754 -0.9986  1.1642
 7977TIP3    H245423   0.646   6.054   2.063 -0.4146  0.4273 -0.7828
 7978TIP3   OH245424   3.026   0.598  13.418  0.5774 -0.0831  0.4343
 7978TIP3    H145425   3.048   0.672  13.474 -0.4370  0.4409  0.1533
 7978TIP3    H245426   2.932   0.584  13.432  0.1786  0.3822 -1.5034
 7979TIP3   OH245427   3.449   2.339   4.184 -0.2418  0.2283 -0.0432
 7979TIP3    H145428   3.485   2.418   4.225 -1.8160 -0.7634  3.6611
 7979TIP3    H245429   3.369   2.368   4.142 -0.0963  0.8398  0.0912
 7980TIP3   OH245430   4.024   2.386   4.972  0.9098  0.3414  0.2281
 7980TIP3    H145431   3.973   2.466   4.957 -0.1376 -0.4520 -0.5429
 7980TIP3    H245432   4.067   2.401   5.056 -1.7782  0.4483  1.6875
 7981TIP3   OH245433   5.828   2.116  13.722 -0.0788  0.1701  0.5034
 7981TIP3    H145434   5.901   2.141  13.666  1.0732 -0.9328  1.4415
 7981TIP3    H245435   5.751   2.155  13.680  0.8288  0.0758 -1.3691
 7982TIP3   OH245436   1.953   1.900   2.086  0.2682  0.4025  0.3909
 7982TIP3    H145437   1.890   1.971   2.094 -0.5349 -0.4005  1.6109
 7982TIP3    H245438   1.911   1.825   2.128  1.9323 -0.2317  1.0529
 7983TIP3   OH245439   1.787   6.205   6.416  0.4297  0.5995  0.3079
 7983TIP3    H145440   1.707   6.255   6.428 -0.1695  0.2543 -1.9187
 7983TIP3    H245441   1.847   6.239   6.482 -0.8403  2.3429  0.6118
 7984TIP3   OH245442   0.030   5.184  17.338  0.2323  0.5195 -0.5454
 7984TIP3    H145443  -0.063   5.164  17.346  0.6132 -0.7321  1.7672
 7984TIP3    H245444   0.065   5.169  17.426  2.7675  0.1200 -1.5273
 7985TIP3   OH245445   5.399   4.716   2.033  0.7350  0.1715  0.4452
 7985TIP3    H145446   5.470   4.695   1.972  0.4686 -1.3658  0.6333
 7985TIP3    H245447   5.319   4.693   1.985  0.5307 -1.2683  1.4153
 7986TIP3   OH245448   1.476   2.172  13.605 -0.2951 -0.3522 -0.4666
 7986TIP3    H145449   1.556   2.192  13.655  0.9224 -0.0936 -2.3970
 7986TIP3    H245450   1.447   2.088  13.638  0.8516 -0.4992  0.2231
 7987TIP3   OH245451   3.411   5.721   0.348 -0.5450 -0.3121  0.2590
 7987TIP3    H145452   3.350   5.783   0.308 -2.1358 -2.3680 -0.6813
 7987TIP3    H245453   3.495   5.741   0.307 -1.2772  0.3774 -0.9798
 7988TIP3   OH245454   6.373   3.602   0.465  0.1473  0.7121  0.0894
 7988TIP3    H145455   6.461   3.569   0.449 -0.6154 -1.1243 -0.6093
 7988TIP3    H245456   6.348   3.565   0.550 -0.1134  0.8539  0.0773
 7989TIP3   OH245457   0.318   1.750  13.530 -0.3378  0.1110 -1.0816
 7989TIP3    H145458   0.262   1.676  13.555 -0.5002  0.0827 -1.5246
 7989TIP3    H245459   0.272   1.791  13.457 -0.5117  0.9671 -0.5134
 7990TIP3   OH245460   3.886   5.056   3.180  0.0264 -0.0653  0.1054
 7990TIP3    H145461   3.825   5.129   3.167 -0.0727 -0.5098 -2.7684
 7990TIP3    H245462   3.831   4.978   3.169  0.6538 -0.5150  0.1379
 7991TIP3   OH245463   4.783   3.459   6.751  0.0402  0.0911 -0.6150
 7991TIP3    H145464   4.714   3.395   6.733 -0.3082  0.0388  0.7525
 7991TIP3    H245465   4.863   3.407   6.757 -0.3154 -0.3242  0.9752
 7992TIP3   OH245466   4.060   4.704   1.330  0.4006  0.1274  0.1251
 7992TIP3    H145467   4.007   4.638   1.376 -0.8891  1.5345  0.7244
 7992TIP3    H245468   4.014   4.786   1.344  1.3295  1.0057 -1.5998
 7993TIP3   OH245469   0.972   4.074  13.009 -0.2926 -0.6265 -0.1996
 7993TIP3    H145470   0.917   4.000  12.983  0.4144 -1.6571  1.1276
 7993TIP3    H245471   0.977   4.129  12.930  0.3148 -2.7053 -1.6957
 7994TIP3   OH245472   2.880   2.790  11.966 -0.2560  0.0352 -0.6507
 7994TIP3    H145473   2.922   2.734  11.900 -1.3239 -0.7488 -0.6821
 7994TIP3    H245474   2.927   2.874  11.959  1.1194 -0.7164 -0.8639
 7995TIP3   OH245475   3.283   0.639   5.364 -0.1201 -0.3866 -0.2413
 7995TIP3    H145476   3.219   0.657   5.296 -1.2801 -0.5392  0.7680
 7995TIP3    H245477   3.339   0.716   5.366 -1.5368  0.6763  0.2114
 7996TIP3   OH245478   2.001   4.626   4.835  0.2479  0.3395  0.1707
 7996TIP3    H145479   2.077   4.621   4.893  1.7857  0.9466 -1.6613
 7996TIP3    H245480   1.989   4.537   4.803 -0.5075  0.0342  1.2751
 7997TIP3   OH245481   6.621   2.572   3.079  0.2118  0.2390 -0.2458
 7997TIP3    H145482   6.585   2.658   3.102  0.7551  0.6915 -1.0460
 7997TIP3    H245483   6.667   2.544   3.158 -0.0993  0.6141  0.0758
 7998TIP3   OH245484   2.967   1.763  11.233 -0.1362 -0.2358  0.0979
 7998TIP3    H145485   3.043   1.710  11.208 -0.4563  0.2654 -2.1241
 7998TIP3    H245486   2.893   1.723  11.187 -0.5563  1.4464 -0.7910
 7999TIP3   OH245487   2.767   0.906   0.731  0.6179  0.1282  0.5505
 7999TIP3    H145488   2.770   0.812   0.714  0.5315  0.4787 -1.8372
 7999TIP3    H245489   2.851   0.939   0.699  0.5361  0.9026  1.0999
 8000TIP3   OH245490   2.172   6.065   3.555 -0.0184 -0.1359 -0.2520
 8000TIP3    H145491   2.184   5.984   3.604 -1.8639 -1.5701 -1.9876
 8000TIP3    H245492   2.237   6.060   3.484  1.3209  0.9996  0.8321
 8001TIP3   OH245493   5.209   2.817  14.860  0.3200  0.1437  0.0738
 8001TIP3    H145494   5.223   2.878  14.787 -1.4264 -0.5830 -0.9432
 8001TIP3    H245495   5.238   2.732  14.826 -0.8331 -0.2662  0.0846
 8002TIP3   OH245496   2.309   0.655   0.554 -0.8869  0.0413  0.7154
 8002TIP3    H145497   2.334   0.720   0.620 -0.9100 -0.5046  1.2792
 8002TIP3    H245498   2.356   0.575   0.581  0.7071  0.3063 -1.0667
 8003TIP3   OH245499   5.824   6.474   0.588 -0.6207  0.5121 -0.0177
 8003TIP3    H145500   5.789   6.389   0.614  0.9770 -0.9489 -2.2372
 8003TIP3    H245501   5.847   6.517   0.670 -1.0478 -1.4000  1.1559
 8004TIP3   OH245502   5.442   0.408   1.118  0.3637 -0.1493  0.6280
 8004TIP3    H145503   5.431   0.352   1.042  0.6983 -2.2060  2.0303
 8004TIP3    H245504   5.364   0.392   1.171  0.0212  1.4293  0.6556
 8005TIP3   OH245505   4.675   0.931  11.772  0.5235 -0.2021  0.0800
 8005TIP3    H145506   4.590   0.904  11.807  0.4010 -0.0825 -0.1207
 8005TIP3    H245507   4.663   1.021  11.744  0.8342 -0.0533  0.4212
 8006TIP3   OH245508   1.258   6.069  10.682 -0.7693 -0.0358 -0.3661
 8006TIP3    H145509   1.306   5.988  10.701 -0.7717 -0.3050 -1.4602
 8006TIP3    H245510   1.322   6.138  10.692 -0.4250 -0.2958 -0.7645
 8007TIP3   OH245511   5.328   3.627  17.194 -0.1427 -0.4701  0.5156
 8007TIP3    H145512   5.343   3.722  17.187  0.3175 -0.6779 -2.3620
 8007TIP3    H245513   5.332   3.610  17.288  1.5847  2.0936  1.0371
 8008TIP3   OH245514   2.656   4.284  16.680 -0.4640  0.6233 -0.1200
 8008TIP3    H145515   2.659   4.248  16.768 -0.6631 -2.5719 -1.2774
 8008TIP3    H245516   2.597   4.225  16.632  0.9691  1.1567 -2.7735
 8009TIP3   OH245517   6.764   1.570   5.897 -0.0778  0.2250  0.1661
 8009TIP3    H145518   6.767   1.548   5.990 -0.6674 -0.0368  0.1295
 8009TIP3    H245519   6.808   1.496   5.854  3.5693  2.0246  0.4623
 8010TIP3   OH245520   5.344   1.163  12.661  0.3402  0.1813  0.0628
 8010TIP3    H145521   5.402   1.217  12.608 -0.7373  0.6398 -0.6478
 8010TIP3    H245522   5.302   1.224  12.721 -3.1695  0.7641 -2.7029
 8011TIP3   OH245523   4.249   1.668  17.040 -0.1823  0.3578 -0.2385
 8011TIP3    H145524   4.270   1.603  17.106 -0.0039  0.1006 -0.5455
 8011TIP3    H245525   4.164   1.641  17.005  0.2198 -0.1213 -0.8668
 8012TIP3   OH245526   0.771   2.782  15.697 -0.4361  0.5223 -0.2087
 8012TIP3    H145527   0.777   2.857  15.638  1.1140  0.4617 -0.1726
 8012TIP3    H245528   0.831   2.718  15.661  0.3647  0.3845  1.2760
 8013TIP3   OH245529   4.942   2.843  11.950  0.1379 -0.2596 -0.3266
 8013TIP3    H145530   4.927   2.937  11.946  1.0701 -0.0809  0.2876
 8013TIP3    H245531   4.855   2.805  11.933 -0.2789  0.7027 -0.4225
 8014TIP3   OH245532   4.281   4.356   6.472  0.8673  0.5805  0.0663
 8014TIP3    H145533   4.224   4.433   6.475 -0.1218 -0.0529 -1.1418
 8014TIP3    H245534   4.362   4.387   6.431 -0.0721  0.7094 -1.7998
 8015TIP3   OH245535   2.204   6.299   2.865  0.5222  0.1026 -0.3270
 8015TIP3    H145536   2.118   6.285   2.904 -0.1745 -1.1053 -2.1206
 8015TIP3    H245537   2.190   6.282   2.771  2.5486  0.6655 -0.7796
 8016TIP3   OH245538   3.453   0.404  10.860  0.1138  0.3776 -0.2828
 8016TIP3    H145539   3.547   0.422  10.867  0.2625 -0.6035  0.4558
 8016TIP3    H245540   3.421   0.469  10.797  1.1482  1.1992  0.0088
 8017TIP3   OH245541   4.018   6.055   4.885 -0.3747 -0.4883  0.8127
 8017TIP3    H145542   4.010   6.017   4.973 -1.3373  0.1587  1.0265
 8017TIP3    H245543   3.989   5.987   4.826  0.4138 -0.9806  0.9780
 8018TIP3   OH245544   5.128   0.656   6.511 -0.1850  0.5183  1.0876
 8018TIP3    H145545   5.067   0.703   6.568  1.3481 -0.6681  3.8863
 8018TIP3    H245546   5.140   0.571   6.553  3.8002  0.8836  1.0734
 8019TIP3   OH245547   4.683   1.857   4.019 -0.0252  0.4483  0.5298
 8019TIP3    H145548   4.701   1.920   3.949 -2.7940  0.5775 -0.1492
 8019TIP3    H245549   4.752   1.873   4.083  0.1678  3.2191 -0.2606
 8020TIP3   OH245550   0.303   6.069  15.186  0.5354  0.6683  0.6087
 8020TIP3    H145551   0.327   5.982  15.219 -1.1028  0.3020  0.9446
 8020TIP3    H245552   0.329   6.068  15.094  2.5949  0.6768  1.1348
 8021TIP3   OH245553   4.639   1.596   4.009 -0.5718  0.3030 -0.1949
 8021TIP3    H145554   4.574   1.571   4.075 -0.9847 -0.0740 -0.7362
 8021TIP3    H245555   4.657   1.688   4.027 -0.3819  0.1039  0.6914
 8022TIP3   OH245556   4.945   4.336  17.024  0.5072 -0.0846 -0.0788
 8022TIP3    H145557   4.996   4.338  16.943 -0.5684  0.7328 -0.7594
 8022TIP3    H245558   4.975   4.412  17.074 -0.7554  1.0129 -0.9482
 8023TIP3   OH245559   4.539   5.330   6.712  0.1961 -0.0391  0.2629
 8023TIP3    H145560   4.449   5.305   6.733 -0.0122 -1.1595 -1.6623
 8023TIP3    H245561   4.530   5.387   6.635  1.0838  0.7476  0.7316
 8024TIP3   OH245562   3.630   4.390  15.497 -0.0670 -0.1778 -0.6003
 8024TIP3    H145563   3.698   4.334  15.535  2.5485  2.6753 -0.7052
 8024TIP3    H245564   3.623   4.464  15.557  0.9748  2.2858 -3.2899
 8025TIP3   OH245565   5.402   5.162   4.819  0.1913 -0.6074 -0.0395
 8025TIP3    H145566   5.485   5.126   4.787  0.3946  0.9223 -1.3471
 8025TIP3    H245567   5.427   5.241   4.865 -0.5319 -0.1462 -0.4272
 8026TIP3   OH245568   0.581   4.212  12.549 -0.9478 -0.0511  0.0637
 8026TIP3    H145569   0.543   4.145  12.607 -0.1592 -0.4728  0.1177
 8026TIP3    H245570   0.531   4.291  12.568 -2.3054 -0.7511 -0.4269
 8027TIP3   OH245571   6.002   4.037   3.434 -0.4673  0.7648  0.0077
 8027TIP3    H145572   6.095   4.054   3.425 -0.2225 -0.9203 -1.1751
 8027TIP3    H245573   5.986   3.960   3.378 -2.5298  0.9348  0.2800
 8028TIP3   OH245574   4.970   0.768   3.086 -0.0943 -0.1747  0.0082
 8028TIP3    H145575   4.979   0.688   3.035  0.3551 -0.5244  0.6323
 8028TIP3    H245576   4.914   0.824   3.032 -1.0896 -1.2086 -0.0712
 8029TIP3   OH245577   0.019   6.481  16.485 -0.2355 -0.2882  0.0122
 8029TIP3    H145578   0.084   6.496  16.554  1.0093 -0.9696 -0.9581
 8029TIP3    H245579  -0.020   6.397  16.506 -0.8944  0.1733  0.6601
 8030TIP3   OH245580   4.941   6.027  13.175  0.5271 -0.2254  0.4555
 8030TIP3    H145581   4.875   5.985  13.121  1.0147 -0.4938  0.0561
 8030TIP3    H245582   4.932   5.988  13.262 -0.5997  0.5736  0.7167
 8031TIP3   OH245583   1.196   0.559  14.912 -0.0179  0.0221  0.8872
 8031TIP3    H145584   1.280   0.605  14.912  0.8473 -1.4101 -1.3107
 8031TIP3    H245585   1.218   0.467  14.928 -1.2480 -0.3003  0.8549
 8032TIP3   OH245586   1.309   2.930  14.206 -0.1414 -0.2712 -0.0395
 8032TIP3    H145587   1.259   2.947  14.126 -1.0168  1.8885  0.8969
 8032TIP3    H245588   1.265   2.981  14.274  1.0554 -1.4077  1.6759
 8033TIP3   OH245589   0.674   1.538   1.193  0.2200 -0.0923  0.2586
 8033TIP3    H145590   0.661   1.557   1.100  1.8442  1.1922  0.2554
 8033TIP3    H245591   0.602   1.583   1.237 -0.3903 -0.4628 -0.3341
 8034TIP3   OH245592   2.262   3.056   6.381  0.2232 -0.3084 -0.0096
 8034TIP3    H145593   2.310   3.118   6.436  1.8268 -0.3738 -1.2635
 8034TIP3    H245594   2.284   3.082   6.292 -1.4890 -0.8470 -0.6168
 8035TIP3   OH245595   4.948   1.060  11.856  0.1566  0.6477 -0.1316
 8035TIP3    H145596   4.961   0.970  11.825  2.1003  0.4918  0.9971
 8035TIP3    H245597   4.956   1.114  11.777  1.3483 -0.0121 -0.4848
 8036TIP3   OH245598   3.349   1.329  14.856  0.0710 -0.6636  0.0082
 8036TIP3    H145599   3.353   1.273  14.778 -1.1416 -2.0041  0.8687
 8036TIP3    H245600   3.440   1.343  14.880  0.5062  0.3217 -2.0094
 8037TIP3   OH245601   1.312   4.349  14.934  0.2178  0.0470 -0.3809
 8037TIP3    H145602   1.388   4.348  14.876  1.6022 -1.0720  1.3464
 8037TIP3    H245603   1.332   4.284  15.002 -2.5335 -0.6880 -0.1407
 8038TIP3   OH245604   4.752   4.830  16.743 -0.9056  0.5364  0.3604
 8038TIP3    H145605   4.780   4.918  16.768  1.2527 -0.2081  0.8007
 8038TIP3    H245606   4.705   4.798  16.819  1.1505  0.1763  1.5670
 8039TIP3   OH245607   5.357   0.869  12.730 -0.2003 -0.4434 -0.3128
 8039TIP3    H145608   5.318   0.950  12.698 -0.8453 -0.6859 -0.1594
 8039TIP3    H245609   5.342   0.871  12.825  2.1467  0.5229  0.1244
 8040TIP3   OH245610   2.527   5.822  16.036 -0.7193  0.3901 -0.2871
 8040TIP3    H145611   2.448   5.768  16.027  0.7354 -1.5811 -2.5269
 8040TIP3    H245612   2.571   5.787  16.114 -1.7360  1.0904  0.6130
 8041TIP3   OH245613   1.247   1.928  12.990  0.5841 -0.3848 -0.7701
 8041TIP3    H145614   1.153   1.937  12.974  0.7959 -0.1240 -1.9371
 8041TIP3    H245615   1.256   1.838  13.023  0.2286 -1.4478 -3.3288
 8042TIP3   OH245616   6.514   1.951   5.616 -0.4350  0.1563 -0.5126
 8042TIP3    H145617   6.547   2.041   5.618 -2.5397  0.9621  0.1299
 8042TIP3    H245618   6.516   1.923   5.708 -2.0763  0.4740 -0.3505
 8043TIP3   OH245619   0.682   1.443  11.768  0.0026  0.0798 -0.4412
 8043TIP3    H145620   0.649   1.476  11.852 -3.3029 -0.2154 -1.4672
 8043TIP3    H245621   0.674   1.518  11.708 -1.4396 -0.7224 -1.3223
 8044TIP3   OH245622   6.581   3.082  13.255 -0.4659 -0.0394 -0.4868
 8044TIP3    H145623   6.589   3.178  13.251  0.8375 -0.0782  0.6489
 8044TIP3    H245624   6.507   3.067  13.313 -0.4916  0.2756 -0.4343
 8045TIP3   OH245625   4.680   1.126   1.035 -0.7517  0.0178  0.1047
 8045TIP3    H145626   4.624   1.048   1.035 -1.7173  0.6743  1.3460
 8045TIP3    H245627   4.643   1.182   1.103  0.2819  1.3174 -0.3643
 8046TIP3   OH245628   5.354   4.534   2.369  0.3185  0.0521 -0.5176
 8046TIP3    H145629   5.265   4.552   2.340 -0.2048 -2.4628 -0.7479
 8046TIP3    H245630   5.385   4.466   2.309  2.3283  0.7223 -0.2974
 8047TIP3   OH245631   3.543   6.668   0.814  0.5869 -0.4992 -0.5328
 8047TIP3    H145632   3.557   6.608   0.887 -1.1024 -0.6932 -0.3299
 8047TIP3    H245633   3.451   6.656   0.790  1.1299 -0.6125 -2.8497
 8048TIP3   OH245634   4.766   5.444   6.835  0.0430  0.2859  0.0346
 8048TIP3    H145635   4.780   5.423   6.927 -0.7865 -3.0136 -0.4728
 8048TIP3    H245636   4.680   5.407   6.814 -0.7663  2.8648 -1.6014
 8049TIP3   OH245637   0.154   4.157   0.030 -0.0635  0.2496  0.3456
 8049TIP3    H145638   0.176   4.065   0.044  0.7660  0.4909  0.7379
 8049TIP3    H245639   0.080   4.156  -0.030  1.7332 -0.6119 -1.9958
 8050TIP3   OH245640   2.927   6.061   4.078  0.6066 -0.3580 -0.2716
 8050TIP3    H145641   3.021   6.082   4.072  0.3567  0.9005 -0.0821
 8050TIP3    H245642   2.883   6.138   4.042 -0.3669 -0.8722 -0.2063
 8051TIP3   OH245643   3.910   1.049  17.056  0.3293  0.2669 -0.3324
 8051TIP3    H145644   3.912   1.028  16.963  2.8921  0.3817 -0.3798
 8051TIP3    H245645   4.002   1.048  17.083  0.1389  4.2561  1.2744
 8052TIP3   OH245646   2.179   2.316  14.105 -0.1848  0.0569  0.0218
 8052TIP3    H145647   2.200   2.379  14.036 -0.7683  0.3718  0.1213
 8052TIP3    H245648   2.234   2.240  14.085 -0.3229  0.1509 -0.7746
 8053TIP3   OH245649   1.744   6.332   1.125 -0.0981 -0.2078  0.1463
 8053TIP3    H145650   1.766   6.392   1.053  0.2533 -0.8668 -0.3056
 8053TIP3    H245651   1.828   6.294   1.151 -0.3048 -0.4307  0.4897
 8054TIP3   OH245652   4.137   3.971   6.470  0.0343 -0.4759  0.7456
 8054TIP3    H145653   4.061   3.914   6.481  0.0015 -1.0433 -1.7501
 8054TIP3    H245654   4.207   3.912   6.440  0.8056  0.3751  0.8107
 8055TIP3   OH245655   4.728   5.927  11.237 -0.1841  0.5134 -0.0588
 8055TIP3    H145656   4.786   5.906  11.163  1.3773  0.1593  1.2008
 8055TIP3    H245657   4.757   6.013  11.266  1.2165 -0.5359  1.8907
 8056TIP3   OH245658   6.391   2.722   5.217  0.7036 -0.3466 -0.0638
 8056TIP3    H145659   6.298   2.729   5.195  0.8113  1.0183 -0.1800
 8056TIP3    H245660   6.416   2.634   5.188 -0.0992 -0.0383 -1.8141
 8057TIP3   OH245661   6.337   2.743   3.225  0.1346 -0.4113 -0.2134
 8057TIP3    H145662   6.337   2.836   3.203  1.3834 -0.3719 -0.1218
 8057TIP3    H245663   6.244   2.721   3.237 -0.0811  1.3469  1.9497
 8058TIP3   OH245664   2.841   2.398  13.691 -0.4286  0.1850 -0.5637
 8058TIP3    H145665   2.749   2.424  13.691 -0.1053  1.3951 -0.1446
 8058TIP3    H245666   2.859   2.372  13.781 -0.6012 -0.9717 -0.8581
 8059TIP3   OH245667   2.864   1.054  17.136  0.3002  0.0860 -0.2894
 8059TIP3    H145668   2.896   1.038  17.047  0.1113 -2.1224 -0.0231
 8059TIP3    H245669   2.795   0.988  17.149 -0.8725  1.4622  0.9162
 8060TIP3   OH245670   5.478   2.467   2.336 -0.5645  0.2979 -0.2291
 8060TIP3    H145671   5.398   2.461   2.389 -0.6870 -0.2365 -0.4644
 8060TIP3    H245672   5.516   2.551   2.360  0.0823 -0.4983  1.6836
 8061TIP3   OH245673   2.474   1.657  12.737 -0.3151  0.4557 -0.4796
 8061TIP3    H145674   2.393   1.622  12.701  0.0029 -1.0515  0.2149
 8061TIP3    H245675   2.543   1.615  12.686  0.0823 -0.0365  0.4448
 8062TIP3   OH245676   6.399   6.431   0.296  0.0679 -0.1867  0.1382
 8062TIP3    H145677   6.432   6.408   0.209 -1.4046  0.4295 -0.6157
 8062TIP3    H245678   6.335   6.364   0.316 -1.7368  1.2328 -0.5764
 8063TIP3   OH245679   3.433   2.996  12.486 -0.8197 -0.5658 -0.3840
 8063TIP3    H145680   3.416   3.091  12.485 -1.3183 -0.5687  1.8499
 8063TIP3    H245681   3.514   2.986  12.437  0.0445  1.2312  0.5596
 8064TIP3   OH245682   3.291   1.872   3.634  0.0376  0.4210 -0.1416
 8064TIP3    H145683   3.247   1.934   3.692 -1.3999 -1.0137  0.3784
 8064TIP3    H245684   3.308   1.922   3.554 -2.3027  1.1407 -0.2516
 8065TIP3   OH245685   5.922   3.276   4.872 -0.2211 -0.1568  0.1227
 8065TIP3    H145686   5.875   3.310   4.949  0.3710  2.4141 -0.5497
 8065TIP3    H245687   5.854   3.233   4.820 -1.4543  1.5658  0.2258
 8066TIP3   OH245688   3.935   4.829  15.465  0.2673  0.5482  0.6956
 8066TIP3    H145689   3.917   4.737  15.449 -0.3154  0.7277  0.3015
 8066TIP3    H245690   4.020   4.829  15.511 -0.2866 -0.2469  1.7711
 8067TIP3   OH245691   1.816   0.964  13.714  0.1368  0.3131 -0.2267
 8067TIP3    H145692   1.767   0.885  13.693  0.0695  0.1851  0.3919
 8067TIP3    H245693   1.896   0.957  13.662  0.7450 -0.8268  0.7993
 8068TIP3   OH245694   6.230   0.829   0.083 -0.7715  0.5170  0.1734
 8068TIP3    H145695   6.294   0.834   0.012 -0.6872  1.7783  0.3166
 8068TIP3    H245696   6.266   0.763   0.143 -0.9418 -0.7147 -1.0229
 8069TIP3   OH245697   4.861   2.266  14.413 -0.4531  0.0594  0.1704
 8069TIP3    H145698   4.811   2.325  14.469 -0.5739  0.1122  0.0064
 8069TIP3    H245699   4.952   2.292  14.428 -0.3895 -0.7406  1.2793
 8070TIP3   OH245700   2.768   4.011   6.126 -0.4621 -0.6640  0.0440
 8070TIP3    H145701   2.695   3.967   6.084 -1.9834  0.0373  1.7986
 8070TIP3    H245702   2.816   3.941   6.172 -1.7525 -0.8038  1.2468
 8071TIP3   OH245703   1.725   0.503   1.294  0.7526 -0.2533 -0.3147
 8071TIP3    H145704   1.697   0.549   1.215 -0.2022  1.5835  1.0057
 8071TIP3    H245705   1.812   0.538   1.313  0.7961 -0.3676 -0.3003
 8072TIP3   OH245706   1.923   5.190   5.637  0.5995  0.1744  0.1797
 8072TIP3    H145707   1.857   5.247   5.677 -1.8976 -3.0970  1.2017
 8072TIP3    H245708   1.999   5.196   5.695  0.3542  2.1997  0.3553
 8073TIP3   OH245709   0.777   5.981   0.307 -0.6853 -0.0192  0.0416
 8073TIP3    H145710   0.745   6.014   0.223 -0.2644 -0.8947 -0.4770
 8073TIP3    H245711   0.866   5.952   0.290 -0.9939 -1.3239  0.4773
 8074TIP3   OH245712   3.091   5.325   2.803 -0.1469  0.5426  0.0753
 8074TIP3    H145713   3.042   5.406   2.820 -0.1245  0.3244  1.2960
 8074TIP3    H245714   3.139   5.343   2.722  0.2012  1.9302  0.5577
 8075TIP3   OH245715   4.003   5.708  13.479  0.3215 -0.2437  0.4237
 8075TIP3    H145716   3.950   5.670  13.409  2.5953 -1.0916 -0.9293
 8075TIP3    H245717   3.995   5.646  13.552 -2.1075  0.6761  1.0282
 8076TIP3   OH245718   0.040   2.847  11.465 -0.1464 -0.4637  0.0475
 8076TIP3    H145719   0.121   2.797  11.472 -0.0879 -0.6185 -1.4605
 8076TIP3    H245720   0.035   2.897  11.547  1.1005 -0.9886  0.4579
 8077TIP3   OH245721   1.331   2.732  11.587 -0.2422  0.7841 -0.2799
 8077TIP3    H145722   1.326   2.752  11.494  1.1907 -0.8537 -0.7659
 8077TIP3    H245723   1.250   2.685  11.606  0.3866 -0.8032 -1.2742
 8078TIP3   OH245724   4.082   5.613   2.530  0.3738 -0.3869 -0.1250
 8078TIP3    H145725   4.167   5.596   2.490  0.9671 -0.3992  1.1000
 8078TIP3    H245726   4.096   5.600   2.624 -0.1805  2.6775  0.4813
 8079TIP3   OH245727   3.344   4.648   2.004  0.1094  0.0559  0.0368
 8079TIP3    H145728   3.337   4.597   2.084  0.6545  0.4807  0.3712
 8079TIP3    H245729   3.280   4.610   1.945  2.1833 -2.6494 -0.6359
 8080TIP3   OH245730   0.771   2.463   5.871  0.0645  0.0941  0.0038
 8080TIP3    H145731   0.767   2.548   5.827 -0.3406 -0.2998 -0.7479
 8080TIP3    H245732   0.739   2.480   5.959  0.1527  0.7568 -0.0885
 8081TIP3   OH245733   0.488   4.560  13.957 -0.0291 -0.3500 -0.1061
 8081TIP3    H145734   0.501   4.469  13.985 -0.5804  0.0460  1.5579
 8081TIP3    H245735   0.576   4.591  13.934  0.1239 -1.3803 -0.9531
 8082TIP3   OH245736   2.129   4.913   3.590  0.6214 -0.5146 -0.1055
 8082TIP3    H145737   2.088   4.894   3.674  0.2364 -0.2682 -0.2366
 8082TIP3    H245738   2.162   5.003   3.599  1.6634 -0.9197  0.2086
 8083TIP3   OH245739   3.544   6.479  15.395  0.0999 -0.6208 -0.1682
 8083TIP3    H145740   3.492   6.509  15.470  1.7202 -0.6465  1.0282
 8083TIP3    H245741   3.525   6.385  15.390 -0.1677 -0.5844  0.1095
 8084TIP3   OH245742   1.384   4.661   1.175 -0.4560 -0.5503 -0.5254
 8084TIP3    H145743   1.343   4.704   1.100  0.0410  1.6811  0.3912
 8084TIP3    H245744   1.322   4.592   1.200 -1.3975 -0.2723 -1.9712
 8085TIP3   OH245745   4.650   1.028  14.478 -0.5929  0.2252  0.7532
 8085TIP3    H145746   4.705   1.001  14.405 -2.4017 -0.4643 -0.4345
 8085TIP3    H245747   4.675   0.970  14.550  1.5893  1.2717  0.9216
 8086TIP3   OH245748   1.302   4.278  12.670 -0.0130  0.4569  0.4815
 8086TIP3    H145749   1.266   4.343  12.730  0.4635  0.1088  1.1562
 8086TIP3    H245750   1.299   4.196  12.720 -1.3312 -0.2091 -0.6260
 8087TIP3   OH245751   1.586   4.157  14.778 -0.5002 -0.0236  0.1783
 8087TIP3    H145752   1.670   4.195  14.751  0.2341 -1.4590  0.3367
 8087TIP3    H245753   1.588   4.161  14.873 -1.0809  0.8771  0.1615
 8088TIP3   OH245754   1.350   3.984  14.184 -0.4614  0.0653 -0.4294
 8088TIP3    H145755   1.398   4.059  14.149  1.9737 -0.2770  1.8632
 8088TIP3    H245756   1.265   4.019  14.209  0.6662  2.1711  0.7331
 8089TIP3   OH245757   5.360   5.452  16.475  0.0905  0.4386 -0.2111
 8089TIP3    H145758   5.374   5.532  16.526  0.6444  1.1338 -1.4162
 8089TIP3    H245759   5.396   5.471  16.389  0.1228 -1.0807 -0.5716
 8090TIP3   OH245760   2.419   1.804   3.388  0.2574 -0.0908  0.0158
 8090TIP3    H145761   2.488   1.771   3.445 -0.0202  0.6394  0.7910
 8090TIP3    H245762   2.393   1.728   3.335  1.2535 -0.5094  0.1064
 8091TIP3   OH245763   0.692   4.383  17.443 -0.1479  0.4978  0.4370
 8091TIP3    H145764   0.614   4.431  17.413 -1.1104 -1.0326  0.3685
 8091TIP3    H245765   0.658   4.297  17.469  1.4457  0.0130  0.9981
 8092TIP3   OH245766   1.375   5.022  10.840 -0.1684  0.4720 -0.2813
 8092TIP3    H145767   1.434   5.003  10.767  1.6119 -1.4701  1.5325
 8092TIP3    H245768   1.434   5.037  10.914 -1.9171 -0.7887  1.4566
 8093TIP3   OH245769   3.451   0.415  14.090 -0.0803 -0.4980 -0.4485
 8093TIP3    H145770   3.377   0.355  14.095 -0.6478 -0.0116 -2.1084
 8093TIP3    H245771   3.411   0.502  14.091  0.6862 -0.1309  1.3969
 8094TIP3   OH245772   5.570   0.188   2.803 -0.0207  1.1413  0.2314
 8094TIP3    H145773   5.496   0.160   2.750 -0.7185 -1.9781  2.5556
 8094TIP3    H245774   5.646   0.145   2.763 -0.3678 -0.2480  1.0148
 8095TIP3   OH245775   0.104   1.952   5.194 -0.0552  0.0327 -0.0360
 8095TIP3    H145776   0.151   1.904   5.125 -0.0683  1.2238 -0.9148
 8095TIP3    H245777   0.069   2.029   5.149 -1.5062 -0.0150  0.9616
 8096TIP3   OH245778   0.183   1.637  16.873 -0.1740  0.5562  0.8212
 8096TIP3    H145779   0.267   1.661  16.834  0.2943 -0.8878  0.8543
 8096TIP3    H245780   0.159   1.712  16.928  1.5259  0.6716  1.4866
 8097TIP3   OH245781   5.653   3.903   1.518  0.2110 -0.0453 -0.1385
 8097TIP3    H145782   5.696   3.989   1.524  0.0403 -0.0045  0.7413
 8097TIP3    H245783   5.578   3.910   1.578  0.8286 -1.1627  0.8183
 8098TIP3   OH245784   2.844   0.653  10.490 -0.0514 -0.0393 -0.1481
 8098TIP3    H145785   2.877   0.696  10.569 -0.1963 -1.1019  0.5217
 8098TIP3    H245786   2.789   0.718  10.447 -0.2595  0.4396  0.8260
 8099TIP3   OH245787   0.315   6.096   4.748 -0.0010 -0.2394  0.4907
 8099TIP3    H145788   0.357   6.097   4.834  4.5147 -1.9151 -1.3791
 8099TIP3    H245789   0.322   6.186   4.717  1.0001 -0.1880  0.8236
 8100TIP3   OH245790   5.286   5.618  14.929 -0.0804 -0.2170  0.1251
 8100TIP3    H145791   5.275   5.553  14.860 -2.3241  0.3448 -0.1278
 8100TIP3    H245792   5.250   5.576  15.007 -1.0577  0.4933  0.0739
 8101TIP3   OH245793   6.501   4.702  10.642 -0.5332 -0.4779 -0.7902
 8101TIP3    H145794   6.416   4.746  10.646 -1.2935 -1.7015 -2.3229
 8101TIP3    H245795   6.545   4.742  10.567  0.0951 -0.1217 -0.2396
 8102TIP3   OH245796   6.170   4.694  11.894  0.3647 -0.0760 -0.0374
 8102TIP3    H145797   6.166   4.746  11.813 -2.7446 -0.0828 -0.0324
 8102TIP3    H245798   6.218   4.615  11.870  0.7622  0.5612 -1.4637
 8103TIP3   OH245799   5.793   2.361   3.371  0.1766  0.1557 -0.3324
 8103TIP3    H145800   5.706   2.322   3.366 -0.1119  0.6098  0.7591
 8103TIP3    H245801   5.851   2.298   3.329 -0.6447 -0.2562 -0.8599
 8104TIP3   OH245802   6.633   4.808   0.066 -0.1247  0.0325 -0.3497
 8104TIP3    H145803   6.676   4.759  -0.005  0.9302 -2.4482  1.7891
 8104TIP3    H245804   6.540   4.787   0.057  0.0959 -0.9227 -0.5730
 8105TIP3   OH245805   5.853   5.219   3.626 -0.4056  0.4682  0.5479
 8105TIP3    H145806   5.936   5.243   3.665 -0.4766  0.6570  0.5837
 8105TIP3    H245807   5.788   5.272   3.672 -0.7173 -0.7312  1.5224
 8106TIP3   OH245808   3.395   3.366  15.139  0.3992 -0.1942  0.0653
 8106TIP3    H145809   3.403   3.424  15.063  0.6088  0.7463  0.7885
 8106TIP3    H245810   3.330   3.301  15.113  0.6398 -0.0242 -1.0033
 8107TIP3   OH245811   3.826   2.325   4.619 -0.4275  0.2745  0.5898
 8107TIP3    H145812   3.850   2.288   4.534 -1.9531 -0.6679  0.5254
 8107TIP3    H245813   3.900   2.303   4.676  1.3456  2.2748 -0.7831
 8108TIP3   OH245814   4.166   1.607  11.933 -0.6353 -0.7439  0.9832
 8108TIP3    H145815   4.163   1.642  11.844 -1.2126  0.4914  1.4611
 8108TIP3    H245816   4.223   1.668  11.980 -0.4321 -1.3219  1.4905
 8109TIP3   OH245817   2.883   2.894  17.407 -0.1425 -0.3607 -1.0107
 8109TIP3    H145818   2.835   2.873  17.327 -1.8860 -1.1541  0.1915
 8109TIP3    H245819   2.820   2.938  17.463  0.9228 -0.2062  0.1161
 8110TIP3   OH245820   2.464   0.338  10.828  0.0240 -0.1703  0.3591
 8110TIP3    H145821   2.404   0.280  10.781  0.4222  0.4415 -0.9226
 8110TIP3    H245822   2.496   0.399  10.762  0.7536  0.5885  1.3838
 8111TIP3   OH245823   4.819   6.329   5.360 -0.2662  0.2009 -0.4680
 8111TIP3    H145824   4.902   6.377   5.363 -1.2062  1.9855 -1.2833
 8111TIP3    H245825   4.809   6.293   5.448  2.4493 -2.0737 -0.9464
 8112TIP3   OH245826   0.758   1.149  17.415  0.2814 -0.0268  0.4675
 8112TIP3    H145827   0.796   1.074  17.460  2.0804 -0.1997 -1.1947
 8112TIP3    H245828   0.723   1.113  17.333 -0.5734  0.6609  0.5126
 8113TIP3   OH245829   6.667   4.010   6.047  0.2167 -0.0108  0.1847
 8113TIP3    H145830   6.582   4.028   6.086  0.3170  0.0164  0.3931
 8113TIP3    H245831   6.647   3.960   5.968 -0.0639  1.0291 -0.4246
 8114TIP3   OH245832   2.468   5.950  12.840  0.0816 -0.4239 -0.1844
 8114TIP3    H145833   2.395   5.890  12.825  0.5300 -1.0867  0.2958
 8114TIP3    H245834   2.460   6.014  12.769 -0.5550 -0.8905 -0.5443
 8115TIP3   OH245835   6.504   4.882  13.411 -0.2546  0.3156 -0.2585
 8115TIP3    H145836   6.420   4.882  13.366 -1.4669  0.6415  1.8817
 8115TIP3    H245837   6.525   4.975  13.423 -1.3930  0.3271  2.2656
 8116TIP3   OH245838   4.584   3.737  16.313 -0.1007 -0.1208 -0.2082
 8116TIP3    H145839   4.666   3.770  16.276  0.9613 -1.2880  0.9697
 8116TIP3    H245840   4.593   3.642  16.310 -0.4547 -0.2709  1.8987
 8117TIP3   OH245841   4.751   1.726  11.616  0.0888  0.5212 -0.0030
 8117TIP3    H145842   4.711   1.745  11.532  2.1807  0.1054 -1.1687
 8117TIP3    H245843   4.773   1.811  11.653  0.1391  0.6724 -0.3822
 8118TIP3   OH245844   0.726   0.809  14.064 -0.1803  0.3801 -0.6051
 8118TIP3    H145845   0.814   0.779  14.084 -0.5410 -0.3810 -0.1281
 8118TIP3    H245846   0.707   0.876  14.130 -0.8351 -1.1278  0.7978
 8119TIP3   OH245847   5.581   5.380  14.969  0.0554 -0.3382 -0.6635
 8119TIP3    H145848   5.608   5.393  14.878  0.2448 -1.5773 -0.8009
 8119TIP3    H245849   5.550   5.290  14.972  0.4578 -0.4542  0.6048
 8120TIP3   OH245850   4.044   3.050   4.179  0.4233 -0.1056  0.0186
 8120TIP3    H145851   4.097   3.045   4.100 -1.5322  2.2549 -1.5800
 8120TIP3    H245852   4.040   2.959   4.211 -0.7785 -1.7103 -4.0552
 8121TIP3   OH245853   2.125   5.359  11.204  0.3700  0.6039 -0.3811
 8121TIP3    H145854   2.138   5.419  11.130 -2.1309 -0.7057 -2.0374
 8121TIP3    H245855   2.072   5.288  11.168 -2.0340  0.4688  2.9375
 8122TIP3   OH245856   0.915   4.651   6.044 -0.2024 -0.4286 -0.5963
 8122TIP3    H145857   0.869   4.727   6.078  1.0482  0.4455 -0.8022
 8122TIP3    H245858   1.007   4.677   6.041  0.6882 -2.8090  1.8239
 8123TIP3   OH245859   0.093   2.533   5.538  0.1571  0.0106  0.2886
 8123TIP3    H145860   0.154   2.513   5.610  1.6897 -0.5333 -1.1002
 8123TIP3    H245861   0.121   2.619   5.506 -0.3326  0.1249  0.1692
 8124TIP3   OH245862   5.792   2.131  12.193 -0.4363  0.5191  0.3716
 8124TIP3    H145863   5.808   2.224  12.208 -0.7829  0.3567  1.8521
 8124TIP3    H245864   5.877   2.097  12.163 -0.2140  1.2270  0.1756
 8125TIP3   OH245865   3.151   4.143   4.551 -0.0147 -0.1559 -0.0056
 8125TIP3    H145866   3.069   4.096   4.570  1.3643 -2.0444  1.6906
 8125TIP3    H245867   3.124   4.214   4.492 -3.1794  0.4091  1.8163
 8126TIP3   OH245868   2.405   2.438   3.765  0.7205 -0.3547 -0.3274
 8126TIP3    H145869   2.483   2.428   3.710  2.4293  1.3557  1.6143
 8126TIP3    H245870   2.427   2.509   3.825 -2.3259  0.0979  0.4052
 8127TIP3   OH245871   3.161   2.826   6.027  0.0082 -0.2232 -0.1847
 8127TIP3    H145872   3.104   2.903   6.030  0.4743  0.1404 -0.5161
 8127TIP3    H245873   3.129   2.775   5.952 -0.7090 -0.6875  0.4164
 8128TIP3   OH245874   3.933   5.720   3.649  0.6411 -0.4094 -0.3889
 8128TIP3    H145875   3.871   5.763   3.589  0.1238 -0.0260  0.3877
 8128TIP3    H245876   3.922   5.768   3.732  0.8380 -1.3613  0.2003
 8129TIP3   OH245877   5.527   4.001  13.700 -0.5699 -0.0736 -0.0626
 8129TIP3    H145878   5.550   4.009  13.793 -1.1100  0.2280  0.0506
 8129TIP3    H245879   5.457   3.936  13.698 -0.4132 -0.2367 -0.2854
 8130TIP3   OH245880   2.982   4.642   0.041 -0.2811 -0.0683 -0.2188
 8130TIP3    H145881   3.004   4.550   0.027  0.1244  0.1285 -0.9652
 8130TIP3    H245882   3.034   4.668   0.118 -1.8513 -0.9424  1.1862
 8131TIP3   OH245883   0.215   4.620  13.899  0.5153 -0.3900 -0.0315
 8131TIP3    H145884   0.194   4.529  13.876  0.3445 -0.6283  1.0283
 8131TIP3    H245885   0.305   4.615  13.932  0.7021 -0.0747 -0.4789
 8132TIP3   OH245886   5.434   1.733   0.701  0.1810 -0.2059  0.5769
 8132TIP3    H145887   5.349   1.697   0.728 -0.0835  0.0420  0.0880
 8132TIP3    H245888   5.493   1.714   0.774 -0.4649  0.2508  1.2256
 8133TIP3   OH245889   6.697   3.865  15.910 -0.7595 -0.0429  0.4969
 8133TIP3    H145890   6.626   3.838  15.852 -2.0986  1.7448  1.2142
 8133TIP3    H245891   6.681   3.958  15.926  0.9772  0.0824  1.7890
 8134TIP3   OH245892   3.258   0.901   3.805 -0.1857  0.0198  0.3923
 8134TIP3    H145893   3.317   0.976   3.803 -0.2115  0.1033  1.5344
 8134TIP3    H245894   3.170   0.940   3.803 -0.1972 -0.0426 -0.2197
 8135TIP3   OH245895   3.839   5.351  12.132 -0.4659 -0.1401  0.5581
 8135TIP3    H145896   3.747   5.339  12.152 -0.5626  0.8023  0.7353
 8135TIP3    H245897   3.876   5.263  12.133 -0.8492 -0.3456  3.0078
 8136TIP3   OH245898   5.867   5.664   4.093 -0.0620  0.3780  0.0146
 8136TIP3    H145899   5.813   5.647   4.170 -0.1186  1.9744  0.3675
 8136TIP3    H245900   5.860   5.759   4.079  1.7541  0.4615 -0.6106
 8137TIP3   OH245901   6.553   5.068  17.322 -0.2563 -0.2076  0.1649
 8137TIP3    H145902   6.589   4.996  17.271  0.0332  0.5137 -0.6899
 8137TIP3    H245903   6.458   5.052  17.323 -0.2835 -0.1746 -0.7275
 8138TIP3   OH245904   4.462   1.429  12.200 -0.1908 -0.3540 -0.2950
 8138TIP3    H145905   4.505   1.361  12.147  2.8984 -0.0374  1.5340
 8138TIP3    H245906   4.453   1.503  12.140 -1.7047 -1.6275 -1.7426
 8139TIP3   OH245907   2.024   3.365   6.170  0.4911  0.1637  0.0635
 8139TIP3    H145908   1.986   3.452   6.162  0.8956  0.2560 -0.9951
 8139TIP3    H245909   2.099   3.376   6.229  0.7471  0.6005 -0.3428
 8140TIP3   OH245910   5.160   2.894   0.483 -0.1793 -0.3602  0.0098
 8140TIP3    H145911   5.161   2.846   0.400  1.1005 -2.1611  0.9860
 8140TIP3    H245912   5.248   2.928   0.492 -0.2025 -0.4842  0.7847
 8141TIP3   OH245913   2.130   3.276   3.131  0.0948 -0.0028 -0.1963
 8141TIP3    H145914   2.213   3.259   3.174 -0.1685  0.2041  0.3994
 8141TIP3    H245915   2.065   3.271   3.201 -0.3535  0.1848 -0.5949
 8142TIP3   OH245916   0.528   4.850   5.361 -0.0978 -0.0483 -0.2768
 8142TIP3    H145917   0.455   4.898   5.398 -0.0915 -0.9545  0.9552
 8142TIP3    H245918   0.493   4.763   5.342  0.6896 -0.5525  0.5017
 8143TIP3   OH245919   0.800   6.401   0.049  0.1637 -0.2983 -0.4181
 8143TIP3    H145920   0.864   6.331   0.060  1.8174  0.5345 -3.5660
 8143TIP3    H245921   0.812   6.456   0.126  2.0901 -1.0725 -0.0988
 8144TIP3   OH245922   0.233   3.750  15.259  0.5168 -0.2280  0.2303
 8144TIP3    H145923   0.204   3.841  15.260 -0.2530 -0.4484 -0.5897
 8144TIP3    H245924   0.247   3.731  15.167 -1.1571 -1.4816  0.1864
 8145TIP3   OH245925   6.683   4.348  16.093 -0.0414  0.1064 -0.0290
 8145TIP3    H145926   6.734   4.267  16.090  1.9397  1.2786  0.3512
 8145TIP3    H245927   6.614   4.335  16.029  0.3159 -1.8234 -0.0791
 8146TIP3   OH245928   5.692   4.151   4.418  0.2725 -0.0135 -0.2949
 8146TIP3    H145929   5.625   4.135   4.351  1.5978  0.0342 -1.6932
 8146TIP3    H245930   5.773   4.120   4.378  0.7752 -2.5326  2.3407
 8147TIP3   OH245931   2.933   3.187   0.067  0.2354  0.0842 -0.0440
 8147TIP3    H145932   2.952   3.199   0.160  1.7371 -2.3949  0.0475
 8147TIP3    H245933   2.862   3.123   0.065  1.7169 -1.6235 -0.5527
 8148TIP3   OH245934   3.608   5.354  13.125 -0.4045  0.0934  0.4371
 8148TIP3    H145935   3.566   5.288  13.070 -0.1542  0.0009  0.3549
 8148TIP3    H245936   3.618   5.431  13.069  2.7330 -0.9760 -0.7205
 8149TIP3   OH245937   1.069   1.500  16.985  0.3704 -0.3238  0.2366
 8149TIP3    H145938   1.000   1.548  16.940  1.1071  0.5332 -0.0100
 8149TIP3    H245939   1.148   1.551  16.970  1.1374 -1.4607  0.2265
 8150TIP3   OH245940   1.193   0.323  12.086  0.2844 -0.3383  0.2143
 8150TIP3    H145941   1.151   0.342  12.170 -0.9739 -1.7778 -0.0571
 8150TIP3    H245942   1.276   0.371  12.090 -0.0658  0.1931  1.9850
 8151TIP3   OH245943   2.449   0.490   5.439 -0.7674  0.4471 -0.2181
 8151TIP3    H145944   2.530   0.515   5.394 -1.0541  0.4161 -0.7619
 8151TIP3    H245945   2.478   0.442   5.516 -0.2792 -0.9145 -1.2077
 8152TIP3   OH245946   3.921   1.045  16.747  0.1436  1.1705  0.1562
 8152TIP3    H145947   3.952   1.129  16.782 -1.6970  2.8324 -1.9400
 8152TIP3    H245948   3.827   1.044  16.766  0.2182 -0.7057  0.6029
 8153TIP3   OH245949   3.399   0.339  13.436  0.3774 -0.1968 -0.7870
 8153TIP3    H145950   3.476   0.284  13.446 -0.5148 -1.3168  0.3778
 8153TIP3    H245951   3.423   0.423  13.476  1.0614 -0.4483 -0.6664
 8154TIP3   OH245952   4.419   5.246  15.694 -0.5775  0.2998  0.2180
 8154TIP3    H145953   4.420   5.273  15.602  1.0378 -0.0692  0.0961
 8154TIP3    H245954   4.337   5.197  15.703 -1.0030  0.7528 -0.8868
 8155TIP3   OH245955   3.826   2.062   3.992 -0.2479 -0.6585  0.5449
 8155TIP3    H145956   3.852   2.073   4.083 -1.2160  1.0277  0.6462
 8155TIP3    H245957   3.887   2.117   3.943 -0.1088 -1.0945  0.2193
 8156TIP3   OH245958   5.887   4.200   5.786 -0.1558  0.0932  0.3476
 8156TIP3    H145959   5.969   4.235   5.821  0.2522 -0.3320 -0.1769
 8156TIP3    H245960   5.913   4.125   5.733 -0.6221  1.3581 -1.8164
 8157TIP3   OH245961   1.895   1.620  12.395  0.2225  0.2281 -0.3349
 8157TIP3    H145962   1.862   1.611  12.484  0.8960 -3.1892 -0.2904
 8157TIP3    H245963   1.826   1.585  12.339  1.8503 -3.0890 -0.5539
 8158TIP3   OH245964   4.157   2.575   4.776  0.4631 -0.0100 -0.1205
 8158TIP3    H145965   4.138   2.498   4.828  2.2748 -0.9030 -0.7228
 8158TIP3    H245966   4.090   2.575   4.707  0.2739 -0.8709  0.0629
 8159TIP3   OH245967   0.985   1.238   5.075 -0.0636 -0.2957  0.1975
 8159TIP3    H145968   1.048   1.297   5.117 -1.2067  0.4725  0.8915
 8159TIP3    H245969   0.951   1.288   5.002 -0.9172 -0.1477  0.6888
 8160TIP3   OH245970   2.369   4.967  16.418  0.1852 -0.3682 -0.5670
 8160TIP3    H145971   2.296   4.918  16.457 -0.4543 -0.7805 -2.2000
 8160TIP3    H245972   2.444   4.908  16.425  0.5418  0.2467  1.5683
 8161TIP3   OH245973   4.659   2.355  13.057  0.0050  0.2002  0.6706
 8161TIP3    H145974   4.635   2.399  13.138 -0.0766 -0.1852  0.8604
 8161TIP3    H245975   4.667   2.263  13.082  1.8627  0.3270  0.6588
 8162TIP3   OH245976   0.875   5.134   3.797 -0.3973  0.4045  0.5550
 8162TIP3    H145977   0.930   5.055   3.797 -0.1503  0.5695  1.2261
 8162TIP3    H245978   0.815   5.121   3.870 -2.1669 -0.3755 -0.9697
 8163TIP3   OH245979   2.035   3.815   2.424  0.3147  0.1910  0.2790
 8163TIP3    H145980   2.075   3.890   2.468  1.5952 -1.2561  1.6927
 8163TIP3    H245981   1.941   3.827   2.437  0.5727  0.8030  1.7484
 8164TIP3   OH245982   0.547   4.795   4.471 -0.1643 -0.1011 -0.3604
 8164TIP3    H145983   0.480   4.821   4.408 -0.2074 -0.6694 -0.5561
 8164TIP3    H245984   0.547   4.865   4.536 -1.3723 -0.3830 -0.0244
 8165TIP3   OH245985   2.659   1.598   0.203 -0.2855  0.0600 -0.2357
 8165TIP3    H145986   2.636   1.613   0.111  1.6628  1.2110 -0.5967
 8165TIP3    H245987   2.753   1.580   0.201 -0.2699 -0.1768  1.5196
 8166TIP3   OH245988   4.234   4.892   2.410 -0.4203  0.3774 -0.4221
 8166TIP3    H145989   4.241   4.846   2.326 -0.9438  0.1582 -0.3482
 8166TIP3    H245990   4.319   4.935   2.421 -1.1555  2.4939 -2.2588
 8167TIP3   OH245991   0.348   2.652  12.203 -0.0351 -0.1452  0.7508
 8167TIP3    H145992   0.349   2.637  12.108 -0.9357 -0.5068  0.7897
 8167TIP3    H245993   0.428   2.609  12.235  0.2456 -0.0708  0.1661
 8168TIP3   OH245994   5.101   3.738  16.156 -0.4335 -0.2435  0.3821
 8168TIP3    H145995   5.157   3.665  16.182  0.9005  0.5630 -0.1072
 8168TIP3    H245996   5.099   3.735  16.060 -1.4501 -0.4086  0.3976
 8169TIP3   OH245997   1.530   0.657   4.098  0.2987  0.2075  0.2815
 8169TIP3    H145998   1.537   0.735   4.153  0.4318  0.2221  0.2435
 8169TIP3    H245999   1.446   0.618   4.123  0.8043 -0.3270  1.2059
 8170TIP3   OH246000   1.096   5.385   6.767  0.3205 -0.0679 -0.4025
 8170TIP3    H146001   1.017   5.383   6.714 -0.9447  1.9404  1.2788
 8170TIP3    H246002   1.096   5.302   6.814  0.0404 -0.7186 -1.5151
 8171TIP3   OH246003   0.433   1.176   1.247  0.2418 -0.4949  0.3512
 8171TIP3    H146004   0.378   1.252   1.225 -0.9427 -0.6788  2.3897
 8171TIP3    H246005   0.447   1.132   1.164 -1.2427  0.5523 -0.5080
 8172TIP3   OH246006   1.153   0.716  11.538  0.4369  0.1648  0.1721
 8172TIP3    H146007   1.083   0.696  11.600  0.9130 -0.0674  0.6392
 8172TIP3    H246008   1.166   0.810  11.547 -1.1598  0.5912 -1.3483
 8173TIP3   OH246009   3.056   0.833  12.806  0.2118 -0.6525  0.1197
 8173TIP3    H146010   2.997   0.898  12.769 -0.9046 -0.7479  1.6581
 8173TIP3    H246011   3.104   0.879  12.874 -1.2484 -1.5904  1.8668
 8174TIP3   OH246012   6.477   5.138  11.794 -0.3183  0.0063  0.3674
 8174TIP3    H146013   6.383   5.158  11.798 -0.5673 -1.1963  1.0239
 8174TIP3    H246014   6.481   5.043  11.804  0.9923  0.0615  0.4660
 8175TIP3   OH246015   2.683   4.636  12.243  0.6031  0.6080 -0.1253
 8175TIP3    H146016   2.654   4.563  12.297 -0.4823  0.2932 -1.0931
 8175TIP3    H246017   2.637   4.712  12.279  0.6104  0.5604 -0.0155
 8176TIP3   OH246018   4.012   6.743   1.787 -0.2583 -0.1580 -0.3322
 8176TIP3    H146019   3.985   6.660   1.826 -1.1157  1.1574  2.0288
 8176TIP3    H246020   3.931   6.791   1.772  0.3186  0.9070 -0.1367
 8177TIP3   OH246021   0.886   2.048  11.689  0.0769 -0.0661 -0.2021
 8177TIP3    H146022   0.894   1.988  11.763 -2.2362 -1.9367 -1.3535
 8177TIP3    H246023   0.928   2.003  11.616  2.4038  1.7891 -0.1529
 8178TIP3   OH246024   5.728   1.288  11.948 -0.5671  0.1272 -0.5621
 8178TIP3    H146025   5.634   1.304  11.953 -0.7471 -1.2542  1.3274
 8178TIP3    H246026   5.735   1.211  11.892 -0.3485  1.3780 -2.3590
 8179TIP3   OH246027   3.936   3.749   0.925 -0.8472 -0.2657  0.0511
 8179TIP3    H146028   3.939   3.695   1.004 -0.9368 -2.2655 -1.2286
 8179TIP3    H246029   3.908   3.689   0.856  3.8496  0.0321 -2.5096
 8180TIP3   OH246030   6.133   2.149  11.736 -0.2446 -0.2608 -0.0848
 8180TIP3    H146031   6.081   2.078  11.774 -0.0034 -0.8255 -0.7843
 8180TIP3    H246032   6.138   2.215  11.805 -1.4433 -0.4218  0.1670
 8181TIP3   OH246033   4.422   3.762  14.186  0.2904  0.4392 -0.0093
 8181TIP3    H146034   4.432   3.706  14.108  0.6729  1.2720 -0.5748
 8181TIP3    H246035   4.480   3.836  14.169 -0.2535  1.0349  0.7058
 8182TIP3   OH246036   5.608   6.508  17.476  0.0956 -0.6759  0.2263
 8182TIP3    H146037   5.691   6.490  17.519 -0.1148  0.2257  1.0751
 8182TIP3    H246038   5.631   6.559  17.398  0.4394 -1.7752 -0.4038
 8183TIP3   OH246039   5.782   2.072   3.967 -0.0660 -0.0810  0.1799
 8183TIP3    H146040   5.722   2.007   3.930 -1.0713 -0.0726  1.7030
 8183TIP3    H246041   5.870   2.037   3.949 -0.5539 -0.8926 -0.6918
 8184TIP3   OH246042   5.919   0.851   4.692  0.1491 -0.0323  0.2067
 8184TIP3    H146043   5.885   0.934   4.658  0.3240  0.2443  0.6884
 8184TIP3    H246044   5.896   0.853   4.785  0.4062 -0.3941  0.2768
 8185TIP3   OH246045   4.385   3.974   5.028  0.0404  0.1168 -0.7711
 8185TIP3    H146046   4.392   4.048   4.968 -0.1363  0.2128 -0.6733
 8185TIP3    H246047   4.439   3.999   5.104  3.3279 -1.5011 -2.3616
 8186TIP3   OH246048   6.294   5.837   4.079 -0.9099 -0.0248 -0.2284
 8186TIP3    H146049   6.387   5.818   4.088 -1.0340 -1.1508 -1.1659
 8186TIP3    H246050   6.279   5.843   3.985 -1.7342  0.4343 -0.0795
 8187TIP3   OH246051   1.830   0.235   4.287 -0.2865 -0.5596 -0.0118
 8187TIP3    H146052   1.858   0.320   4.323 -1.1011 -0.2092 -0.1737
 8187TIP3    H246053   1.886   0.221   4.211 -0.9985  0.4852 -0.7715
 8188TIP3   OH246054   6.569   3.068  12.989 -0.0944  0.0691  0.3971
 8188TIP3    H146055   6.589   3.065  13.083  0.4120 -1.9599  0.2518
 8188TIP3    H246056   6.537   2.981  12.968 -0.8240  0.6899 -1.2077
 8189TIP3   OH246057   2.465   6.370  17.108 -0.1263 -0.0168 -0.4427
 8189TIP3    H146058   2.440   6.337  17.022 -0.3780  0.3913 -0.5295
 8189TIP3    H246059   2.560   6.378  17.104 -0.3100  2.3979 -1.5719
 8190TIP3   OH246060   3.857   3.032  14.472  0.2534 -0.2202  0.3644
 8190TIP3    H146061   3.811   2.987  14.401  0.9813  0.0169 -0.2701
 8190TIP3    H246062   3.924   2.969  14.500  0.9748  0.2773 -0.2158
 8191TIP3   OH246063   1.766   4.971  14.577 -0.3632 -0.4824 -0.2597
 8191TIP3    H146064   1.812   4.988  14.495 -0.5993  0.5923 -0.1803
 8191TIP3    H246065   1.693   5.032  14.577 -0.0137 -0.0340  1.0283
 8192TIP3   OH246066   2.682   3.516  12.397 -0.3712 -0.2445 -0.3429
 8192TIP3    H146067   2.647   3.604  12.385 -1.3614 -0.5030  0.5140
 8192TIP3    H246068   2.612   3.468  12.440  0.6835 -1.0516  0.5319
 8193TIP3   OH246069   5.512   6.114   5.513 -0.2562  0.3277 -0.0028
 8193TIP3    H146070   5.471   6.029   5.525 -0.2815  0.3582  0.1311
 8193TIP3    H246071   5.448   6.166   5.465  0.4784 -0.3016 -1.7453
 8194TIP3   OH246072   0.700   2.668  16.905 -0.0589  0.1607 -0.0343
 8194TIP3    H146073   0.736   2.658  16.993  0.0047 -2.6930 -0.2909
 8194TIP3    H246074   0.721   2.586  16.861 -0.9426  1.1231 -2.4242
 8195TIP3   OH246075   4.791   0.496  14.414  0.1880  0.1939  0.1100
 8195TIP3    H146076   4.779   0.486  14.508 -0.2749 -1.0439 -0.0620
 8195TIP3    H246077   4.863   0.559  14.406  0.6157 -0.1122  1.2897
 8196TIP3   OH246078   0.996   0.571   5.269 -0.0760  0.3391  0.0854
 8196TIP3    H146079   0.905   0.546   5.250 -0.3020  0.8947  0.3845
 8196TIP3    H246080   1.049   0.508   5.222 -0.6175 -0.6649  0.7921
 8197TIP3   OH246081   1.746   1.425  14.119  0.6759  0.3329 -0.2704
 8197TIP3    H146082   1.802   1.462  14.051  0.0460  1.9442  0.0517
 8197TIP3    H246083   1.767   1.475  14.198 -0.7213  0.5219  0.0154
 8198TIP3   OH246084   1.545   6.409  14.431  0.0021  0.0391 -0.3805
 8198TIP3    H146085   1.524   6.463  14.506  1.1320  0.4296 -0.3397
 8198TIP3    H246086   1.505   6.324  14.451  0.3595  0.1117  0.6948
 8199TIP3   OH246087   5.835   3.991  12.776 -0.4865  0.0238 -0.7830
 8199TIP3    H146088   5.810   4.046  12.850 -3.2503 -0.2637 -1.3928
 8199TIP3    H246089   5.821   4.047  12.699  0.7469 -0.2223 -1.2193
 8200TIP3   OH246090   0.910   0.677   3.536  0.0517 -0.2178  0.5467
 8200TIP3    H146091   0.846   0.617   3.496 -0.2803  0.3530  0.2034
 8200TIP3    H246092   0.887   0.763   3.500  2.5405 -0.3160 -1.5077
 8201TIP3   OH246093   1.732   4.536  17.438  0.2231 -0.1525 -0.3456
 8201TIP3    H146094   1.728   4.440  17.435  1.0717 -0.2249  0.2554
 8201TIP3    H246095   1.822   4.557  17.412  0.1511  0.4603 -0.1235
 8202TIP3   OH246096   5.426   4.216   3.838  0.6444  0.8224  0.3564
 8202TIP3    H146097   5.512   4.189   3.807 -0.0152 -0.0984 -0.7442
 8202TIP3    H246098   5.444   4.276   3.910  2.1969  0.5574  0.2135
 8203TIP3   OH246099   3.346   0.185   6.562  0.1716  0.6514 -0.0055
 8203TIP3    H146100   3.263   0.137   6.567 -0.3799  1.1610 -2.7314
 8203TIP3    H246101   3.411   0.118   6.543 -0.0632  0.5665 -0.5288
 8204TIP3   OH246102   3.563   5.882  16.280  0.1709 -0.7038  0.4805
 8204TIP3    H146103   3.545   5.828  16.357 -0.1828 -1.3270 -0.0282
 8204TIP3    H246104   3.636   5.937  16.305 -1.6276  1.0634  2.2251
 8205TIP3   OH246105   5.482   1.065  10.822 -0.0631 -0.0054 -0.1114
 8205TIP3    H146106   5.395   1.064  10.862 -1.5742  2.1608 -2.8940
 8205TIP3    H246107   5.464   1.064  10.728  2.7274  3.1533 -0.8720
 8206TIP3   OH246108   2.305   2.774  17.282  0.3576  0.7025 -0.0729
 8206TIP3    H146109   2.283   2.711  17.351  0.2142  0.8806  0.0455
 8206TIP3    H246110   2.311   2.721  17.203 -0.2522  0.6061 -0.0645
 8207TIP3   OH246111   6.512   2.451  11.107 -0.3275 -0.1593 -0.4802
 8207TIP3    H146112   6.575   2.448  11.035 -0.7988 -1.8425 -0.8755
 8207TIP3    H246113   6.426   2.455  11.064 -0.5508  1.2119  0.0399
 8208TIP3   OH246114   3.277   5.879   2.391  0.9653  0.4689 -0.5167
 8208TIP3    H146115   3.344   5.812   2.407 -0.0527 -0.2328  1.0218
 8208TIP3    H246116   3.274   5.929   2.472 -0.1946  0.6718 -0.6763
 8209TIP3   OH246117   0.736   4.878  15.170  0.2098  0.2001 -0.1361
 8209TIP3    H146118   0.748   4.784  15.182  1.5454  0.3364 -0.2434
 8209TIP3    H246119   0.816   4.907  15.127 -0.0756  1.4292  0.1289
 8210TIP3   OH246120   0.628   1.480  12.955 -0.4138  0.6528 -0.3353
 8210TIP3    H146121   0.691   1.475  12.883 -2.0999 -1.0541 -1.8074
 8210TIP3    H246122   0.668   1.428  13.025  0.0617  0.0440 -1.0419
 8211TIP3   OH246123   5.331   1.633   5.089  0.3615 -0.0968  0.1702
 8211TIP3    H146124   5.368   1.555   5.131  0.0108 -0.1197  0.4456
 8211TIP3    H246125   5.405   1.671   5.041  0.5438 -0.5815  0.0518
 8212TIP3   OH246126   5.501   1.197  16.627  0.0933 -0.3715 -0.0215
 8212TIP3    H146127   5.437   1.246  16.575  0.0078 -1.4116 -0.9305
 8212TIP3    H246128   5.506   1.245  16.710  0.4237  1.4860 -1.0561
 8213TIP3   OH246129   6.426   2.389  12.873  0.6667 -0.0233  0.0374
 8213TIP3    H146130   6.505   2.372  12.923  0.8439  1.6437  0.3758
 8213TIP3    H246131   6.375   2.449  12.927 -1.0104 -1.3100 -0.0201
 8214TIP3   OH246132   0.947   6.500  16.595 -0.3484  0.2848 -0.1804
 8214TIP3    H146133   0.883   6.542  16.653 -0.9971  1.6406 -1.7884
 8214TIP3    H246134   0.899   6.427  16.557  0.1259 -0.7016  1.0459
 8215TIP3   OH246135   0.910   1.348  11.995 -0.7637  0.2136  0.1093
 8215TIP3    H146136   0.912   1.345  12.091 -0.0570 -2.4790  0.0978
 8215TIP3    H246137   1.000   1.329  11.969 -1.0087  0.6259 -1.0962
 8216TIP3   OH246138   1.622   3.661  14.521  0.3137  0.3563  0.0889
 8216TIP3    H146139   1.626   3.744  14.569  0.4166  0.1340  0.4668
 8216TIP3    H246140   1.545   3.669  14.466 -1.5782 -0.5458  2.4423
 8217TIP3   OH246141   1.554   4.842  11.584 -0.1556 -1.1871 -0.5434
 8217TIP3    H146142   1.620   4.810  11.523  0.0527 -1.8828  0.0319
 8217TIP3    H246143   1.482   4.872  11.528  0.7407 -0.1841 -1.1823
 8218TIP3   OH246144   2.782   0.803  12.943  0.5992  0.4506 -0.1012
 8218TIP3    H146145   2.828   0.818  12.860  0.7876  2.7417  0.3563
 8218TIP3    H246146   2.704   0.859  12.938 -1.3300 -2.0353 -0.1358
 8219TIP3   OH246147   1.980   3.306  14.787  0.3280 -0.4566 -0.1312
 8219TIP3    H146148   1.897   3.298  14.739  1.5014 -0.3903 -2.3083
 8219TIP3    H246149   2.006   3.397  14.774 -0.0874  0.0399  2.0985
 8220TIP3   OH246150   5.736   4.398   3.497 -0.1811 -0.3290 -0.8033
 8220TIP3    H146151   5.666   4.461   3.513 -0.0949 -0.6230  0.8927
 8220TIP3    H246152   5.692   4.321   3.460 -1.2228 -1.4319  2.3720
 8221TIP3   OH246153   5.055   2.379   3.504 -0.3630 -0.3308  0.6933
 8221TIP3    H146154   5.090   2.315   3.443 -1.7805  0.1523 -0.6822
 8221TIP3    H246155   5.077   2.464   3.465  2.0354  0.1383  2.7819
 8222TIP3   OH246156   0.073   4.882  10.391  0.0486 -0.3785  0.3126
 8222TIP3    H146157   0.113   4.942  10.454 -1.1959  0.3168  0.4618
 8222TIP3    H246158   0.140   4.871  10.323  0.9440 -0.1932  1.1328
 8223TIP3   OH246159   4.023   4.922   0.152  0.4771 -0.3523 -0.1691
 8223TIP3    H146160   4.066   4.995   0.107 -2.5890  0.9427 -1.2957
 8223TIP3    H246161   4.093   4.859   0.169  3.0678  2.3037 -0.2036
 8224TIP3   OH246162   4.394   1.258  17.205 -0.1147  0.2744 -0.4093
 8224TIP3    H146163   4.432   1.330  17.255 -1.5549 -0.6199  2.1213
 8224TIP3    H246164   4.460   1.189  17.209  0.1079  0.4853 -0.4245
 8225TIP3   OH246165   3.824   1.447  13.135 -0.0014 -0.2641  0.5259
 8225TIP3    H146166   3.918   1.446  13.152  0.1383 -0.8194 -0.2008
 8225TIP3    H246167   3.808   1.367  13.085 -0.7298  0.2201 -0.0410
 8226TIP3   OH246168   4.323   0.706   2.369 -0.0972 -0.0587 -0.2308
 8226TIP3    H146169   4.389   0.728   2.435 -1.1451 -0.8691  1.1564
 8226TIP3    H246170   4.337   0.769   2.298  0.9423  0.9844  0.8575
 8227TIP3   OH246171   2.170   6.264  11.138  0.1231 -0.0288  0.2257
 8227TIP3    H146172   2.143   6.172  11.142 -1.6886  0.5040  2.6339
 8227TIP3    H246173   2.123   6.300  11.063  0.0854 -0.8618 -0.1547
 8228TIP3   OH246174   1.426   4.788  16.350  0.6923 -0.7118  0.3877
 8228TIP3    H146175   1.441   4.823  16.437  0.3250  0.8892 -0.1532
 8228TIP3    H246176   1.444   4.862  16.291 -1.1093 -1.1009 -0.7481
 8229TIP3   OH246177   4.807   2.773  14.387 -0.2148 -0.1264  0.2986
 8229TIP3    H146178   4.769   2.752  14.302  0.4226 -0.4355  0.0826
 8229TIP3    H246179   4.737   2.756  14.450 -0.3543 -0.9218 -0.0689
 8230TIP3   OH246180   1.894   0.819   2.322 -0.0836  0.2303  0.0678
 8230TIP3    H146181   1.862   0.750   2.380 -0.4187  0.1997 -0.1526
 8230TIP3    H246182   1.815   0.860   2.287  0.1012 -0.1519 -0.8424
 8231TIP3   OH246183   2.751   5.677   6.462 -0.3827  0.3045 -1.0449
 8231TIP3    H146184   2.697   5.679   6.542  0.0433 -2.2742 -0.5974
 8231TIP3    H246185   2.790   5.590   6.462  2.4159  1.4271 -2.2888
 8232TIP3   OH246186   2.933   2.614   5.192  0.1760 -0.1405 -0.4540
 8232TIP3    H146187   2.879   2.614   5.271 -1.6849  1.6188 -1.6322
 8232TIP3    H246188   2.978   2.699   5.194  1.0228 -0.5653 -0.7415
 8233TIP3   OH246189   0.430   2.496  11.575 -0.1740 -0.1741  0.4665
 8233TIP3    H146190   0.504   2.504  11.515 -0.8896  1.3687 -0.2598
 8233TIP3    H246191   0.469   2.508  11.662  0.5751 -0.4584  0.1807
 8234TIP3   OH246192   5.711   1.695   0.839  0.1410 -0.5241 -0.1686
 8234TIP3    H146193   5.723   1.643   0.760 -0.3590 -1.9792  0.6889
 8234TIP3    H246194   5.664   1.638   0.899 -2.7352  1.7063 -0.0589
 8235TIP3   OH246195   4.511   3.034   5.242  0.1311  0.8610 -0.1352
 8235TIP3    H146196   4.416   3.034   5.233  0.0124  0.0035  0.9370
 8235TIP3    H246197   4.533   3.125   5.261 -0.4725  1.0540 -0.3294
 8236TIP3   OH246198   2.137   6.426  15.107  0.0072 -0.0956  0.5450
 8236TIP3    H146199   2.223   6.389  15.123 -0.5653 -1.4098  0.7054
 8236TIP3    H246200   2.115   6.473  15.187  0.9698  1.1110  0.1372
 8237TIP3   OH246201   4.263   2.786  15.385 -0.1878  0.3160 -0.5726
 8237TIP3    H146202   4.304   2.749  15.463  0.7215  0.0646 -1.1507
 8237TIP3    H246203   4.318   2.861  15.362 -0.0307 -0.0283 -1.3679
 8238TIP3   OH246204   2.272   3.999  12.526  0.3496  0.2307 -0.4861
 8238TIP3    H146205   2.186   3.982  12.565  0.7737  1.9775  1.3827
 8238TIP3    H246206   2.253   4.048  12.447 -0.4014  0.0516 -0.4248
 8239TIP3   OH246207   2.705   4.042  14.518  0.0675 -0.3359  0.8561
 8239TIP3    H146208   2.796   4.015  14.531 -0.5720 -2.4601  1.4072
 8239TIP3    H246209   2.656   3.988  14.580 -1.6656  0.0552 -0.1302
 8240TIP3   OH246210   3.897   1.904   0.587  0.2261 -0.2826  0.7653
 8240TIP3    H146211   3.975   1.849   0.586  1.7842  1.7685  1.7656
 8240TIP3    H246212   3.863   1.899   0.497  0.3334 -2.7169  0.7989
 8241TIP3   OH246213   1.930   5.537  17.257 -0.2540  0.1499 -0.2248
 8241TIP3    H146214   1.996   5.495  17.202 -0.7241 -0.8984 -0.0114
 8241TIP3    H246215   1.911   5.620  17.213  2.3196  1.2487  0.5262
 8242TIP3   OH246216   5.578   2.408  16.419  0.2098  0.3717  0.3799
 8242TIP3    H146217   5.636   2.472  16.461 -0.5320  0.4791  1.2741
 8242TIP3    H246218   5.499   2.458  16.398  0.3253  0.1659 -0.5951
 8243TIP3   OH246219   3.024   5.579   1.540  0.6458 -0.9701  0.6100
 8243TIP3    H146220   3.113   5.611   1.524  0.4112 -0.9960 -0.8495
 8243TIP3    H246221   2.970   5.658   1.545  0.7107 -0.9629  1.3298
 8244TIP3   OH246222   5.838   6.666  12.720 -0.1296  0.1445 -0.3240
 8244TIP3    H146223   5.778   6.607  12.766 -0.9584 -1.2181 -2.9486
 8244TIP3    H246224   5.919   6.616  12.711  0.2145  0.6136  0.1276
 8245TIP3   OH246225   5.690   1.236  17.073 -0.0747 -0.4137  0.0894
 8245TIP3    H146226   5.720   1.173  17.008  0.1497  0.6911 -0.9224
 8245TIP3    H246227   5.640   1.184  17.136  0.0864 -1.5836 -0.7164
 8246TIP3   OH246228   5.712   1.765  12.974 -0.1273 -0.2538  0.4027
 8246TIP3    H146229   5.671   1.695  13.024 -1.9001 -1.6613 -2.7742
 8246TIP3    H246230   5.657   1.842  12.990 -1.1227 -0.8814  0.0449
 8247TIP3   OH246231   2.989   6.507   5.377  0.1332 -0.1598  0.1014
 8247TIP3    H146232   2.992   6.555   5.294 -0.2156  0.2982  0.3547
 8247TIP3    H246233   2.936   6.561   5.435  0.9866 -0.1219  0.8597
 8248TIP3   OH246234   2.270   4.859  10.498 -0.3545  0.1030 -0.5710
 8248TIP3    H146235   2.300   4.768  10.489 -1.4127 -0.1166 -2.2833
 8248TIP3    H246236   2.177   4.856  10.475 -0.4810  1.5826 -0.3471
 8249TIP3   OH246237   2.232   2.588   3.469 -0.0737 -0.1230  1.2285
 8249TIP3    H146238   2.272   2.592   3.556  0.6476 -1.1301  0.9521
 8249TIP3    H246239   2.221   2.494   3.452  2.5690 -0.1299 -1.0189
 8250TIP3   OH246240   5.924   2.365  14.955 -0.2652 -0.1206  0.4294
 8250TIP3    H146241   5.977   2.443  14.940  0.1756 -0.6975 -1.2978
 8250TIP3    H246242   5.968   2.319  15.026 -0.5011  1.1503  1.4358
 8251TIP3   OH246243   0.982   0.497   1.185 -0.1595  0.1701  0.4409
 8251TIP3    H146244   0.906   0.475   1.131  1.0720 -0.5881 -1.0405
 8251TIP3    H246245   1.055   0.452   1.144  1.1832  1.1818  1.6146
 8252TIP3   OH246246   6.260   4.344  12.695 -0.1515 -0.6740  0.3841
 8252TIP3    H146247   6.233   4.277  12.758 -0.2214 -0.4306  0.6127
 8252TIP3    H246248   6.179   4.392  12.675 -0.0795 -0.5872  0.3033
 8253TIP3   OH246249   0.701   6.390   2.000 -0.4758 -0.2632 -0.1558
 8253TIP3    H146250   0.697   6.294   1.995  0.8879 -0.4540  1.6693
 8253TIP3    H246251   0.650   6.412   2.078 -0.7528  0.5178 -0.5470
 8254TIP3   OH246252   2.381   2.455  13.463  0.0555 -0.1169 -0.6926
 8254TIP3    H146253   2.391   2.497  13.378 -0.4144 -1.4423 -1.4390
 8254TIP3    H246254   2.345   2.368  13.442  1.7051 -1.1889  0.7130
 8255TIP3   OH246255   1.008   4.908  17.091  0.0629 -0.2837 -0.6212
 8255TIP3    H146256   1.077   4.927  17.155 -0.2081  1.0747 -0.7060
 8255TIP3    H246257   0.926   4.927  17.136 -0.1854 -0.4540 -0.9938
 8256TIP3   OH246258   1.618   5.427  14.337 -0.4970 -0.0332  1.1988
 8256TIP3    H146259   1.620   5.348  14.392  1.1064 -0.6348  0.3715
 8256TIP3    H246260   1.705   5.429  14.296 -0.9286  1.5210  0.2806
 8257TIP3   OH246261   2.327   0.476  11.961 -0.3500 -0.1906  0.2180
 8257TIP3    H146262   2.367   0.557  11.929  1.9576 -0.8920  1.1362
 8257TIP3    H246263   2.335   0.415  11.888 -3.0191  0.5823 -0.8559
 8258TIP3   OH246264   2.033   5.911   2.236 -0.0993 -0.3940 -0.2821
 8258TIP3    H146265   2.016   5.955   2.153 -1.4662  0.2817  0.3231
 8258TIP3    H246266   2.099   5.965   2.279 -0.7415  0.2861 -0.1465
 8259TIP3   OH246267   5.659   0.380   3.620 -0.5712 -0.0454  0.0479
 8259TIP3    H146268   5.728   0.442   3.645  0.5719 -0.9069 -0.8345
 8259TIP3    H246269   5.600   0.430   3.564 -0.3280  0.5594  0.3295
 8260TIP3   OH246270   4.948   3.516  17.214  0.2651 -0.0424 -0.1489
 8260TIP3    H146271   4.889   3.472  17.153 -0.6000 -0.7851  1.1788
 8260TIP3    H246272   4.998   3.446  17.254 -0.5039  0.2153  1.3437
 8261TIP3   OH246273   3.590   3.528   1.079 -0.5854  0.3673 -0.7730
 8261TIP3    H146274   3.607   3.599   1.141  0.7284 -0.7457  0.1881
 8261TIP3    H246275   3.499   3.502   1.098 -0.4365  0.5132  0.2307
 8262TIP3   OH246276   1.247   2.559   4.344  0.9529 -0.9209 -0.0768
 8262TIP3    H146277   1.181   2.507   4.392  0.6555 -0.8641 -0.4195
 8262TIP3    H246278   1.273   2.503   4.271 -0.8192  0.1480 -1.6107
 8263TIP3   OH246279   5.177   3.125  16.453  0.5931 -0.0893 -0.3527
 8263TIP3    H146280   5.170   3.032  16.474  0.0094 -0.3978 -1.7854
 8263TIP3    H246281   5.142   3.133  16.364 -1.0011  1.7590  0.3425
 8264TIP3   OH246282   6.557   0.806  12.964  0.2312 -0.1033  0.1100
 8264TIP3    H146283   6.525   0.896  12.957  1.3875  0.6864  3.3602
 8264TIP3    H246284   6.628   0.800  12.900  1.8291  2.2017  1.5351
 8265TIP3   OH246285   5.098   3.019  13.975 -0.0957  0.1002  0.2499
 8265TIP3    H146286   5.187   3.013  14.008 -0.0975  0.9537  0.4450
 8265TIP3    H246287   5.075   3.112  13.984 -1.1200 -0.1567  0.5233
 8266TIP3   OH246288   4.270   1.496   5.886  0.2698  0.0233 -0.7339
 8266TIP3    H146289   4.220   1.517   5.808 -0.3867 -0.5387 -0.4714
 8266TIP3    H246290   4.223   1.423   5.927  1.2101 -0.4211 -0.4015
 8267TIP3   OH246291   4.687   5.578  13.851 -0.2592  0.3008  0.1407
 8267TIP3    H146292   4.684   5.559  13.945  0.5930  1.2535  0.3831
 8267TIP3    H246293   4.681   5.674  13.847  4.1172  0.7501 -0.4578
 8268TIP3   OH246294   3.595   1.779  14.674 -0.0545 -0.0655 -0.0190
 8268TIP3    H146295   3.678   1.799  14.718 -0.6124  0.8441  0.6620
 8268TIP3    H246296   3.586   1.684  14.684 -0.8504  0.2115  3.2474
 8269TIP3   OH246297   6.699   3.204   5.903 -0.0251  0.0070 -0.0653
 8269TIP3    H146298   6.788   3.239   5.901  0.2207 -0.5083  1.0176
 8269TIP3    H246299   6.704   3.124   5.851  0.2772 -0.2823  0.3937
 8270TIP3   OH246300   4.720   4.328  10.806 -0.7624 -0.1435 -0.3430
 8270TIP3    H146301   4.797   4.290  10.849 -1.7117 -0.4367  1.1508
 8270TIP3    H246302   4.715   4.417  10.841 -1.1619 -0.1583 -0.3675
 8271TIP3   OH246303   5.629   4.238   4.997  0.0681  0.5419 -0.6102
 8271TIP3    H146304   5.602   4.146   5.001  0.2066  0.5529  1.5503
 8271TIP3    H246305   5.663   4.257   5.084  0.7718  2.4409 -1.2555
 8272TIP3   OH246306   1.821   1.515  17.264 -0.2066  0.0718 -0.5426
 8272TIP3    H146307   1.731   1.540  17.243 -0.7432 -0.6362  0.7994
 8272TIP3    H246308   1.856   1.480  17.182 -1.2232  0.1811 -1.0351
 8273TIP3   OH246309   6.448   6.033  15.392 -0.2908 -0.9569  0.1474
 8273TIP3    H146310   6.534   6.074  15.403 -1.1523  0.8327  0.6516
 8273TIP3    H246311   6.465   5.952  15.344  1.5467 -0.1085 -0.6957
 8274TIP3   OH246312   2.147   4.355  15.507 -0.2393 -0.1328 -0.2283
 8274TIP3    H146313   2.225   4.370  15.454 -0.5345  1.4176 -0.2574
 8274TIP3    H246314   2.152   4.262  15.530  0.6595 -0.4941 -1.7308
 8275TIP3   OH246315   3.758   1.489   2.338  0.3707 -0.1773  0.8734
 8275TIP3    H146316   3.723   1.448   2.259 -0.0559  1.1809  0.3154
 8275TIP3    H246317   3.681   1.523   2.384  0.7851  1.6158  0.3375
 8276TIP3   OH246318   4.926   5.557  17.329  0.5789 -0.9239  0.5797
 8276TIP3    H146319   4.864   5.500  17.375 -0.8083  0.7545  0.8500
 8276TIP3    H246320   4.923   5.640  17.376  1.0594  0.0310 -1.0013
 8277TIP3   OH246321   6.145   0.178  14.889 -0.1486  0.4582  0.4944
 8277TIP3    H146322   6.142   0.269  14.917 -0.2155  0.1048  1.6716
 8277TIP3    H246323   6.195   0.133  14.957  0.2967 -0.3012 -0.3194
 8278TIP3   OH246324   4.185   2.766  11.384  0.7001 -0.2160 -0.1829
 8278TIP3    H146325   4.217   2.679  11.365 -2.6714 -1.8812  0.8718
 8278TIP3    H246326   4.199   2.777  11.479  1.4437  0.5708 -0.3744
 8279TIP3   OH246327   2.683   0.737   4.753  0.7436 -0.3607  0.0546
 8279TIP3    H146328   2.598   0.779   4.740  0.9740  0.4525  1.1200
 8279TIP3    H246329   2.726   0.743   4.668  0.0393 -0.0948 -0.2890
 8280TIP3   OH246330   5.290   6.479  12.233 -0.7722 -0.1635 -0.4770
 8280TIP3    H146331   5.384   6.490  12.243 -1.1366  3.2990  0.7019
 8280TIP3    H246332   5.260   6.449  12.319 -0.9965  1.9396  0.2358
 8281TIP3   OH246333   0.758   0.694  13.443 -0.9058 -0.1913 -0.5412
 8281TIP3    H146334   0.819   0.747  13.494 -1.4316  0.9683 -1.0976
 8281TIP3    H246335   0.726   0.628  13.505  0.0910 -0.1604  0.0361
 8282TIP3   OH246336   3.488   6.132  15.797  0.4270 -0.6914 -0.2338
 8282TIP3    H146337   3.519   6.175  15.877  0.0612 -2.7894  1.1251
 8282TIP3    H246338   3.421   6.071  15.828 -3.7006  2.0764 -2.7451
 8283TIP3   OH246339   5.807   3.894  13.741 -0.1190 -0.4436 -0.1108
 8283TIP3    H146340   5.734   3.909  13.680  1.1839  0.0591 -1.6003
 8283TIP3    H246341   5.867   3.966  13.724  0.5818 -0.6693  1.3339
 8284TIP3   OH246342   3.328   4.147  15.972 -0.4549  0.6551  0.7280
 8284TIP3    H146343   3.295   4.084  16.037  0.1829 -0.0497  0.3820
 8284TIP3    H246344   3.388   4.203  16.022  0.1989 -0.0179  0.7172
 8285TIP3   OH246345   3.075   1.185  11.446  0.2273 -0.1481  0.4617
 8285TIP3    H146346   3.047   1.097  11.421 -1.7242  0.3351  0.8104
 8285TIP3    H246347   3.034   1.243  11.381 -0.1594  0.6412  1.3853
 8286TIP3   OH246348   1.129   6.425  14.102 -0.4107  0.2930 -0.1937
 8286TIP3    H146349   1.139   6.390  14.013  1.9311 -1.3426  0.6232
 8286TIP3    H246350   1.037   6.409  14.123 -0.2056 -2.7260 -1.0322
 8287TIP3   OH246351   1.211   5.741   4.569  0.1500  0.1412 -0.2823
 8287TIP3    H146352   1.285   5.795   4.542 -1.6529  2.0834 -1.6493
 8287TIP3    H246353   1.230   5.718   4.660  2.1832  0.9565 -0.4539
 8288TIP3   OH246354   5.834   6.741  17.508  0.7025  0.5159 -0.1574
 8288TIP3    H146355   5.820   6.687  17.431  0.4402  0.1640  0.1320
 8288TIP3    H246356   5.912   6.793  17.487 -1.0963  2.6812 -1.8929
 8289TIP3   OH246357   5.685   0.301   4.063  0.5492  0.0196 -0.0906
 8289TIP3    H146358   5.605   0.289   4.012  0.4581  1.4410 -0.3224
 8289TIP3    H246359   5.740   0.358   4.010  0.8022  0.8494  1.0140
 8290TIP3   OH246360   0.308   2.663   1.335 -0.3115 -0.0624 -0.3401
 8290TIP3    H146361   0.238   2.614   1.378  0.9515 -0.7950  0.9791
 8290TIP3    H246362   0.277   2.754   1.334 -0.3332  0.0602  2.4711
 8291TIP3   OH246363   2.917   4.936  12.672  0.0519 -0.4619 -0.0676
 8291TIP3    H146364   2.843   4.915  12.615  0.6068 -0.3751 -0.8387
 8291TIP3    H246365   2.928   4.858  12.727 -1.0794 -0.1763  0.5838
 8292TIP3   OH246366   1.392   4.506   5.464  0.0857  0.9098  0.1969
 8292TIP3    H146367   1.434   4.571   5.408  1.1133  1.8307  1.9566
 8292TIP3    H246368   1.404   4.423   5.418 -0.5621  1.8188 -1.7132
 8293TIP3   OH246369   3.687   1.399  14.915  0.3289 -0.2207  0.3480
 8293TIP3    H146370   3.688   1.393  15.010 -1.2550  1.0815  0.4858
 8293TIP3    H246371   3.702   1.309  14.885  2.1172 -0.4613  1.7680
 8294TIP3   OH246372   1.246   3.105   4.723  0.0222  0.0721  0.1259
 8294TIP3    H146373   1.319   3.131   4.780  1.3155 -1.0048 -0.9617
 8294TIP3    H246374   1.187   3.057   4.780 -0.1719  1.4713  1.1665
 8295TIP3   OH246375   2.620   1.776   1.086  0.1148  0.0943 -0.2519
 8295TIP3    H146376   2.668   1.858   1.087 -0.8362  0.7062 -1.9495
 8295TIP3    H246377   2.687   1.709   1.073  0.7457  0.7106 -0.2346
 8296TIP3   OH246378   5.752   2.367  16.704  0.2635 -0.1797  0.2128
 8296TIP3    H146379   5.844   2.376  16.729  0.6311 -1.5203 -0.5810
 8296TIP3    H246380   5.747   2.404  16.616  0.4678 -1.8392 -0.5214
 8297TIP3   OH246381   3.182   1.612  16.255 -0.3566 -0.1957 -0.0900
 8297TIP3    H146382   3.112   1.635  16.315  1.1859  0.4952  1.5566
 8297TIP3    H246383   3.158   1.527  16.220 -1.2999 -0.6378  1.5650
 8298TIP3   OH246384   0.873   1.272  15.212  0.2828 -0.2148  0.1417
 8298TIP3    H146385   0.932   1.347  15.207 -0.1971  0.1254 -0.6988
 8298TIP3    H246386   0.900   1.215  15.140  1.2227 -1.3017  1.3193
 8299TIP3   OH246387   3.553   1.387   1.549  0.9017 -0.5086  0.2405
 8299TIP3    H146388   3.511   1.456   1.602 -0.7683 -1.4049  0.1413
 8299TIP3    H246389   3.543   1.417   1.459 -1.9676 -1.8809 -0.0108
 8300TIP3   OH246390   5.972   6.073  11.822 -0.1673 -0.4949  0.2493
 8300TIP3    H146391   5.965   6.167  11.802  0.9382 -0.3985  0.2416
 8300TIP3    H246392   6.039   6.068  11.890 -0.2437 -1.2842  0.2749
 8301TIP3   OH246393   5.684   5.121  15.296  0.3286 -0.2665 -0.1635
 8301TIP3    H146394   5.708   5.155  15.383 -0.6059 -0.2961  0.1167
 8301TIP3    H246395   5.678   5.026  15.309 -0.7535 -0.1935 -0.0029
 8302TIP3   OH246396   3.732   3.572  15.177  0.2315 -0.2928  0.4446
 8302TIP3    H146397   3.750   3.490  15.222  0.3885 -0.2470  0.4678
 8302TIP3    H246398   3.682   3.624  15.241  1.5727  0.2788  1.0781
 8303TIP3   OH246399   3.215   2.742  12.810 -0.0030 -0.6655 -0.5502
 8303TIP3    H146400   3.167   2.803  12.866 -1.7305 -0.8079 -1.7963
 8303TIP3    H246401   3.201   2.657  12.850 -1.2070 -0.7629 -1.1477
 8304TIP3   OH246402   4.171   1.327   2.653 -0.3673 -0.5977  0.0677
 8304TIP3    H146403   4.133   1.284   2.577 -1.4267  0.9246 -0.2983
 8304TIP3    H246404   4.254   1.362   2.622 -0.6669 -0.2258 -0.3216
 8305TIP3   OH246405   3.484   4.997   6.319  0.5805  0.3294  0.3612
 8305TIP3    H146406   3.400   5.038   6.340 -0.8101 -2.0464 -0.1834
 8305TIP3    H246407   3.469   4.904   6.332  2.8154 -0.2806 -0.9104
 8306TIP3   OH246408   5.790   3.260  15.499 -0.3324 -0.2678  0.2196
 8306TIP3    H146409   5.825   3.312  15.427 -2.2839 -0.0616 -0.6575
 8306TIP3    H246410   5.851   3.186  15.508  0.6455  0.3951 -0.7596
 8307TIP3   OH246411   5.988   1.285  15.977  0.2472 -0.2144  0.2256
 8307TIP3    H146412   6.032   1.359  15.934  0.1245 -0.6549 -0.6824
 8307TIP3    H246413   5.972   1.316  16.066  1.4861  0.3300  0.2893
 8308TIP3   OH246414   5.868   3.501  12.982  0.0205  0.5853 -0.1072
 8308TIP3    H146415   5.819   3.428  13.019  0.5909  0.0467 -0.3877
 8308TIP3    H246416   5.924   3.531  13.054  1.3047 -0.6150 -0.5315
 8309TIP3   OH246417   6.499   0.292   2.333 -0.0863  0.1628  0.0203
 8309TIP3    H146418   6.511   0.370   2.280 -2.4867  0.3065 -0.4124
 8309TIP3    H246419   6.492   0.325   2.423 -3.8846  0.8972 -0.3964
 8310TIP3   OH246420   3.073   4.510   3.868  0.1149  0.1953 -0.4586
 8310TIP3    H146421   3.154   4.560   3.859  0.0316  0.1575 -1.4494
 8310TIP3    H246422   3.086   4.458   3.948  1.8231 -1.1948 -1.5650
 8311TIP3   OH246423   2.841   5.473  16.713  0.0792 -0.1333 -0.6359
 8311TIP3    H146424   2.931   5.440  16.714  0.2943  0.4335  0.0083
 8311TIP3    H246425   2.803   5.440  16.794  0.5917  1.8812  0.5159
 8312TIP3   OH246426   4.778   1.796   3.713 -0.3707 -0.1903 -0.2913
 8312TIP3    H146427   4.864   1.781   3.754 -0.6954 -0.4704  0.3094
 8312TIP3    H246428   4.755   1.885   3.738  0.6337  0.6319 -2.1363
 8313TIP3   OH246429   4.462   2.960   1.786 -0.3637 -0.2229 -0.1303
 8313TIP3    H146430   4.500   2.975   1.872  1.3926  1.3889 -1.1189
 8313TIP3    H246431   4.391   3.024   1.780  0.9315  1.2257 -0.6637
 8314TIP3   OH246432   2.483   3.584  14.872  0.1013 -0.3100  0.0658
 8314TIP3    H146433   2.412   3.523  14.854  1.0599 -1.4880  0.1762
 8314TIP3    H246434   2.555   3.529  14.902  1.0017  0.8787  0.1503
 8315TIP3   OH246435   1.142   4.019   3.240  0.2870 -0.1814  0.4068
 8315TIP3    H146436   1.166   3.927   3.226  0.7648  0.0094 -0.0336
 8315TIP3    H246437   1.219   4.058   3.279 -0.1579 -0.1190  1.2396
 8316TIP3   OH246438   1.448   2.499   2.634 -0.0069 -0.3210 -0.5132
 8316TIP3    H146439   1.520   2.478   2.694  0.1326 -0.2962 -0.6710
 8316TIP3    H246440   1.447   2.428   2.570 -2.0443 -1.9324  1.1886
 8317TIP3   OH246441   2.386   6.487   5.342  0.4810 -0.3316  0.1024
 8317TIP3    H146442   2.349   6.533   5.417  1.3584 -0.1882  0.4598
 8317TIP3    H246443   2.313   6.434   5.308 -0.7478  1.7707 -0.7317
 8318TIP3   OH246444   5.082   1.848  13.263  0.8419 -0.3321  0.2297
 8318TIP3    H146445   5.000   1.814  13.297  0.9239  1.3529  2.3338
 8318TIP3    H246446   5.056   1.903  13.189  0.4132 -2.1098 -1.0007
 8319TIP3   OH246447   0.196   2.286   4.207 -0.3466 -0.5471  0.0289
 8319TIP3    H146448   0.133   2.333   4.152 -0.0344 -1.1961 -0.9205
 8319TIP3    H246449   0.281   2.319   4.178 -0.2151  0.0071  1.0046
 8320TIP3   OH246450   6.175   1.816   5.016  0.1803  0.5439 -0.4965
 8320TIP3    H146451   6.184   1.792   5.108 -1.1903  0.0133 -0.4849
 8320TIP3    H246452   6.208   1.740   4.967  1.2792  0.9779 -0.4740
 8321TIP3   OH246453   3.384   0.706   3.647 -0.1652 -0.0656 -0.6383
 8321TIP3    H146454   3.467   0.751   3.631  0.1460 -0.0187  0.9868
 8321TIP3    H246455   3.338   0.761   3.711 -1.5370 -0.0094 -1.6130
 8322TIP3   OH246456   0.835   1.547  15.647 -0.4180 -0.1403  0.1955
 8322TIP3    H146457   0.843   1.642  15.642  2.6930 -0.3557 -2.3790
 8322TIP3    H246458   0.833   1.518  15.556  0.9701 -2.5902  0.8422
 8323TIP3   OH246459   5.178   6.382   5.035 -0.5938  0.7404  0.0290
 8323TIP3    H146460   5.234   6.315   5.075  0.3278  2.2733  1.4326
 8323TIP3    H246461   5.130   6.335   4.967 -1.2089 -1.7223  2.0010
 8324TIP3   OH246462   5.328   1.620  16.384  0.4238  0.6097  0.3595
 8324TIP3    H146463   5.353   1.550  16.444  1.1698  0.6846  0.1472
 8324TIP3    H246464   5.398   1.685  16.392  1.2265  0.0284 -1.5517
 8325TIP3   OH246465   2.067   6.660   4.247 -0.0221  0.4486 -0.0600
 8325TIP3    H146466   2.002   6.715   4.205 -3.4951 -2.0387  1.5357
 8325TIP3    H246467   2.114   6.719   4.306  0.3811  2.6338 -2.3983
 8326TIP3   OH246468   1.536   1.100   1.264  0.5690  0.1422  0.2878
 8326TIP3    H146469   1.493   1.020   1.293 -0.7000  1.2115  1.5183
 8326TIP3    H246470   1.501   1.117   1.177 -0.7113  0.4159  0.8367
 8327TIP3   OH246471   1.929   4.971  13.016 -0.2528  0.2643 -0.4233
 8327TIP3    H146472   1.866   4.912  12.975  0.4760 -0.4507 -0.5218
 8327TIP3    H246473   1.938   5.043  12.954  0.4383 -0.5488 -1.2941
 8328TIP3   OH246474   4.196   3.688   2.561  0.2499  0.0020  0.2746
 8328TIP3    H146475   4.280   3.695   2.515  0.7064  0.3718  1.1554
 8328TIP3    H246476   4.133   3.664   2.492  1.2901 -1.5440 -0.1886
 8329TIP3   OH246477   1.906   5.176  13.764 -0.2789 -0.7203 -0.6883
 8329TIP3    H146478   1.928   5.103  13.821  3.5509  0.3739 -0.5263
 8329TIP3    H246479   1.932   5.254  13.813  1.4805  0.3566 -3.1399
 8330TIP3   OH246480   3.631   0.853   3.767  0.1403 -0.1219  0.1287
 8330TIP3    H146481   3.698   0.787   3.749 -0.0565 -0.2348 -0.2060
 8330TIP3    H246482   3.640   0.917   3.697 -0.2212 -0.2336 -0.0242
 8331TIP3   OH246483   3.042   0.443   2.045 -0.2228  0.2398 -0.1250
 8331TIP3    H146484   3.076   0.468   2.131 -0.1039 -0.3266 -0.0046
 8331TIP3    H246485   2.965   0.390   2.065 -0.7087  0.8286 -0.3843
 8332TIP3   OH246486   0.779   3.941   5.925 -0.5261 -0.1391  0.3308
 8332TIP3    H146487   0.762   3.849   5.947 -0.3902 -0.3822 -0.5468
 8332TIP3    H246488   0.700   3.987   5.952 -0.9866 -0.6683 -0.0837
 8333TIP3   OH246489   4.570   4.336   2.226 -0.2488  0.2311 -0.3654
 8333TIP3    H146490   4.623   4.288   2.290 -0.1388  0.7907 -0.0314
 8333TIP3    H246491   4.625   4.410   2.200  0.3717 -0.8436 -2.3289
 8334TIP3   OH246492   2.171   4.824  15.035 -0.5992  0.1660 -0.0831
 8334TIP3    H146493   2.183   4.916  15.061  2.4278 -0.6339  1.7864
 8334TIP3    H246494   2.124   4.829  14.952  1.1884  3.5159 -1.0568
 8335TIP3   OH246495   1.650   5.290   2.838  0.4507 -0.5060  0.6839
 8335TIP3    H146496   1.578   5.226   2.833 -0.1027  0.0377  1.4297
 8335TIP3    H246497   1.652   5.315   2.930  1.7791 -0.7001  0.7226
 8336TIP3   OH246498   2.135   4.404   1.877 -0.4898  0.4015 -0.1441
 8336TIP3    H146499   2.162   4.322   1.919 -0.8092 -0.2519 -1.1916
 8336TIP3    H246500   2.040   4.402   1.879 -0.5087  1.3411  0.9247
 8337TIP3   OH246501   1.558   4.687  14.498 -0.2322 -0.8245  0.3165
 8337TIP3    H146502   1.583   4.708  14.588  0.0108  0.1043  0.0475
 8337TIP3    H246503   1.474   4.642  14.507 -0.3201 -0.5494  0.9994
 8338TIP3   OH246504   6.529   5.079   3.644  0.4580 -0.0676  0.0543
 8338TIP3    H146505   6.531   5.045   3.555  2.3814  0.3145 -0.1035
 8338TIP3    H246506   6.523   5.002   3.700  2.2134 -0.5400 -0.3574
 8339TIP3   OH246507   6.728   3.543  11.755 -0.0019  0.1187  0.2362
 8339TIP3    H146508   6.641   3.527  11.719 -1.3481  0.7965  2.8872
 8339TIP3    H246509   6.778   3.464  11.736 -1.8928 -1.1784  0.4562
 8340TIP3   OH246510   0.254   5.399  16.179 -0.1645  0.3343 -0.4329
 8340TIP3    H146511   0.313   5.349  16.123  1.1651  1.6102 -0.2023
 8340TIP3    H246512   0.186   5.336  16.204 -0.2007 -0.5571 -2.5651
 8341TIP3   OH246513   0.427   2.708   0.365 -0.3579 -0.0078 -0.0696
 8341TIP3    H146514   0.415   2.648   0.438 -1.0267 -1.5425 -1.3723
 8341TIP3    H246515   0.338   2.732   0.338 -0.1566 -0.1792 -0.9243
 8342TIP3   OH246516   0.317   4.342   3.133  0.3896 -0.2370  0.0100
 8342TIP3    H146517   0.405   4.374   3.114 -0.7417  1.9714 -2.0610
 8342TIP3    H246518   0.308   4.352   3.228  2.1183  0.0987  0.1766
 8343TIP3   OH246519   4.301   6.345  13.853 -0.1172 -0.3370  0.2294
 8343TIP3    H146520   4.390   6.331  13.823  0.1080 -0.3513  0.8845
 8343TIP3    H246521   4.306   6.422  13.910 -0.0152 -1.8070  2.3390
 8344TIP3   OH246522   3.997   3.329  12.051  0.2179 -0.3393  0.3711
 8344TIP3    H146523   4.064   3.266  12.026  0.3990 -0.1148  0.2894
 8344TIP3    H246524   4.039   3.387  12.113  0.5672  0.7328 -0.8249
 8345TIP3   OH246525   2.788   0.907  12.045 -0.2658 -0.4641  0.3625
 8345TIP3    H146526   2.789   0.978  12.109 -1.5239 -0.4162  0.3534
 8345TIP3    H246527   2.823   0.832  12.092 -0.8853 -0.3540  1.0194
 8346TIP3   OH246528   3.701   4.441  13.866  0.7321  0.2030 -0.3486
 8346TIP3    H146529   3.768   4.374  13.882 -0.0381 -0.2345  1.2366
 8346TIP3    H246530   3.654   4.410  13.788  0.1729 -1.3306  0.5518
 8347TIP3   OH246531   0.292   0.461  14.156 -0.0831 -0.1147  1.1696
 8347TIP3    H146532   0.350   0.385  14.155 -0.2796 -0.2634  0.1322
 8347TIP3    H246533   0.211   0.429  14.195 -0.3948 -0.6325  0.1403
 8348TIP3   OH246534   1.493   2.567  14.167 -0.1566 -0.6815  0.7861
 8348TIP3    H146535   1.413   2.591  14.214 -0.4466 -1.1761  0.5577
 8348TIP3    H246536   1.560   2.561  14.235 -0.3305 -0.3350  0.9899
 8349TIP3   OH246537   0.678   1.295   0.816 -0.4897  0.0191 -0.1813
 8349TIP3    H146538   0.659   1.385   0.842  0.9579  0.6769 -1.2428
 8349TIP3    H246539   0.686   1.299   0.720 -0.1795 -1.1977 -0.2207
 8350TIP3   OH246540   2.973   2.045  12.331  0.0378 -0.4050 -0.1842
 8350TIP3    H146541   2.946   2.137  12.325 -0.2039 -0.4028  0.8129
 8350TIP3    H246542   3.068   2.049  12.337 -0.0626 -0.0799  1.8161
 8351TIP3   OH246543   6.058   4.365   4.294  0.2973  0.0572  0.2602
 8351TIP3    H146544   5.975   4.393   4.256  1.2162 -0.0176 -1.9196
 8351TIP3    H246545   6.049   4.270   4.302 -0.9387  0.3048  3.0001
 8352TIP3   OH246546   3.031   1.932  13.526 -0.0591  0.4747  0.7731
 8352TIP3    H146547   3.032   2.023  13.555  0.3527  0.3219  1.2436
 8352TIP3    H246548   3.116   1.920  13.483 -0.0389  0.2650  0.8688
 8353TIP3   OH246549   3.346   5.839  16.100 -0.3904 -0.3200  0.2616
 8353TIP3    H146550   3.370   5.766  16.158 -1.9679 -0.5018  0.7397
 8353TIP3    H246551   3.390   5.915  16.138  0.7015 -0.8804  0.1669
 8354TIP3   OH246552   2.582   3.793   1.891  0.1419 -0.4629 -0.5669
 8354TIP3    H146553   2.663   3.744   1.910  0.4207  0.8909  2.4822
 8354TIP3    H246554   2.517   3.753   1.948 -1.0483 -0.6751 -2.0259
 8355TIP3   OH246555   1.426   0.495   4.801  0.5444  0.0181 -0.2310
 8355TIP3    H146556   1.514   0.499   4.839  1.0593  2.5254 -1.4555
 8355TIP3    H246557   1.376   0.561   4.849 -1.0469 -2.0137  1.0953
 8356TIP3   OH246558   1.840   4.940  12.581  0.2905 -0.0400  0.0299
 8356TIP3    H146559   1.894   4.999  12.633 -1.6305  0.7352  1.2042
 8356TIP3    H246560   1.859   4.853  12.617  1.6974  0.0494 -0.4418
 8357TIP3   OH246561   3.287   3.463   2.872  0.5011 -0.2783  0.1440
 8357TIP3    H146562   3.238   3.514   2.808  0.3813  0.7137  1.0002
 8357TIP3    H246563   3.377   3.494   2.863  0.4341  0.0802  0.6432
 8358TIP3   OH246564   2.524   6.526  16.197 -0.1318 -0.0637  0.5167
 8358TIP3    H146565   2.550   6.608  16.238 -1.2103 -0.1664  1.4653
 8358TIP3    H246566   2.517   6.464  16.269 -3.0685  0.0064  0.4183
 8359TIP3   OH246567   0.241   3.082   0.179 -0.1443 -0.0101  0.3930
 8359TIP3    H146568   0.155   3.069   0.139 -0.2399 -2.2445  1.1713
 8359TIP3    H246569   0.293   3.008   0.147  1.0572  0.5140  1.0784
 8360TIP3   OH246570   3.190   0.685  16.714 -0.0142  0.8891 -0.3067
 8360TIP3    H146571   3.190   0.615  16.780  1.0531 -0.0224 -1.2149
 8360TIP3    H246572   3.206   0.765  16.764  0.8595  0.2137  0.5476
 8361TIP3   OH246573   0.892   0.439  15.896 -0.3186  0.0699 -0.1072
 8361TIP3    H146574   0.877   0.434  15.991  2.3297  0.8597  0.4517
 8361TIP3    H246575   0.869   0.529  15.873 -1.9316 -0.4065 -0.4600
 8362TIP3   OH246576   1.536   1.637   5.587  0.3346 -0.1591 -0.0002
 8362TIP3    H146577   1.492   1.712   5.628  1.9195 -0.1340  1.7841
 8362TIP3    H246578   1.504   1.561   5.636  0.1523 -0.4466 -0.5622
 8363TIP3   OH246579   1.054   1.650   2.851 -0.1362 -0.4638  0.2398
 8363TIP3    H146580   1.039   1.721   2.913  0.6513 -1.5744  1.7567
 8363TIP3    H246581   1.149   1.643   2.844 -0.2088 -1.2537 -0.0345
 8364TIP3   OH246582   5.539   0.335  16.779  0.3877  0.2630  0.0167
 8364TIP3    H146583   5.535   0.335  16.875  0.8224  1.5915  0.0482
 8364TIP3    H246584   5.571   0.422  16.756  2.3087 -0.7207 -1.2578
 8365TIP3   OH246585   5.616   6.542   4.520 -0.2687  0.1264 -0.3225
 8365TIP3    H146586   5.696   6.497   4.493 -0.3916 -0.6997  0.6416
 8365TIP3    H246587   5.546   6.499   4.470  0.0232  2.1772 -2.7309
 8366TIP3   OH246588   3.200   1.783  12.034 -0.3938  0.6035 -0.1649
 8366TIP3    H146589   3.129   1.771  12.097 -0.5116  0.2487 -0.3622
 8366TIP3    H246590   3.171   1.856  11.979 -0.1762  1.0803  0.3444
 8367TIP3   OH246591   1.728   1.841   2.914 -0.4551 -0.0638 -0.8398
 8367TIP3    H146592   1.749   1.924   2.957  1.4975 -0.6076 -0.6841
 8367TIP3    H246593   1.711   1.781   2.987  3.3821 -1.1282 -0.6155
 8368TIP3   OH246594   2.031   2.039   4.436  0.2438 -0.2837 -0.2442
 8368TIP3    H146595   1.960   2.059   4.497 -0.0385  0.5506 -0.8370
 8368TIP3    H246596   2.033   1.943   4.433 -1.1885 -0.3179 -0.6086
 8369TIP3   OH246597   2.807   5.837   3.912  0.1975  0.4486  0.8444
 8369TIP3    H146598   2.790   5.870   4.001 -1.4947  1.5835  0.1362
 8369TIP3    H246599   2.732   5.782   3.892  0.1161  0.9208 -0.2142
 8370TIP3   OH246600   4.361   1.338   3.898 -0.0856 -0.7835  0.3652
 8370TIP3    H146601   4.301   1.373   3.832  0.0652  0.6887  0.9634
 8370TIP3    H246602   4.421   1.281   3.848 -1.8341 -2.1560 -0.2552
 8371TIP3   OH246603   0.666   4.972   2.488  0.7856  0.8281  0.1181
 8371TIP3    H146604   0.631   4.945   2.403 -1.6827 -0.3849  1.4257
 8371TIP3    H246605   0.696   4.891   2.529  3.5520  1.6000 -0.1761
 8372TIP3   OH246606   6.492   3.305   3.048 -0.2785 -0.2230  0.6607
 8372TIP3    H146607   6.406   3.344   3.029 -0.3620 -0.4128  0.6364
 8372TIP3    H246608   6.525   3.354   3.123 -0.4165 -0.1585  0.6806
 8373TIP3   OH246609   5.193   2.377  17.478 -0.2361 -0.1401 -0.2627
 8373TIP3    H146610   5.171   2.286  17.501 -0.9746  0.1796  0.3241
 8373TIP3    H246611   5.141   2.396  17.401  0.1895 -0.3275 -0.5991
 8374TIP3   OH246612   5.730   0.910   0.029  0.2440 -0.1878  0.6839
 8374TIP3    H146613   5.824   0.923   0.032  0.6986 -2.7700  0.1047
 8374TIP3    H246614   5.714   0.835   0.086 -1.3758 -0.2137  0.2541
 8375TIP3   OH246615   6.086   5.236  14.543  0.2533  0.4106 -0.2471
 8375TIP3    H146616   6.111   5.144  14.550  0.5559  0.5533  0.6214
 8375TIP3    H246617   6.137   5.269  14.469 -2.2124 -0.8754 -2.7473
 8376TIP3   OH246618   3.146   3.305   3.367 -0.1023 -1.2746  0.2408
 8376TIP3    H146619   3.129   3.290   3.274 -1.6660 -2.5163  0.6897
 8376TIP3    H246620   3.196   3.387   3.369 -1.9809  0.0171 -1.5504
 8377TIP3   OH246621   1.481   6.248  10.704  0.0383  0.2660  0.4649
 8377TIP3    H146622   1.548   6.213  10.763  0.4755 -0.8936 -0.6612
 8377TIP3    H246623   1.516   6.334  10.677  1.2771 -0.4526 -0.3559
 8378TIP3   OH246624   0.891   1.459   5.650  0.1228 -0.3994  0.2234
 8378TIP3    H146625   0.958   1.525   5.667 -0.7216  0.4399  0.3746
 8378TIP3    H246626   0.902   1.437   5.558  0.3085  0.0601  0.1336
 8379TIP3   OH246627   6.318   3.026  14.626  0.2064  0.1279 -0.1338
 8379TIP3    H146628   6.245   3.015  14.564  0.1848 -0.0779 -0.0730
 8379TIP3    H246629   6.277   3.027  14.712  0.2123  0.6602 -0.1340
 8380TIP3   OH246630   4.283   2.246   6.596  0.5193 -0.4694 -0.0596
 8380TIP3    H146631   4.329   2.256   6.679  2.6253 -1.5237 -1.0242
 8380TIP3    H246632   4.303   2.157   6.568 -0.7826 -0.3896 -1.3482
 8381TIP3   OH246633   0.241   6.122  11.526  0.3188 -0.0122  0.2749
 8381TIP3    H146634   0.330   6.099  11.499 -0.7893 -3.4988 -0.9027
 8381TIP3    H246635   0.190   6.123  11.446 -0.8794  1.3044  1.0029
 8382TIP3   OH246636   1.265   6.180  14.650  0.0193  0.2857 -0.1424
 8382TIP3    H146637   1.338   6.187  14.588  1.2900 -2.5415  0.8573
 8382TIP3    H246638   1.187   6.174  14.596  0.7662  0.8711 -1.3298
 8383TIP3   OH246639   2.203   5.187   2.290 -0.1689  0.0595  0.4709
 8383TIP3    H146640   2.240   5.203   2.377 -0.2876 -1.1212  0.7506
 8383TIP3    H246641   2.254   5.113   2.256 -1.4763 -0.8369  0.3877
 8384TIP3   OH246642   3.121   2.761  17.381  0.2278 -0.4215  0.1819
 8384TIP3    H146643   3.028   2.771  17.402  0.5201 -1.5863  2.3648
 8384TIP3    H246644   3.156   2.850  17.383 -0.5679 -0.1096  0.9515
 8385TIP3   OH246645   1.387   3.523  15.198 -0.0067 -0.0355 -0.1480
 8385TIP3    H146646   1.378   3.547  15.106  1.5894 -4.4757 -1.7326
 8385TIP3    H246647   1.297   3.524  15.231 -0.7115  0.9702 -1.9181
 8386TIP3   OH246648   3.867   4.495   2.336 -0.8144 -0.6038  0.1907
 8386TIP3    H146649   3.842   4.464   2.424 -2.2045 -1.4940 -0.4796
 8386TIP3    H246650   3.827   4.582   2.330  0.5293  0.0909  0.9608
 8387TIP3   OH246651   2.922   5.293   5.658 -0.4925 -0.3861 -0.0247
 8387TIP3    H146652   2.990   5.225   5.656 -0.4385 -0.5612  3.1652
 8387TIP3    H246653   2.970   5.375   5.644 -0.0375 -0.7312 -0.5052
 8388TIP3   OH246654   5.941   6.597  14.764 -0.2230 -0.3237  0.3831
 8388TIP3    H146655   5.929   6.688  14.736 -0.6361 -0.3337  0.5145
 8388TIP3    H246656   6.014   6.565  14.711 -1.2085 -0.4423 -0.9606
 8389TIP3   OH246657   5.747   3.579   3.824  0.0578 -1.0048 -0.3419
 8389TIP3    H146658   5.835   3.610   3.806 -0.6474  4.0271  2.9066
 8389TIP3    H246659   5.757   3.520   3.899  0.7107  0.7433  1.0176
 8390TIP3   OH246660   4.391   5.861   5.136 -0.3191 -0.6717  0.1557
 8390TIP3    H146661   4.374   5.839   5.228  1.2476 -1.4518  0.3006
 8390TIP3    H246662   4.382   5.779   5.089 -0.9460 -0.3067 -0.3677
 8391TIP3   OH246663   3.880   0.736   2.382 -0.2654  0.6950  0.0511
 8391TIP3    H146664   3.910   0.742   2.291  0.5132  2.2753  0.3830
 8391TIP3    H246665   3.801   0.789   2.385  0.0181  1.1067  0.4021
 8392TIP3   OH246666   2.637   4.913  15.471 -0.0026  0.2785 -0.5520
 8392TIP3    H146667   2.593   4.924  15.387  0.4962  0.6638 -0.7655
 8392TIP3    H246668   2.723   4.877  15.450 -0.4824 -1.2293 -0.0768
 8393TIP3   OH246669   0.613   3.030  16.443 -0.5838  0.0423 -0.1298
 8393TIP3    H146670   0.556   2.965  16.483 -1.1697  0.8144  0.2915
 8393TIP3    H246671   0.564   3.062  16.368 -0.9646  1.1267  0.5663
 8394TIP3   OH246672   4.621   6.038  12.425 -0.0495 -0.6714  0.7965
 8394TIP3    H146673   4.689   6.015  12.488 -1.1432  0.5841  2.4840
 8394TIP3    H246674   4.606   5.957  12.376  0.7343 -1.7215  2.2285
 8395TIP3   OH246675   1.130   3.279   5.273  0.0262 -0.0764 -0.1500
 8395TIP3    H146676   1.112   3.345   5.339  0.2956  0.7233 -0.8611
 8395TIP3    H246677   1.161   3.328   5.197  0.1409 -1.0089 -0.7273
 8396TIP3   OH246678   2.531   0.048   1.121 -0.1717 -0.0821  0.4208
 8396TIP3    H146679   2.471   0.122   1.110 -0.4014 -0.0889  1.5369
 8396TIP3    H246680   2.474  -0.028   1.131  0.0560 -0.3112  0.0160
 8397TIP3   OH246681   1.835   6.086  15.295  0.0999 -0.7149 -0.7107
 8397TIP3    H146682   1.772   6.036  15.347  0.4138  0.8215  1.2804
 8397TIP3    H246683   1.781   6.136  15.234 -0.5347 -0.2256  0.2351
 8398TIP3   OH246684   2.416   3.816   0.362  0.6119 -0.0594 -0.0244
 8398TIP3    H146685   2.419   3.849   0.273  0.1770  2.7759  0.9138
 8398TIP3    H246686   2.502   3.777   0.376  1.0344  0.3420 -1.3650
 8399TIP3   OH246687   6.688   6.688  16.929  0.5516 -0.2662  0.2536
 8399TIP3    H146688   6.724   6.621  16.872  0.4830  0.2503 -0.4038
 8399TIP3    H246689   6.603   6.710  16.890 -1.0853 -2.2524  2.3733
 8400TIP3   OH246690   0.369   1.373  14.317  0.6205  0.2619 -0.4544
 8400TIP3    H146691   0.324   1.322  14.384  0.5617  0.1511 -0.5766
 8400TIP3    H246692   0.447   1.407  14.361  0.4042  0.4789 -0.2339
 8401TIP3   OH246693   5.452   5.436   0.555  0.1996  0.0105 -0.2376
 8401TIP3    H146694   5.363   5.431   0.522  0.1704  0.6665 -0.2614
 8401TIP3    H246695   5.458   5.365   0.619 -0.6547  0.5952  0.5164
 8402TIP3   OH246696   4.099   6.717  17.141 -0.2954 -0.1054 -0.0501
 8402TIP3    H146697   4.053   6.732  17.223 -0.4762  0.4391 -0.2494
 8402TIP3    H246698   4.178   6.670  17.167 -0.3357  0.0881  0.4387
 8403TIP3   OH246699   5.322   6.190  14.585  0.3582  0.0622 -0.5591
 8403TIP3    H146700   5.318   6.228  14.497  1.6625 -0.1956 -0.7522
 8403TIP3    H246701   5.344   6.264  14.641 -1.4659  0.4331 -0.2693
 8404TIP3   OH246702   5.625   4.537   0.043  0.3709  0.0082  0.0541
 8404TIP3    H146703   5.708   4.580   0.066 -0.9917  1.8607  1.9007
 8404TIP3    H246704   5.642   4.495  -0.042  3.3711 -0.3002  0.7050
 8405TIP3   OH246705   4.054   0.949  15.596 -0.2757  0.1153 -0.3251
 8405TIP3    H146706   4.022   0.962  15.685  0.3341 -0.7516  0.0462
 8405TIP3    H246707   4.054   1.036  15.556 -1.1332  0.4179  0.3171
 8406TIP3   OH246708   2.697   1.129  15.038 -0.3908 -0.5879 -0.5680
 8406TIP3    H146709   2.718   1.041  15.007 -0.6168 -1.5123  1.7371
 8406TIP3    H246710   2.620   1.154  14.988  0.9909 -0.7039 -2.8988
 8407TIP3   OH246711   0.714   6.176  10.936  0.0020  0.0472  0.1147
 8407TIP3    H146712   0.711   6.266  10.903  0.7325  0.3551  0.8544
 8407TIP3    H246713   0.719   6.122  10.856 -1.9088  0.5414 -0.3922
 8408TIP3   OH246714   2.337   2.825   0.772 -0.0064 -0.8870  0.7014
 8408TIP3    H146715   2.268   2.859   0.829 -0.2894 -1.8269  0.9418
 8408TIP3    H246716   2.365   2.743   0.814 -0.4540 -1.7814 -0.6724
 8409TIP3   OH246717   1.285   5.957  16.043 -0.1127 -0.2061  0.0406
 8409TIP3    H146718   1.316   5.974  16.132  2.2211  1.0794 -0.9485
 8409TIP3    H246719   1.195   5.991  16.042  0.0644  0.3895  1.7054
 8410TIP3   OH246720   5.113   1.406  14.756 -0.4921  0.1722  0.2696
 8410TIP3    H146721   5.145   1.496  14.756  0.7348 -0.2512 -0.2280
 8410TIP3    H246722   5.034   1.408  14.702 -1.3185  1.2145  1.4497
 8411TIP3   OH246723   1.118   0.529   3.189  0.3564  0.3373  0.1557
 8411TIP3    H146724   1.197   0.557   3.142  0.3833 -0.4062 -0.2548
 8411TIP3    H246725   1.046   0.555   3.131  0.4255 -1.4032 -0.7746
 8412TIP3   OH246726   0.693   5.048  12.204  0.6574 -0.0418  0.0911
 8412TIP3    H146727   0.621   4.999  12.243 -0.8915  0.7092 -1.6463
 8412TIP3    H246728   0.700   5.127  12.257 -1.1981  0.8172 -0.8475
 8413TIP3   OH246729   4.874   5.395   0.137  0.2964 -0.1309  0.1177
 8413TIP3    H146730   4.841   5.343   0.063 -0.6694  2.3026 -1.2823
 8413TIP3    H246731   4.934   5.457   0.097 -0.6123  1.5563  1.2813
 8414TIP3   OH246732   2.879   6.310   0.755  0.0348  0.1369  0.1907
 8414TIP3    H146733   2.920   6.230   0.785  0.1056  0.2297  0.3389
 8414TIP3    H246734   2.787   6.286   0.739  0.3461 -0.3012 -1.0243
 8415TIP3   OH246735   0.487   2.501  16.768 -0.5879  0.1995  0.4616
 8415TIP3    H146736   0.578   2.480  16.750 -0.2366  1.1833  0.9921
 8415TIP3    H246737   0.482   2.511  16.863 -1.5757 -1.2353  0.5900
 8416TIP3   OH246738   1.120   5.106   3.436 -0.0687 -0.3461  0.7790
 8416TIP3    H146739   1.169   5.029   3.463 -0.4155 -0.6781  0.4679
 8416TIP3    H246740   1.133   5.111   3.341 -2.8366 -2.0526  0.1724
 8417TIP3   OH246741   0.116   6.280   1.380 -0.2193 -0.1176 -0.4001
 8417TIP3    H146742   0.092   6.224   1.454 -2.5264 -1.4099 -1.9706
 8417TIP3    H246743   0.106   6.369   1.413  4.0076 -0.4007  2.3140
 8418TIP3   OH246744   4.204   0.098   1.212  0.3718 -0.5126 -0.1656
 8418TIP3    H146745   4.281   0.056   1.174  0.7920 -1.9274  1.9978
 8418TIP3    H246746   4.203   0.067   1.303 -2.9143 -0.7891 -0.1727
 8419TIP3   OH246747   0.718   4.119   3.060  0.6291  0.0889  0.3146
 8419TIP3    H146748   0.666   4.198   3.041 -0.0452  0.0140  1.7647
 8419TIP3    H246749   0.715   4.069   2.978 -2.6377 -0.4866  0.6517
 8420TIP3   OH246750   1.023   6.677  11.856 -0.1648 -0.2211  0.6614
 8420TIP3    H146751   0.979   6.624  11.922  2.0806 -1.6904  1.0959
 8420TIP3    H246752   1.098   6.715  11.902  0.6844 -0.2022 -0.6811
 8421TIP3   OH246753   3.030   3.879   0.979 -0.4540 -0.3602  0.9302
 8421TIP3    H146754   2.988   3.929   0.909 -1.4203 -2.1410  0.1912
 8421TIP3    H246755   3.089   3.819   0.934  1.1859  0.4665  1.8451
 8422TIP3   OH246756   0.530   4.538   5.011  0.1031  0.0281  0.0703
 8422TIP3    H146757   0.539   4.451   5.051  1.7503 -0.4570 -1.2815
 8422TIP3    H246758   0.472   4.524   4.936  1.4073 -0.2153 -0.9275
 8423TIP3   OH246759   3.805   1.478  14.152 -0.1190 -0.3039 -0.2832
 8423TIP3    H146760   3.853   1.404  14.115  0.0336 -1.4925  2.1326
 8423TIP3    H246761   3.844   1.555  14.110  1.2549 -1.4539 -1.2134
 8424TIP3   OH246762   3.747   4.151   5.976  0.1047 -0.2436 -0.1725
 8424TIP3    H146763   3.801   4.198   5.912  1.1118  2.7841  2.6011
 8424TIP3    H246764   3.658   4.184   5.961  0.2482  0.0583 -0.3722
 8425TIP3   OH246765   4.772   0.207  12.311  0.6482  0.3335  0.0796
 8425TIP3    H146766   4.757   0.220  12.405  1.1574  2.4056 -0.0834
 8425TIP3    H246767   4.816   0.123  12.305  0.6000  0.1624  1.7041
 8426TIP3   OH246768   0.578   3.475   3.627  0.7061  0.1452 -0.3223
 8426TIP3    H146769   0.588   3.468   3.532 -0.0698  0.5543 -0.4380
 8426TIP3    H246770   0.614   3.393   3.660 -2.3529 -1.7461 -1.2338
 8427TIP3   OH246771   0.249   2.514   4.006  0.0761  0.1373  0.5845
 8427TIP3    H146772   0.223   2.568   3.932  0.5959 -0.0213  0.2806
 8427TIP3    H246773   0.233   2.569   4.083 -1.8255 -0.2077  0.4839
 8428TIP3   OH246774   3.839   2.017   2.628 -0.0278  0.1693 -0.3273
 8428TIP3    H146775   3.782   2.028   2.705  0.4229 -0.2015  0.0645
 8428TIP3    H246776   3.789   2.055   2.556  0.7967  3.4459  0.6646
 8429TIP3   OH246777   3.467   6.488   0.436  0.0607 -0.3990  0.3789
 8429TIP3    H146778   3.558   6.491   0.465  0.1757 -0.2209  0.0040
 8429TIP3    H246779   3.417   6.519   0.512  0.2398 -1.2665  0.8591
 8430TIP3   OH246780   3.032   1.538  14.234  0.7911 -0.1588  0.0385
 8430TIP3    H146781   3.011   1.631  14.241  1.1789 -0.1253  0.7580
 8430TIP3    H246782   2.958   1.501  14.185 -0.1692  0.2435  1.1557
 8431TIP3   OH246783   3.191   6.585   1.442  0.1771  0.3023  0.5616
 8431TIP3    H146784   3.121   6.533   1.402 -0.3006  0.1941  1.4855
 8431TIP3    H246785   3.228   6.528   1.509  0.2635  0.8131  0.9624
 8432TIP3   OH246786   2.065   3.078   2.971 -0.0026 -0.2214  0.6707
 8432TIP3    H146787   1.997   3.097   2.906  0.3774  1.0858  0.6286
 8432TIP3    H246788   2.075   3.160   3.020  1.1752 -0.5563  1.0199
 8433TIP3   OH246789   4.585   5.997   4.081  0.6905  0.3464  0.2553
 8433TIP3    H146790   4.659   5.938   4.069 -0.8155 -1.4657 -0.6082
 8433TIP3    H246791   4.532   5.955   4.150  0.3636  1.5253  0.7528
 8434TIP3   OH246792   3.874   4.767  13.700 -0.4771  0.0102 -0.5252
 8434TIP3    H146793   3.787   4.779  13.738 -0.5265  2.2454 -1.2156
 8434TIP3    H246794   3.932   4.757  13.776 -1.0545  0.6446  0.0013
 8435TIP3   OH246795   5.848   2.759   3.220  0.6248 -0.1713 -0.3359
 8435TIP3    H146796   5.810   2.717   3.298 -1.2403  1.2349 -0.4065
 8435TIP3    H246797   5.937   2.726   3.216  0.8450 -0.1628  2.5261
 8436TIP3   OH246798   3.994   5.664  14.968 -0.3421 -0.1891 -0.4666
 8436TIP3    H146799   4.017   5.648  15.060 -2.3507 -2.5274 -0.2512
 8436TIP3    H246800   3.907   5.704  14.973 -0.5773 -0.5835 -1.3249
 8437TIP3   OH246801   2.306   2.641   1.069 -0.2986 -0.2030  0.0032
 8437TIP3    H146802   2.398   2.651   1.046 -0.4356  0.2300 -0.3690
 8437TIP3    H246803   2.300   2.552   1.104 -0.2781 -1.3687 -2.6613
 8438TIP3   OH246804   0.246   0.114   4.098 -0.2672 -0.1623  0.2774
 8438TIP3    H146805   0.257   0.027   4.059 -1.9603  0.2744 -1.3058
 8438TIP3    H246806   0.286   0.174   4.035 -3.4622  0.5954 -1.2383
 8439TIP3   OH246807   2.304   3.871  14.231  0.0922 -0.6641 -0.2320
 8439TIP3    H146808   2.386   3.919  14.221  0.8562 -1.9827 -0.5710
 8439TIP3    H246809   2.249   3.901  14.158  0.2417  0.2746  0.0405
 8440TIP3   OH246810   0.088   1.330  11.284  0.2480  0.6367 -0.1147
 8440TIP3    H146811   0.079   1.412  11.235 -0.6760 -0.4731 -1.9256
 8440TIP3    H246812   0.042   1.265  11.231  1.0811 -1.1107  1.1824
 8441TIP3   OH246813   1.002   4.244  16.689 -0.0712 -0.3560  0.1682
 8441TIP3    H146814   1.091   4.259  16.721  0.2164  0.0750 -0.7888
 8441TIP3    H246815   0.975   4.162  16.730  1.4158 -1.3930 -0.8354
 8442TIP3   OH246816   6.005   4.406  13.802  0.0016 -0.0871  0.2293
 8442TIP3    H146817   6.009   4.486  13.750  0.1566  0.2699  0.7825
 8442TIP3    H246818   5.915   4.405  13.837 -0.4667 -0.9198 -0.9651
 8443TIP3   OH246819   4.749   4.349  14.954  0.0140 -0.3662 -0.1334
 8443TIP3    H146820   4.723   4.369  15.044  1.6840  0.8378  0.1349
 8443TIP3    H246821   4.828   4.297  14.964  0.8555  0.7265 -0.8744
 8444TIP3   OH246822   1.503   0.720   1.580 -0.6047  0.1733  0.2608
 8444TIP3    H146823   1.464   0.675   1.505 -1.1760  3.2027 -1.4108
 8444TIP3    H246824   1.429   0.741   1.637 -0.1637 -2.1915  1.8341
 8445TIP3   OH246825   3.076   1.810   5.902 -0.2255 -0.2313 -0.1962
 8445TIP3    H146826   3.108   1.789   5.815 -1.2387  0.5389 -0.7815
 8445TIP3    H246827   3.155   1.819   5.956  0.5568  1.3681 -1.5136
 8446TIP3   OH246828   2.274   1.635  16.137  0.2023 -0.2367 -0.0586
 8446TIP3    H146829   2.244   1.697  16.204 -1.0551 -1.2139  0.3243
 8446TIP3    H246830   2.243   1.550  16.168  0.2946 -0.8151 -1.4913
 8447TIP3   OH246831   6.381   1.660   2.403  0.1666  0.2022  0.0072
 8447TIP3    H146832   6.449   1.718   2.368  0.9730 -1.4048 -1.2246
 8447TIP3    H246833   6.299   1.704   2.382  0.7213  0.4625 -1.8091
 8448TIP3   OH246834   4.809   0.569  13.011 -0.1758  0.3592  0.2567
 8448TIP3    H146835   4.803   0.641  13.073  0.5551  1.0630 -0.4586
 8448TIP3    H246836   4.839   0.610  12.930 -0.9750 -0.5554 -0.5294
 8449TIP3   OH246837   3.954   1.447  15.500  0.1041  0.2327 -0.1133
 8449TIP3    H146838   3.911   1.390  15.436  0.6551  0.6728 -0.8957
 8449TIP3    H246839   3.990   1.386  15.565 -1.7310 -0.1453  0.6323
 8450TIP3   OH246840   5.217   5.430   0.915  0.2942  0.3524 -0.4463
 8450TIP3    H146841   5.200   5.341   0.945  0.0359  0.5512  0.0035
 8450TIP3    H246842   5.276   5.467   0.981  1.3319  0.1476 -1.2238
 8451TIP3   OH246843   0.676   0.453  11.609  0.6548  0.0784 -0.1457
 8451TIP3    H146844   0.767   0.427  11.591  0.6473  0.5628 -0.9585
 8451TIP3    H246845   0.657   0.520  11.543 -0.4228 -0.3070 -0.2496
 8452TIP3   OH246846   2.398   3.419  13.683 -0.0726 -0.0690  1.0812
 8452TIP3    H146847   2.389   3.398  13.590 -1.0973  0.1112  1.1208
 8452TIP3    H246848   2.334   3.361  13.726 -2.6930  2.6740  1.2328
 8453TIP3   OH246849   2.974   2.042   5.723 -0.3107 -0.2595 -0.3907
 8453TIP3    H146850   2.965   2.086   5.638 -0.8419  1.1125  0.3442
 8453TIP3    H246851   3.021   1.961   5.703  1.7467  1.1529 -1.6594
 8454TIP3   OH246852   3.453   3.938   3.264 -0.5537 -0.1833  0.1655
 8454TIP3    H146853   3.405   3.938   3.181 -1.2462 -1.6340  0.5293
 8454TIP3    H246854   3.435   4.024   3.303 -0.6623  0.3017 -0.9228
 8455TIP3   OH246855   5.565   3.319   1.340  0.1821  0.3509  0.3231
 8455TIP3    H146856   5.496   3.366   1.293 -1.1420 -0.8713  0.9667
 8455TIP3    H246857   5.530   3.308   1.428  0.3551 -1.9654  0.1466
 8456TIP3   OH246858   2.056   6.243   6.144 -0.5401  0.2373 -0.1743
 8456TIP3    H146859   2.007   6.323   6.163  0.8464  1.0527  0.1803
 8456TIP3    H246860   2.146   6.265   6.168 -0.3285 -1.8659  1.1311
 8457TIP3   OH246861   3.714   5.475  14.842  0.3696  0.0638  0.0412
 8457TIP3    H146862   3.763   5.451  14.763  0.5324  1.2275 -0.2277
 8457TIP3    H246863   3.664   5.553  14.816  0.0651  0.1818  0.9596
 8458TIP3   OH246864   3.846   6.208  14.893  0.5239 -0.1937 -0.5130
 8458TIP3    H146865   3.905   6.254  14.834 -0.1708  0.9869 -0.3095
 8458TIP3    H246866   3.904   6.155  14.948  1.5097  1.5428  0.2082
 8459TIP3   OH246867   5.968   2.246  12.461  0.3343 -0.0853 -0.0161
 8459TIP3    H146868   5.967   2.156  12.493 -1.6486 -0.1593 -0.1271
 8459TIP3    H246869   6.041   2.249  12.399  1.2904 -1.2210  1.0217
 8460TIP3   OH246870   4.757   0.214  14.323  0.0821 -0.0571 -0.2308
 8460TIP3    H146871   4.825   0.161  14.365 -0.3845  0.8358  1.7881
 8460TIP3    H246872   4.782   0.305  14.344 -2.1675  0.2693  1.4050
 8461TIP3   OH246873   4.409   4.505  13.987 -0.1199 -0.1999 -0.7327
 8461TIP3    H146874   4.381   4.451  14.061 -1.1601 -0.1514 -1.0690
 8461TIP3    H246875   4.357   4.585  13.995 -0.4386 -0.3031 -1.6586
 8462TIP3   OH246876   4.777   1.205   5.845  0.0792  0.3618  0.4378
 8462TIP3    H146877   4.788   1.111   5.833  1.8432  0.5499  0.2498
 8462TIP3    H246878   4.754   1.238   5.759  0.1166  0.1756  0.3562
 8463TIP3   OH246879   5.869   4.290   1.162 -0.0285 -0.4211 -0.7787
 8463TIP3    H146880   5.874   4.286   1.066 -0.3173 -1.0464 -0.7800
 8463TIP3    H246881   5.936   4.228   1.192  1.2678  1.0562 -0.5251
 8464TIP3   OH246882   3.219   6.150  11.727 -0.1371  0.0118 -0.0755
 8464TIP3    H146883   3.238   6.166  11.819 -0.6469  0.4628 -0.0488
 8464TIP3    H246884   3.124   6.159  11.719 -0.0861  0.0878 -0.6653
 8465TIP3   OH246885   1.560   3.315  11.311 -0.0031  0.6080 -0.4416
 8465TIP3    H146886   1.504   3.262  11.254 -0.1525 -0.3294  0.5439
 8465TIP3    H246887   1.578   3.259  11.386  1.2175  1.3636 -0.1403
 8466TIP3   OH246888   2.102   2.923  15.209 -0.1413  0.2717 -0.2859
 8466TIP3    H146889   2.063   2.917  15.296 -0.2442 -2.9770 -0.4469
 8466TIP3    H246890   2.029   2.941  15.150 -0.7518 -1.4761 -0.0984
 8467TIP3   OH246891   4.007   1.086  13.568 -0.5545 -0.0628  0.3286
 8467TIP3    H146892   4.010   1.061  13.661  0.2168  0.6739  0.5152
 8467TIP3    H246893   4.062   1.022  13.524  1.2183  1.0895  0.7704
 8468TIP3   OH246894   6.649   1.172  10.781  0.1598  0.5382 -0.1260
 8468TIP3    H146895   6.716   1.145  10.719 -0.4707  2.1815 -1.5977
 8468TIP3    H246896   6.576   1.113  10.766 -0.1654  1.2244 -1.3076
 8469TIP3   OH246897   3.913   5.233   4.078  0.6494  0.2663  0.0546
 8469TIP3    H146898   3.840   5.277   4.035  0.3298 -0.6784 -0.4013
 8469TIP3    H246899   3.991   5.281   4.049  0.2892  0.7011 -0.2017
 8470TIP3   OH246900   0.150   3.692  17.374 -0.0753  0.1697 -0.1458
 8470TIP3    H146901   0.061   3.715  17.401 -0.6779  0.2152 -2.0338
 8470TIP3    H246902   0.145   3.600  17.350  0.8504 -0.3310  1.4797
 8471TIP3   OH246903   2.599   6.170  11.812  0.5109  0.2444 -0.0444
 8471TIP3    H146904   2.687   6.147  11.784 -0.5280 -1.9110 -1.7515
 8471TIP3    H246905   2.595   6.140  11.903  1.1133 -0.8676 -0.3665
 8472TIP3   OH246906   3.959   3.908   1.277  0.4971  0.4848 -0.2535
 8472TIP3    H146907   3.886   3.914   1.338 -0.5586  0.0788 -1.4449
 8472TIP3    H246908   4.036   3.894   1.333 -0.4764 -0.2130  0.9551
 8473TIP3   OH246909   3.593   2.800  15.511  0.0354  0.3263  0.3636
 8473TIP3    H146910   3.664   2.806  15.575 -0.4899  1.2240  0.8773
 8473TIP3    H246911   3.536   2.730  15.545  1.8190 -2.0875 -1.2580
 8474TIP3   OH246912   4.614   1.361   6.020 -0.9205  0.4440 -0.4035
 8474TIP3    H146913   4.662   1.283   5.992 -0.4267  1.1281 -1.5232
 8474TIP3    H246914   4.672   1.434   6.000 -1.5686  1.1438  0.1926
 8475TIP3   OH246915   4.435   0.841  13.370  0.3569 -0.1296  0.1730
 8475TIP3    H146916   4.349   0.848  13.412  0.5992  1.5510  0.4667
 8475TIP3    H246917   4.450   0.928  13.332  0.5364 -1.3020 -2.6627
 8476TIP3   OH246918   2.367   0.642  15.119  0.6441  0.1094 -0.2487
 8476TIP3    H146919   2.309   0.639  15.043  0.5678 -0.2221 -0.1811
 8476TIP3    H246920   2.310   0.620  15.193  0.0220  3.3569  0.3488
 8477TIP3   OH246921   1.154   3.988   4.015 -0.2255  0.0514 -0.1008
 8477TIP3    H146922   1.141   4.076   4.049  0.8627 -1.0391  3.6408
 8477TIP3    H246923   1.076   3.939   4.041 -0.2682 -0.4264 -1.0473
 8478TIP3   OH246924   6.727   5.293   2.697 -0.0685 -0.0071 -0.0985
 8478TIP3    H146925   6.697   5.264   2.611  0.3349  0.3757 -0.3692
 8478TIP3    H246926   6.709   5.218   2.755  0.0595 -0.4300 -0.5994
 8479TIP3   OH246927   2.769   2.592   6.181  0.9292 -0.9354  0.2073
 8479TIP3    H146928   2.789   2.537   6.257 -0.8559 -0.4752  1.0681
 8479TIP3    H246929   2.721   2.534   6.122 -1.8691 -0.1894  1.5604
 8480TIP3   OH246930   0.821   6.161   6.279  0.2666  0.4255  0.1204
 8480TIP3    H146931   0.859   6.246   6.256 -0.7703  1.1192  0.8124
 8480TIP3    H246932   0.747   6.184   6.336 -1.5443 -0.7958 -1.6176
 8481TIP3   OH246933   0.604   0.776   0.370 -0.1344  0.1442 -0.1124
 8481TIP3    H146934   0.626   0.797   0.279 -1.0081 -0.8475 -0.5710
 8481TIP3    H246935   0.589   0.860   0.411 -0.1618  0.5858 -0.9995
 8482TIP3   OH246936   2.306   6.632   4.555  0.2705 -0.4088 -0.0931
 8482TIP3    H146937   2.362   6.580   4.612  0.6732 -0.5350 -0.5853
 8482TIP3    H246938   2.365   6.662   4.485  0.1842  1.1956  0.4779
 8483TIP3   OH246939   2.150   0.177  14.387  0.1613  0.3851 -0.4830
 8483TIP3    H146940   2.055   0.183  14.392  0.2063  0.0911  1.2941
 8483TIP3    H246941   2.181   0.267  14.383 -0.0713  0.7667  3.2623
 8484TIP3   OH246942   5.936   4.725  16.893  0.0138 -0.0767 -0.0310
 8484TIP3    H146943   5.875   4.673  16.841 -0.0418 -1.2535  1.1521
 8484TIP3    H246944   6.022   4.705  16.856 -0.1379  0.1188 -0.4967
 8485TIP3   OH246945   2.458   1.440   1.484 -0.6560 -0.0996  0.1768
 8485TIP3    H146946   2.442   1.521   1.436 -1.0020 -0.0431  0.3856
 8485TIP3    H246947   2.400   1.376   1.444 -0.0420 -0.3681 -0.3012
 8486TIP3   OH246948   1.407   0.834   3.910  0.4509  0.1346 -0.0505
 8486TIP3    H146949   1.406   0.755   3.856  0.3048  0.1671 -0.0935
 8486TIP3    H246950   1.327   0.830   3.962 -0.8573  1.4956 -1.8390
 8487TIP3   OH246951   6.396   3.834   5.753  0.2444 -0.4126 -0.2092
 8487TIP3    H146952   6.465   3.890   5.717 -0.8318  0.0048 -1.7663
 8487TIP3    H246953   6.443   3.760   5.792  1.5780 -0.2794 -1.4488
 8488TIP3   OH246954   0.739   2.110   1.303  0.3734  0.1759  0.3630
 8488TIP3    H146955   0.756   2.028   1.350  2.4983 -0.8050 -1.8727
 8488TIP3    H246956   0.760   2.179   1.367  1.1286 -1.0523  1.4999
 8489TIP3   OH246957   1.694   4.453   2.518  0.1295  0.1364 -0.3979
 8489TIP3    H146958   1.735   4.512   2.581  1.9336  0.0079 -1.3714
 8489TIP3    H246959   1.601   4.474   2.521  0.5332  1.9558  0.3902
 8490TIP3   OH246960   4.602   1.745   5.208  0.0623  0.1435  0.2008
 8490TIP3    H146961   4.645   1.807   5.268  0.7079 -0.2111  0.1204
 8490TIP3    H246962   4.652   1.663   5.220 -1.7095 -0.8227  1.4404
 8491TIP3   OH246963   0.303   5.144   3.817 -0.4323  0.4043 -0.2871
 8491TIP3    H146964   0.375   5.089   3.786 -1.2684 -0.7753 -0.1858
 8491TIP3    H246965   0.225   5.091   3.803 -1.1362  1.0564  1.0271
 8492TIP3   OH246966   0.741   2.301  11.722  0.1885  0.0458  0.0384
 8492TIP3    H146967   0.738   2.263  11.634  1.5385 -0.1797  0.0667
 8492TIP3    H246968   0.829   2.280  11.754  0.0194  0.8842  1.1022
 8493TIP3   OH246969   0.488   4.907   6.914  0.6979 -0.5191 -0.0636
 8493TIP3    H146970   0.428   4.894   6.841 -2.4299  0.0325  2.2314
 8493TIP3    H246971   0.496   5.002   6.922 -0.4479 -0.5142  1.3456
 8494TIP3   OH246972   6.646   0.458  14.462 -0.0364  0.3420  0.0347
 8494TIP3    H146973   6.587   0.389  14.493 -0.3888 -0.0505 -1.4539
 8494TIP3    H246974   6.668   0.507  14.541  0.0733 -1.3453  1.1076
 8495TIP3   OH246975   3.001   5.052  16.470 -0.7244  0.0357 -0.0315
 8495TIP3    H146976   2.936   5.113  16.505 -1.0408 -0.4581  0.2624
 8495TIP3    H246977   3.066   5.045  16.539 -1.5894 -1.3028  0.6957
 8496TIP3   OH246978   3.675   1.499   4.822  0.6096 -0.3914 -0.4229
 8496TIP3    H146979   3.738   1.478   4.753 -0.6181 -0.0185 -1.6941
 8496TIP3    H246980   3.633   1.579   4.792 -0.0471 -0.2979  0.7080
 8497TIP3   OH246981   5.292   6.531  16.140  0.8702  0.7210 -0.2425
 8497TIP3    H146982   5.370   6.491  16.179  1.0955 -1.7010 -2.8361
 8497TIP3    H246983   5.319   6.553  16.051 -0.9864  1.3813 -0.6831
 8498TIP3   OH246984   1.521   4.111   4.357 -0.0021  0.3215 -0.2444
 8498TIP3    H146985   1.587   4.043   4.344 -1.8154 -1.5000 -0.4755
 8498TIP3    H246986   1.469   4.110   4.277 -1.6769  0.0687  0.8009
 8499TIP3   OH246987   6.499   5.583   0.602 -0.7802  0.1528 -0.3145
 8499TIP3    H146988   6.404   5.572   0.597 -0.7095 -0.1279 -3.5356
 8499TIP3    H246989   6.520   5.581   0.695 -3.6245 -2.4284  0.3977
 8500TIP3   OH246990   5.615   6.674  13.856 -0.0646 -0.3246  0.3241
 8500TIP3    H146991   5.651   6.732  13.789  0.0657 -0.2655  0.4426
 8500TIP3    H246992   5.627   6.586  13.821  0.1601 -0.3023  0.3436
 8501TIP3   OH246993   0.944   0.106   5.134  0.9006 -0.2656 -0.2036
 8501TIP3    H146994   0.951   0.163   5.210 -3.5133 -0.6283  0.7451
 8501TIP3    H246995   0.938   0.166   5.060  0.2624  0.3377  0.3270
 8502TIP3   OH246996   6.388   5.859   2.435 -0.2110  0.1157  0.1310
 8502TIP3    H146997   6.414   5.767   2.431 -1.2449 -0.2177  0.5444
 8502TIP3    H246998   6.442   5.902   2.369 -1.4029 -1.2271 -1.8432
 8503TIP3   OH246999   6.114   5.199   4.443  0.3646 -0.0882  0.2218
 8503TIP3    H147000   6.091   5.203   4.536  1.1741  1.8710  0.3702
 8503TIP3    H247001   6.106   5.289   4.412  0.1896 -0.6949 -1.6049
 8504TIP3   OH247002   2.391   0.106  13.895  0.0177 -0.1352 -0.3035
 8504TIP3    H147003   2.449   0.165  13.848  0.0930  0.0338  0.0007
 8504TIP3    H247004   2.357   0.158  13.968  0.3972 -0.5821  0.2063
 8505TIP3   OH247005   4.253   6.455   1.042 -0.5560 -0.3716  0.3953
 8505TIP3    H147006   4.166   6.496   1.044  0.0928  1.0969 -0.5190
 8505TIP3    H247007   4.277   6.453   0.950 -0.2893 -2.3016  0.4609
 8506TIP3   OH247008   5.105   6.637   0.230  0.3208  0.3760  0.4345
 8506TIP3    H147009   5.024   6.646   0.180  0.8700  1.7249 -0.3000
 8506TIP3    H247010   5.152   6.565   0.187  1.1974  2.0953 -1.7224
 8507TIP3   OH247011   3.815   1.685  12.851  0.2183 -0.2104  0.2677
 8507TIP3    H147012   3.731   1.732  12.856  0.0543 -0.6167  1.9866
 8507TIP3    H247013   3.791   1.593  12.857  0.8189 -0.2932  2.0075
 8508TIP3   OH247014   3.409   3.592  11.172 -0.0637 -0.7316  0.1969
 8508TIP3    H147015   3.483   3.625  11.224 -0.8387 -0.1226  0.9603
 8508TIP3    H247016   3.335   3.645  11.202 -1.0102 -2.0145  0.1803
 8509TIP3   OH247017   5.400   0.422  14.988 -0.1682  0.3402  0.6732
 8509TIP3    H147018   5.466   0.466  14.935  0.8791 -0.0223  1.6322
 8509TIP3    H247019   5.390   0.336  14.947 -1.1089  0.8925 -0.3068
 8510TIP3   OH247020   3.445   5.003   6.002  0.4217  0.5827  0.8153
 8510TIP3    H147021   3.434   5.056   5.923 -0.8572  1.2431  1.4133
 8510TIP3    H247022   3.475   5.065   6.069  2.1194 -0.0917  0.7132
 8511TIP3   OH247023   3.456   3.609  12.586 -0.2139  0.1305 -0.1966
 8511TIP3    H147024   3.505   3.690  12.601 -0.0942 -0.1515  1.0608
 8511TIP3    H247025   3.372   3.623  12.629 -0.2927 -0.3110 -0.2041
 8512TIP3   OH247026   1.466   0.876   2.987  1.0458  0.4106 -0.0079
 8512TIP3    H147027   1.426   0.930   2.919 -0.0157 -0.2322  0.0920
 8512TIP3    H247028   1.553   0.914   3.000  0.7095  1.4313 -0.6854
 8513TIP3   OH247029   6.287   2.333  16.007 -0.0340  0.0988  0.3596
 8513TIP3    H147030   6.298   2.326  16.102 -2.8912  0.1014  0.7772
 8513TIP3    H247031   6.373   2.359  15.974  0.9166  0.5158  2.9878
 8514TIP3   OH247032   6.457   1.944  16.398  0.5492  0.4712  0.7292
 8514TIP3    H147033   6.399   2.020  16.407  0.7141  0.7906 -0.6820
 8514TIP3    H247034   6.440   1.911  16.310  1.3972 -0.3856  0.8675
 8515TIP3   OH247035   4.123   5.403  15.513  0.1012 -0.4231 -0.0306
 8515TIP3    H147036   4.061   5.423  15.443  0.4932  1.6597  0.1514
 8515TIP3    H247037   4.087   5.446  15.591  2.4529  2.2747 -0.2569
 8516TIP3   OH247038   2.738   0.271   3.293  0.3675  0.1599  0.5609
 8516TIP3    H147039   2.777   0.275   3.381  0.4112 -0.2990  0.5653
 8516TIP3    H247040   2.646   0.295   3.306  0.2773 -0.3120  0.7964
 8517TIP3   OH247041   2.960   0.113  16.117  0.7147 -0.2941 -0.7215
 8517TIP3    H147042   3.042   0.137  16.159  1.1907 -3.3358  0.2995
 8517TIP3    H247043   2.979   0.116  16.023  2.4920 -2.2475 -0.4943
 8518TIP3   OH247044   6.664   0.878   4.532  0.3144  0.0269 -0.1704
 8518TIP3    H147045   6.626   0.930   4.461 -2.6606 -1.4907  0.1582
 8518TIP3    H247046   6.638   0.924   4.612 -0.7589 -0.9113  0.0513
 8519TIP3   OH247047   2.980   2.584  14.772  0.1106  0.0376 -0.3021
 8519TIP3    H147048   3.068   2.549  14.761  0.2726  0.1358  0.5955
 8519TIP3    H247049   2.924   2.506  14.777  0.1776 -0.0313 -0.6422
 8520TIP3   OH247050   1.602   1.902  13.993  0.1437 -0.1054  0.7834
 8520TIP3    H147051   1.575   1.846  13.920  1.5359  0.9445 -0.5986
 8520TIP3    H247052   1.697   1.892  13.997 -0.0036 -1.3201  3.5078
 8521TIP3   OH247053   5.607   0.090  11.553  0.0234 -0.5628  0.0007
 8521TIP3    H147054   5.617   0.179  11.588  1.9748  0.0210 -1.8148
 8521TIP3    H247055   5.545   0.100  11.481  0.3443 -0.6430 -0.2862
 8522TIP3   OH247056   4.658   0.205   4.646 -0.3148  0.1413  0.2708
 8522TIP3    H147057   4.595   0.164   4.586  1.7297 -0.6352 -1.5049
 8522TIP3    H247058   4.729   0.234   4.589  1.4375 -0.0219  2.2539
 8523TIP3   OH247059   3.790   3.104   1.107  0.1479  1.2469 -0.2115
 8523TIP3    H147060   3.872   3.074   1.146 -0.5233  0.4553  0.6305
 8523TIP3    H247061   3.807   3.195   1.084  2.1169  0.4366 -2.4351
 8524TIP3   OH247062   1.684   4.496   2.909 -0.3381  0.4235 -0.1880
 8524TIP3    H147063   1.760   4.507   2.852 -0.6641  0.7457 -0.5732
 8524TIP3    H247064   1.610   4.486   2.848 -0.4451 -1.2288  0.1419
 8525TIP3   OH247065   5.782   2.112  15.081  0.5942 -0.7432  0.6061
 8525TIP3    H147066   5.874   2.109  15.054  0.8380 -0.6265  1.3918
 8525TIP3    H247067   5.754   2.020  15.082  0.5276 -0.7346 -0.2022
 8526TIP3   OH247068   2.441   2.924   3.479 -0.4836  0.2762 -0.3373
 8526TIP3    H147069   2.370   2.902   3.419 -3.1032  2.3131  1.7666
 8526TIP3    H247070   2.515   2.947   3.421 -1.5180 -1.7270 -2.6184
 8527TIP3   OH247071   3.080   5.080   5.644 -0.0633 -0.2274 -0.2615
 8527TIP3    H147072   3.093   5.058   5.552 -0.2739 -0.4856 -0.2332
 8527TIP3    H247073   3.032   5.005   5.680 -0.9441  0.3529 -0.2007
 8528TIP3   OH247074   0.679   3.597  10.723 -0.1667 -0.0714 -0.3856
 8528TIP3    H147075   0.764   3.625  10.759 -0.3771 -1.0435  0.9672
 8528TIP3    H247076   0.655   3.667  10.662  1.2519  0.5907 -0.2480
 8529TIP3   OH247077   5.918   5.489  13.619  0.6850  0.0174  0.6645
 8529TIP3    H147078   5.881   5.491  13.531  0.1896 -1.6495  0.8072
 8529TIP3    H247079   5.850   5.451  13.673  1.1400  0.6416  1.7068
 8530TIP3   OH247080   6.614   5.873   0.662 -0.6419  0.1293  0.1755
 8530TIP3    H147081   6.636   5.858   0.754  0.8362  0.6677 -0.0545
 8530TIP3    H247082   6.528   5.832   0.651 -0.7611 -0.1208  1.7354
 8531TIP3   OH247083   2.824   1.000  13.660 -0.6668 -0.1757 -1.0086
 8531TIP3    H147084   2.810   0.953  13.578  0.5540 -1.4276 -0.5369
 8531TIP3    H247085   2.818   0.933  13.727  1.4005  0.2657 -0.3287
 8532TIP3   OH247086   3.221   0.853  13.350  0.3281 -0.0065  0.1121
 8532TIP3    H147087   3.133   0.886  13.333  0.1977 -1.0900 -1.5079
 8532TIP3    H247088   3.237   0.874  13.442 -2.0028 -0.6461  0.7322
 8533TIP3   OH247089   2.023   4.992  15.368 -0.1825  0.3163  0.3894
 8533TIP3    H147090   2.000   5.062  15.307  0.6016  0.4879  0.2714
 8533TIP3    H247091   2.009   5.028  15.455  1.2963  1.0398  0.3597
 8534TIP3   OH247092   2.358   4.171   1.932  0.3070  0.1277 -0.4315
 8534TIP3    H147093   2.333   4.174   2.024 -0.5106 -1.2884 -0.5869
 8534TIP3    H247094   2.307   4.099   1.895  1.5034 -0.1070 -1.7243
 8535TIP3   OH247095   3.716   4.327   4.750 -0.3633  0.2812  0.2000
 8535TIP3    H147096   3.668   4.371   4.680  0.4292  0.2882 -0.3472
 8535TIP3    H247097   3.806   4.321   4.718 -0.6119 -2.8167 -0.3111
 8536TIP3   OH247098   0.121   2.096   3.978 -0.4125  0.0494 -0.2417
 8536TIP3    H147099   0.202   2.091   4.029 -0.8414  0.4979  0.4994
 8536TIP3    H247100   0.052   2.103   4.044 -1.1587 -1.4400 -0.8276
 8537TIP3   OH247101   1.405   0.348   3.254  0.0009  0.6358 -0.3969
 8537TIP3    H147102   1.368   0.262   3.273  3.2158 -0.3325  2.6577
 8537TIP3    H247103   1.389   0.399   3.333 -0.4656  2.3679 -1.5598
 8538TIP3   OH247104   6.035   4.524  17.230  0.2064  0.6861 -0.6167
 8538TIP3    H147105   6.085   4.596  17.192 -0.7191  0.6074 -2.0966
 8538TIP3    H247106   6.101   4.466  17.268  0.9604  2.3504  0.7500
 8539TIP3   OH247107   1.793   3.177   3.817  0.1862 -0.1941  0.2976
 8539TIP3    H147108   1.778   3.250   3.876 -0.6990  1.5494 -1.9361
 8539TIP3    H247109   1.841   3.113   3.869  1.7426  2.3058  2.1260
 8540TIP3   OH247110   5.648   6.228  11.520  0.2651  0.1436 -0.0048
 8540TIP3    H147111   5.572   6.208  11.466 -1.3392  2.2507  1.2858
 8540TIP3    H247112   5.661   6.150  11.573 -1.3180 -0.1354  0.0386
 8541TIP3   OH247113   0.950   6.104  15.239 -0.1224  0.2171 -0.2510
 8541TIP3    H147114   1.009   6.179  15.244  2.9033 -1.9885  0.6136
 8541TIP3    H247115   0.919   6.103  15.149  2.3282  0.7715 -1.1860
 8542TIP3   OH247116   2.274   2.383  13.086  0.1710 -0.2321 -0.0280
 8542TIP3    H147117   2.204   2.385  13.152 -0.1134  0.1175 -0.3309
 8542TIP3    H247118   2.336   2.450  13.115  0.2402 -0.3472  0.0903
 8543TIP3   OH247119   6.420   1.996   2.397  0.6147  0.3795  0.3414
 8543TIP3    H147120   6.490   1.959   2.344  0.7058 -0.0949  0.7812
 8543TIP3    H247121   6.403   2.081   2.358 -1.0593 -0.9138 -2.0347
 8544TIP3   OH247122   2.811   4.341  14.411 -0.2336  0.0173  0.2429
 8544TIP3    H147123   2.764   4.264  14.443  0.5934  0.3395  2.3814
 8544TIP3    H247124   2.743   4.409  14.405 -0.3691  0.0476  1.7698
 8545TIP3   OH247125   0.269   6.262  15.516 -0.1479  0.2658  0.3997
 8545TIP3    H147126   0.214   6.199  15.563  0.7612 -0.0758  1.0391
 8545TIP3    H247127   0.344   6.211  15.486  0.2113  0.8849  0.2259
 8546TIP3   OH247128   5.137   2.061   0.981 -0.1560 -0.3121 -0.0250
 8546TIP3    H147129   5.200   2.109   0.928  1.0897 -0.5981  1.1467
 8546TIP3    H247130   5.174   1.973   0.990 -0.8991 -0.5974  0.3723
 8547TIP3   OH247131   3.208   6.268   2.439  0.0565  0.1740  0.6723
 8547TIP3    H147132   3.285   6.270   2.496  1.5334  1.0091 -1.2466
 8547TIP3    H247133   3.175   6.178   2.446  3.5280 -1.4507 -1.2860
 8548TIP3   OH247134   5.520   6.728  12.974  0.1836 -0.5361  0.0699
 8548TIP3    H147135   5.573   6.804  12.997  0.3981 -0.9424  0.9491
 8548TIP3    H247136   5.469   6.757  12.898  1.5400 -0.0911 -0.7057
 8549TIP3   OH247137   0.717   4.699  11.568 -0.1138  0.2291  0.5470
 8549TIP3    H147138   0.687   4.658  11.487 -0.3335  2.1994 -0.4372
 8549TIP3    H247139   0.703   4.632  11.635 -0.5161 -1.2411 -0.9241
 8550TIP3   OH247140   4.931   1.029  17.383 -0.9278  0.6631 -0.1146
 8550TIP3    H147141   4.890   1.098  17.330 -1.4629  0.4987  0.0720
 8550TIP3    H247142   4.950   0.959  17.321 -1.4883  0.4995 -0.1110
 8551TIP3   OH247143   3.088   6.754  15.217 -0.1338 -0.0896  0.1908
 8551TIP3    H147144   2.999   6.762  15.251 -0.7909 -1.3428 -1.1006
 8551TIP3    H247145   3.120   6.670  15.250 -0.1162 -0.4815 -0.7704
 8552TIP3   OH247146   5.142   2.558  12.998 -0.0282  0.7931 -0.5783
 8552TIP3    H147147   5.072   2.535  12.937 -0.8056  1.1458  0.1661
 8552TIP3    H247148   5.171   2.475  13.034  0.6045  0.5553 -1.5917
 8553TIP3   OH247149   2.754   6.255   1.153  0.4585  0.0390  0.1508
 8553TIP3    H147150   2.752   6.255   1.249 -0.8504 -1.3458  0.1621
 8553TIP3    H247151   2.782   6.167   1.130  0.5507  0.3010 -0.7570
 8554TIP3   OH247152   2.560   5.811   6.644  0.3935  0.3487  0.0401
 8554TIP3    H147153   2.508   5.872   6.592  1.9995 -0.6252 -2.9430
 8554TIP3    H247154   2.639   5.860   6.666  0.0668  0.4976  0.9138
 8555TIP3   OH247155   2.139   3.771  16.752 -0.2409  0.3274  0.3089
 8555TIP3    H147156   2.113   3.694  16.701  0.0675  0.3128  0.1707
 8555TIP3    H247157   2.218   3.743  16.799 -0.6699  0.2583  0.9920
 8556TIP3   OH247158   1.712   3.871  12.347  1.1278  0.4924 -0.0260
 8556TIP3    H147159   1.640   3.889  12.286 -0.7125 -1.1072  1.5392
 8556TIP3    H247160   1.779   3.829  12.293 -0.5002 -1.0160 -0.9560
 8557TIP3   OH247161   2.461   2.969  16.784 -0.4574 -0.1471 -0.4408
 8557TIP3    H147162   2.384   3.018  16.754 -0.5098  0.1797  0.2214
 8557TIP3    H247163   2.536   3.016  16.748 -0.5806 -1.7512 -3.0628
 8558TIP3   OH247164   6.644   5.998  16.039  0.1366 -0.3616 -0.1446
 8558TIP3    H147165   6.570   5.940  16.020 -1.0615  1.1078 -0.0799
 8558TIP3    H247166   6.619   6.045  16.118  0.4648  1.2353 -0.9414
 8559TIP3   OH247167   1.941   6.129   5.908  0.4028 -0.1745 -0.0140
 8559TIP3    H147168   1.951   6.035   5.898 -0.7188 -0.4851  1.5605
 8559TIP3    H247169   2.017   6.156   5.959  0.6324 -0.2428 -0.3163
 8560TIP3   OH247170   4.663   3.006   0.147  0.2419 -0.0101 -0.1022
 8560TIP3    H147171   4.756   2.984   0.139  0.1702 -0.5485  0.4235
 8560TIP3    H247172   4.617   2.928   0.116 -0.0433  0.5889 -1.2040
 8561TIP3   OH247173   0.491   6.163   5.317 -0.1629  0.4782 -0.7520
 8561TIP3    H147174   0.538   6.218   5.380 -1.2653 -0.8615  1.3650
 8561TIP3    H247175   0.557   6.103   5.283  0.0098 -0.5206  1.1929
 8562TIP3   OH247176   4.382   4.924  16.683  0.3124 -0.5694  0.4418
 8562TIP3    H147177   4.325   4.853  16.652 -1.9183  1.2049  0.2623
 8562TIP3    H247178   4.395   4.906  16.776  0.7496 -1.8080  0.1621
 8563TIP3   OH247179   6.487   6.195   1.877  0.4535 -0.8358  0.2897
 8563TIP3    H147180   6.484   6.100   1.865  0.5804 -0.8291  0.1964
 8563TIP3    H247181   6.450   6.230   1.796 -3.2191 -0.8495  1.8023
 8564TIP3   OH247182   4.418   2.063   7.125  0.0177 -0.1230 -0.5573
 8564TIP3    H147183   4.441   1.976   7.157 -0.1958 -0.3910 -1.1191
 8564TIP3    H247184   4.323   2.060   7.114 -0.0417  0.3120 -0.2035
 8565TIP3   OH247185   0.268   3.451  14.485  0.3653  0.0879  0.1398
 8565TIP3    H147186   0.191   3.395  14.477 -0.1006  0.4413  1.8465
 8565TIP3    H247187   0.341   3.390  14.498  0.3599 -0.2269 -1.1227
 8566TIP3   OH247188   5.146   0.952   3.615  0.3762 -0.3310  0.2679
 8566TIP3    H147189   5.111   0.947   3.704  3.3759 -0.1759  1.5796
 8566TIP3    H247190   5.217   1.015   3.621  0.4456 -0.0460 -2.3782
 8567TIP3   OH247191   5.210   5.602  14.594 -0.0067  0.1764  0.1467
 8567TIP3    H147192   5.259   5.684  14.597  0.6094 -0.2013  1.8428
 8567TIP3    H247193   5.217   5.574  14.503  1.0037  1.2848 -0.1557
 8568TIP3   OH247194   0.549   4.957  13.474  0.0553  0.3429  0.0689
 8568TIP3    H147195   0.524   4.917  13.558  0.6150  0.7757  0.4464
 8568TIP3    H247196   0.621   4.904  13.442  0.6238  0.8856  0.4416
 8569TIP3   OH247197   1.605   6.348  11.611 -0.1667 -0.1396 -0.0560
 8569TIP3    H147198   1.613   6.257  11.583 -0.0366 -0.1719  0.0883
 8569TIP3    H247199   1.684   6.390  11.578 -0.1485 -0.1142  0.0200
 8570TIP3   OH247200   5.991   3.228  11.791 -0.2167 -0.3306  0.6360
 8570TIP3    H147201   6.070   3.235  11.737  0.4409  1.3891  1.7288
 8570TIP3    H247202   6.023   3.193  11.875 -0.6564  0.1100  0.9892
 8571TIP3   OH247203   5.925   2.957  12.457 -0.0491 -0.3041  0.0356
 8571TIP3    H147204   6.007   2.935  12.414  0.1102  0.6272 -0.1606
 8571TIP3    H247205   5.946   2.958  12.550 -0.8909 -4.5348  0.4679
 8572TIP3   OH247206   0.538   0.504  11.874  0.2821  0.0641  0.3078
 8572TIP3    H147207   0.590   0.482  11.796  0.8655  0.3394  0.6114
 8572TIP3    H247208   0.457   0.541  11.840 -0.9626 -2.8987 -0.2633
 8573TIP3   OH247209   3.317   2.585  13.173  0.0236 -0.6583 -0.5709
 8573TIP3    H147210   3.292   2.589  13.265 -1.0442  0.6802 -0.8772
 8573TIP3    H247211   3.246   2.537  13.130  1.0901 -2.3283 -0.5586
 8574TIP3   OH247212   2.096   3.561  16.590  0.5972  0.1442 -0.6257
 8574TIP3    H147213   2.096   3.640  16.535 -0.7116  0.8240  0.2926
 8574TIP3    H247214   2.041   3.499  16.541  1.5513 -0.1836 -1.3051
 8575TIP3   OH247215   0.233   1.179  13.448  0.1223  0.1980 -0.3815
 8575TIP3    H147216   0.230   1.226  13.531  2.1624 -1.6110  0.8224
 8575TIP3    H247217   0.266   1.092  13.471 -0.8293 -0.9136 -2.8837
 8576TIP3   OH247218   0.759   6.688  15.694 -0.1007  0.4955  0.4521
 8576TIP3    H147219   0.762   6.592  15.690 -0.6830  0.5273 -2.8431
 8576TIP3    H247220   0.666   6.709  15.695 -0.0591  1.0240 -2.1511
 8577TIP3   OH247221   4.919   2.012   1.285 -0.1273 -0.3396 -0.7365
 8577TIP3    H147222   4.869   2.075   1.233  0.2574 -0.0061 -0.7140
 8577TIP3    H247223   5.007   2.015   1.247  0.0263 -0.4696 -0.3932
 8578TIP3   OH247224   6.630   2.089   0.815  0.3129 -0.2643 -0.5610
 8578TIP3    H147225   6.597   2.027   0.881 -0.0694 -0.3804 -0.8594
 8578TIP3    H247226   6.702   2.134   0.859  0.1929 -0.4852 -0.1304
 8579TIP3   OH247227   3.159   4.055   2.822 -0.6013 -0.1789 -0.4032
 8579TIP3    H147228   3.208   4.120   2.771 -0.8776 -1.0494 -1.8282
 8579TIP3    H247229   3.076   4.046   2.775  0.2411 -3.0891 -1.5540
 8580TIP3   OH247230   3.755   5.828   4.088 -0.4997  0.1821 -0.1131
 8580TIP3    H147231   3.772   5.780   4.169  0.5549  0.6789 -0.0173
 8580TIP3    H247232   3.682   5.886   4.109  0.8708  1.5562  1.0433
 8581TIP3   OH247233   3.495   0.449   0.624 -0.8232 -0.3870 -0.0257
 8581TIP3    H147234   3.456   0.397   0.694  1.7736 -3.1495 -0.4553
 8581TIP3    H247235   3.471   0.402   0.544 -1.7270  1.3956 -0.8620
 8582TIP3   OH247236   5.058   3.154  14.905 -0.0748  0.2026  0.0829
 8582TIP3    H147237   5.026   3.217  14.841  0.4800  1.9102  1.4263
 8582TIP3    H247238   5.147   3.133  14.876 -0.6981 -1.0290 -1.0841
 8583TIP3   OH247239   2.988   3.964  15.618 -0.1027  1.2067 -0.4523
 8583TIP3    H147240   3.060   4.000  15.567  1.9620 -1.7673  0.0959
 8583TIP3    H247241   3.002   3.869  15.616 -1.3992  0.7490  3.4316
 8584TIP3   OH247242   5.190   2.907   1.219 -0.0620  0.1669 -0.0163
 8584TIP3    H147243   5.155   2.902   1.308  1.8714 -2.2254  0.7561
 8584TIP3    H247244   5.251   2.981   1.222  2.5610 -1.8440  1.8516
 8585TIP3   OH247245   0.171   4.209  12.841  0.8021  0.1045 -0.0209
 8585TIP3    H147246   0.107   4.179  12.776 -0.6182  2.3139  0.2227
 8585TIP3    H247247   0.240   4.144  12.840 -1.1162 -2.0372 -0.8444
 8586TIP3   OH247248   1.627   2.247  13.387 -0.2489  0.0454  0.2761
 8586TIP3    H147249   1.574   2.196  13.449 -1.7216 -0.5874 -1.3811
 8586TIP3    H247250   1.584   2.232  13.303  1.5454  1.0296 -0.8685
 8587TIP3   OH247251   3.036   1.066  16.916 -0.1257 -0.0488  0.3458
 8587TIP3    H147252   3.046   1.087  16.824 -0.8841  0.6511  0.4139
 8587TIP3    H247253   3.055   1.148  16.962  0.6742 -0.4980  0.8498
 8588TIP3   OH247254   5.286   0.022   2.166  0.7568  0.0679 -0.2217
 8588TIP3    H147255   5.348   0.059   2.103  1.2681 -0.2543  0.0883
 8588TIP3    H247256   5.233  -0.039   2.114  0.1775  0.9064 -0.6489
 8589TIP3   OH247257   1.468   6.080  17.358  0.4297  0.3662  0.1999
 8589TIP3    H147258   1.552   6.068  17.313  0.4685  0.5793  0.2150
 8589TIP3    H247259   1.403   6.073  17.288  0.3436 -1.4668  0.4232
 8590TIP3   OH247260   4.575   3.407   4.433 -0.8156  0.0517 -0.0552
 8590TIP3    H147261   4.667   3.410   4.409 -0.7188 -1.8572 -0.0910
 8590TIP3    H247262   4.529   3.389   4.351 -1.0418 -0.6605  0.2171
 8591TIP3   OH247263   6.517   5.214  16.080  0.2922  0.0771  0.1950
 8591TIP3    H147264   6.432   5.177  16.054  0.5822 -0.1992 -0.3743
 8591TIP3    H247265   6.537   5.172  16.163  0.8760 -1.5083 -0.6960
 8592TIP3   OH247266   2.968   1.494   1.397 -0.4331 -0.7256 -0.7934
 8592TIP3    H147267   3.011   1.436   1.460  0.0719 -2.0710 -2.3160
 8592TIP3    H247268   2.876   1.467   1.400 -0.6628  0.0982  0.2671
 8593TIP3   OH247269   0.359   5.929  14.927  0.2597 -0.2790 -0.2473
 8593TIP3    H147270   0.451   5.919  14.904  0.0329 -2.7790 -0.3784
 8593TIP3    H247271   0.330   5.840  14.946 -2.1987  0.4236 -0.4235
 8594TIP3   OH247272   1.323   5.483   2.740 -0.7143 -0.2587  0.8463
 8594TIP3    H147273   1.380   5.411   2.765  0.1027 -0.4237 -1.2807
 8594TIP3    H247274   1.281   5.454   2.659  0.2422  1.8879 -0.5136
 8595TIP3   OH247275   4.474   3.448   2.174 -0.1628 -0.8162 -0.3796
 8595TIP3    H147276   4.542   3.492   2.123  1.1853 -1.5309  0.7309
 8595TIP3    H247277   4.427   3.395   2.110 -0.6377  0.7565 -1.4156
 8596TIP3   OH247278   3.636   1.851  15.462  0.2218 -0.2856 -0.0980
 8596TIP3    H147279   3.604   1.772  15.506 -0.5430  0.4760  0.7408
 8596TIP3    H247280   3.565   1.914  15.469  1.2416  0.8737  0.2616
 8597TIP3   OH247281   0.110   0.315   0.039  0.4306 -0.3584 -0.0685
 8597TIP3    H147282   0.145   0.242   0.088 -1.4689 -0.2134  1.6274
 8597TIP3    H247283   0.107   0.284  -0.052  0.4884 -2.0369  0.4778
 8598TIP3   OH247284   4.798   4.827  12.159  0.0049  0.0206 -0.6265
 8598TIP3    H147285   4.808   4.735  12.133  1.3307 -0.1616  0.4517
 8598TIP3    H247286   4.871   4.872  12.117  0.7975  0.1281  0.8108
 8599TIP3   OH247287   6.041   6.532   0.227  0.3721  0.0979 -0.0682
 8599TIP3    H147288   5.952   6.500   0.216 -0.0120  0.2326  2.2569
 8599TIP3    H247289   6.075   6.484   0.302  1.4279  1.7245  0.5406
 8600TIP3   OH247290   1.660   2.470  12.341 -0.1299  0.4155 -0.4625
 8600TIP3    H147291   1.622   2.389  12.307 -2.7444  1.5201 -0.3746
 8600TIP3    H247292   1.633   2.538  12.279  2.1375  1.2639 -0.6210
 8601TIP3   OH247293   0.165   2.727   3.794  0.0054 -0.1866 -0.1943
 8601TIP3    H147294   0.121   2.786   3.733  2.1455  0.7455 -0.9491
 8601TIP3    H247295   0.204   2.660   3.738  1.0352  0.0413  0.2313
 8602TIP3   OH247296   4.132   0.484   5.500 -0.4401  0.2360  0.5600
 8602TIP3    H147297   4.146   0.394   5.527  1.4178 -0.0827 -1.2675
 8602TIP3    H247298   4.040   0.487   5.473 -0.2792 -1.4189 -0.3119
 8603TIP3   OH247299   2.873   2.296  12.320  0.1324  0.2892  0.4841
 8603TIP3    H147300   2.951   2.337  12.285 -0.7424  1.1286 -0.5447
 8603TIP3    H247301   2.802   2.357  12.299 -0.9313 -0.8844  0.5479
 8604TIP3   OH247302   2.737   3.216  17.160  0.3634 -0.4295  0.7819
 8604TIP3    H147303   2.785   3.229  17.078  0.7450  0.6878  1.1674
 8604TIP3    H247304   2.784   3.269  17.224 -0.9771  0.1450  1.3228
 8605TIP3   OH247305   2.291   0.056   1.506  0.3084  0.6119  0.2989
 8605TIP3    H147306   2.288   0.027   1.597 -0.7259 -0.6599 -0.0999
 8605TIP3    H247307   2.384   0.071   1.488  0.7496 -1.0032  1.0252
 8606TIP3   OH247308   5.623   0.588  14.117  0.3022 -0.2032  0.0016
 8606TIP3    H147309   5.693   0.541  14.161  0.4249  1.0479  1.2154
 8606TIP3    H247310   5.641   0.681  14.134 -1.4336  0.1745  0.0430
 8607TIP3   OH247311   1.403   6.767  13.670 -0.3821  0.1507 -0.0476
 8607TIP3    H147312   1.466   6.837  13.689  1.3879 -1.0819 -1.0142
 8607TIP3    H247313   1.347   6.762  13.747  0.3445  1.6802  0.6109
 8608TIP3   OH247314   2.096   4.821   4.635  0.2866  0.0573 -0.2389
 8608TIP3    H147315   2.045   4.822   4.717 -0.1527 -0.9915 -0.4898
 8608TIP3    H247316   2.059   4.893   4.584  0.9758  1.1310  0.7069
 8609TIP3   OH247317   0.660   1.510   5.337  0.1171  0.6279  0.0678
 8609TIP3    H147318   0.629   1.447   5.271 -2.9770  2.0565 -0.0030
 8609TIP3    H247319   0.754   1.516   5.321  0.2274 -2.5016 -1.1591
 8610TIP3   OH247320   5.211   2.412  13.590 -0.8708 -0.0082 -0.6428
 8610TIP3    H147321   5.156   2.464  13.531 -2.2885 -1.1915 -0.4292
 8610TIP3    H247322   5.211   2.325  13.550  1.6240  0.1345 -1.1072
 8611TIP3   OH247323   3.899   4.397   3.750  0.5273  0.1938 -0.6993
 8611TIP3    H147324   3.931   4.486   3.742  0.2832  0.6070  2.1338
 8611TIP3    H247325   3.977   4.344   3.766  0.5530  0.0628 -1.2449
 8612TIP3   OH247326   5.212   2.817  14.355  0.8451 -0.2361 -0.4762
 8612TIP3    H147327   5.220   2.723  14.372 -2.0395 -0.3344  0.7932
 8612TIP3    H247328   5.167   2.823  14.271  1.4160  0.0379 -0.7690
 8613TIP3   OH247329   1.649   6.196  17.077  0.8354 -0.3665  0.2618
 8613TIP3    H147330   1.718   6.219  17.139  2.0135 -1.5255 -0.5602
 8613TIP3    H247331   1.651   6.100  17.074 -1.0098 -0.4480  0.4032
 8614TIP3   OH247332   6.336   4.028  12.903 -0.3028  0.0965  0.1734
 8614TIP3    H147333   6.247   4.061  12.888 -1.1460 -1.4898  1.4255
 8614TIP3    H247334   6.366   4.075  12.981  0.2968  1.2064 -0.6982
 8615TIP3   OH247335   3.470   2.189  12.591 -0.2627  0.6863  0.1077
 8615TIP3    H147336   3.529   2.161  12.522  0.9270  1.1170  0.9174
 8615TIP3    H247337   3.520   2.253  12.641 -1.8413  1.9875  0.1105
 8616TIP3   OH247338   1.842   6.475   0.217  0.7320  0.2965 -0.2846
 8616TIP3    H147339   1.787   6.397   0.214  1.8005 -0.4900 -0.2700
 8616TIP3    H247340   1.789   6.541   0.262 -0.6382 -0.0417 -1.3483
 8617TIP3   OH247341   2.839   5.815  15.027  0.0034 -0.2180  0.1360
 8617TIP3    H147342   2.768   5.862  14.984 -0.6858 -1.0369  0.3602
 8617TIP3    H247343   2.819   5.822  15.120  1.3554  1.3343  0.3731
 8618TIP3   OH247344   6.118   3.813  16.983  0.7632  0.2129  0.1565
 8618TIP3    H147345   6.056   3.877  17.017 -0.4060 -1.0677  0.5467
 8618TIP3    H247346   6.074   3.729  16.996  1.2170 -0.5145 -2.4302
 8619TIP3   OH247347   6.419   1.396  14.131  0.0905 -0.2283  0.2524
 8619TIP3    H147348   6.377   1.326  14.182  1.6503 -0.9438  0.6046
 8619TIP3    H247349   6.502   1.358  14.103 -0.1463  0.6183 -1.7284
 8620TIP3   OH247350   2.041   3.063   5.505  0.9640  0.2318  0.1159
 8620TIP3    H147351   1.996   3.142   5.537  0.3576  0.0230 -0.2096
 8620TIP3    H247352   2.047   3.006   5.582  0.2099  0.0521  0.0458
 8621TIP3   OH247353   2.969   3.629  16.974 -0.2228  0.6632 -0.4124
 8621TIP3    H147354   2.924   3.546  16.993 -3.0107  1.8455 -1.3679
 8621TIP3    H247355   2.927   3.693  17.032  3.3859  1.1747  1.9570
 8622TIP3   OH247356   6.461   5.527   5.410  0.5615 -0.4719  0.1991
 8622TIP3    H147357   6.376   5.569   5.399  1.3743  1.6791  1.5323
 8622TIP3    H247358   6.523   5.585   5.366  1.7728  0.0378  2.4054
 8623TIP3   OH247359   2.060   5.105   4.503  0.6913 -0.0740 -0.0481
 8623TIP3    H147360   2.144   5.061   4.513  0.7597  0.0366 -0.1344
 8623TIP3    H247361   2.046   5.150   4.587  2.8906  3.7022 -1.4236
 8624TIP3   OH247362   5.861   6.618   4.861 -0.0667  0.1252 -0.1010
 8624TIP3    H147363   5.934   6.560   4.839 -1.0190 -0.7768 -1.0295
 8624TIP3    H247364   5.881   6.650   4.949  0.5148 -1.6055  0.4379
 8625TIP3   OH247365   6.459   5.308  14.065  0.1728  0.7116 -0.8184
 8625TIP3    H147366   6.477   5.358  14.145  0.3096  0.0802 -0.4523
 8625TIP3    H247367   6.545   5.285  14.031  0.2035 -2.4857  1.0478
 8626TIP3   OH247368   2.137   3.712   5.437 -0.0838  0.0213  0.3966
 8626TIP3    H147369   2.201   3.709   5.367 -0.9600 -0.3742 -0.4173
 8626TIP3    H247370   2.126   3.621   5.464  0.7191  0.2277  1.5216
 8627TIP3   OH247371   6.708   3.644  15.389  0.3220 -0.1177 -0.0175
 8627TIP3    H147372   6.724   3.659  15.296 -1.5797 -1.5762 -0.6497
 8627TIP3    H247373   6.769   3.574  15.413  2.0633  1.4591  0.3374
 8628TIP3   OH247374   2.869   1.994  17.087  0.2384  0.1584 -0.0063
 8628TIP3    H147375   2.845   1.946  17.167  0.6945  0.6642  0.4404
 8628TIP3    H247376   2.950   1.952  17.058 -0.7041 -1.0237 -1.0691
 8629TIP3   OH247377   4.974   0.069   5.064 -0.0502 -0.1155 -0.2055
 8629TIP3    H147378   5.047   0.087   5.005  0.6130 -2.1204 -0.1012
 8629TIP3    H247379   4.896   0.091   5.014  0.5412 -0.6887 -1.4337
 8630TIP3   OH247380   6.059   3.448   3.376 -0.5363 -0.1983 -0.7162
 8630TIP3    H147381   6.135   3.457   3.432 -0.4733 -1.3456 -0.5928
 8630TIP3    H247382   6.061   3.357   3.347 -1.8268 -0.2446 -0.7413
 8631TIP3   OH247383   5.600   1.952   2.374  0.3965 -0.0852  0.1498
 8631TIP3    H147384   5.513   1.992   2.366  0.6131  0.2458 -0.6075
 8631TIP3    H247385   5.658   2.026   2.393  0.5009 -0.3214  0.7804
 8632TIP3   OH247386   6.005   5.460   6.229  0.3387  0.1985 -0.1468
 8632TIP3    H147387   6.022   5.544   6.273  0.4567 -1.0681  2.3837
 8632TIP3    H247388   5.913   5.442   6.246  0.7165 -0.9498  0.7956
 8633TIP3   OH247389   2.848   6.735   2.694 -0.2748  0.5364 -0.2567
 8633TIP3    H147390   2.905   6.806   2.724  0.7249 -0.2388 -0.3079
 8633TIP3    H247391   2.759   6.772   2.700  0.0360  1.0844  1.7559
 8634TIP3   OH247392   0.803   4.212   5.643  0.2100 -0.2684  0.9767
 8634TIP3    H147393   0.772   4.231   5.554 -0.3419 -1.1146  0.9785
 8634TIP3    H247394   0.878   4.272   5.655  0.9226 -0.8228 -0.4175
 8635TIP3   OH247395   4.454   2.837   2.865 -0.0652 -0.1267 -0.3159
 8635TIP3    H147396   4.397   2.792   2.803 -0.7010  1.6644 -1.0995
 8635TIP3    H247397   4.524   2.875   2.810  2.2023 -2.6083  0.6528
 8636TIP3   OH247398   4.756   2.115  11.968 -0.2544 -0.4077  0.0134
 8636TIP3    H147399   4.834   2.067  11.940 -1.3163 -1.7658 -0.7262
 8636TIP3    H247400   4.769   2.131  12.061  1.3848  0.3473 -0.3182
 8637TIP3   OH247401   6.581   2.379  15.944  0.2431 -0.8831  0.0621
 8637TIP3    H147402   6.666   2.368  15.902 -0.2796 -0.5932 -1.1146
 8637TIP3    H247403   6.601   2.422  16.028  1.1514  0.4394 -0.7853
 8638TIP3   OH247404   0.931   5.206  12.046  0.2418 -0.5507  0.3204
 8638TIP3    H147405   0.857   5.263  12.064 -0.0130 -0.5156 -0.7448
 8638TIP3    H247406   0.897   5.117  12.055  0.1174 -0.5334  0.0279
 8639TIP3   OH247407   6.681   6.631  15.180  0.5183 -0.0630  0.7753
 8639TIP3    H147408   6.665   6.538  15.167  0.1582  0.0501  0.4033
 8639TIP3    H247409   6.598   6.673  15.160  0.9070  0.4169  0.1313
 8640TIP3   OH247410   5.847   1.386   0.164 -0.0273 -0.3011 -0.2344
 8640TIP3    H147411   5.928   1.367   0.116 -0.1936 -2.4320  0.2060
 8640TIP3    H247412   5.876   1.436   0.240  1.0469 -1.7006  0.3350
 8641TIP3   OH247413   0.382   4.898   4.018  0.6455  0.0138 -0.1334
 8641TIP3    H147414   0.292   4.920   4.045  1.4900  1.9408  1.3869
 8641TIP3    H247415   0.378   4.897   3.922 -1.0744 -0.2958 -0.1011
 8642TIP3   OH247416   2.677   6.253   2.284  0.0623  0.1368 -1.1787
 8642TIP3    H147417   2.710   6.204   2.360  1.6083 -0.4861 -2.2049
 8642TIP3    H247418   2.615   6.315   2.322 -1.1461 -1.8568  0.2897
 8643TIP3   OH247419   2.931   5.642  17.249  0.4873 -0.2169  0.1799
 8643TIP3    H147420   2.878   5.592  17.187  1.2351  0.0799 -0.7182
 8643TIP3    H247421   2.892   5.729  17.248 -0.6963 -0.6785  1.6012
 8644TIP3   OH247422   6.102   6.625  16.573 -0.7588 -0.6667 -0.3046
 8644TIP3    H147423   6.165   6.577  16.519  1.7106 -0.9251  2.5367
 8644TIP3    H247424   6.062   6.688  16.514  1.4634 -1.1779 -2.4915
 8645TIP3   OH247425   0.840   6.259   0.860 -0.2365  0.3929 -0.6352
 8645TIP3    H147426   0.900   6.239   0.932  1.3376 -0.7967 -2.1849
 8645TIP3    H247427   0.814   6.350   0.876 -0.8694 -0.1557  2.0254
 8646TIP3   OH247428   1.526   5.484   4.037  0.4391 -0.5372 -0.3269
 8646TIP3    H147429   1.537   5.389   4.026  1.1526 -0.7197  1.5089
 8646TIP3    H247430   1.551   5.521   3.953  0.2179 -1.9714 -1.0618
 8647TIP3   OH247431   2.493   3.537   5.499  0.2282  0.4428 -0.2054
 8647TIP3    H147432   2.582   3.502   5.512  0.2384  0.2830 -0.6918
 8647TIP3    H247433   2.462   3.495   5.418 -0.5684 -0.0516  0.3462
 8648TIP3   OH247434   6.057   2.679  11.832  0.2242  0.1395 -0.0667
 8648TIP3    H147435   6.077   2.712  11.919 -0.2515 -0.5520  0.3238
 8648TIP3    H247436   6.074   2.752  11.773  2.2671  0.1011  0.3928
 8649TIP3   OH247437   2.310   5.806  16.258  0.2568  0.2371 -0.4872
 8649TIP3    H147438   2.258   5.860  16.199 -2.3065  0.0942  1.4778
 8649TIP3    H247439   2.274   5.718  16.249  0.5984 -0.0121  0.4346
 8650TIP3   OH247440   0.799   0.766  16.820  0.1053  0.3137  0.1404
 8650TIP3    H147441   0.708   0.777  16.795 -0.1176 -0.8707  0.3796
 8650TIP3    H247442   0.824   0.850  16.858 -0.8452  0.6914 -0.0494
 8651TIP3   OH247443   5.344   2.851   2.657 -0.0296  0.4880 -0.3028
 8651TIP3    H147444   5.291   2.777   2.687 -0.3271  0.2789 -1.2929
 8651TIP3    H247445   5.422   2.811   2.618  0.9960  0.7997  1.3399
 8652TIP3   OH247446   1.867   4.210  16.457  1.0551 -0.1864  0.1137
 8652TIP3    H147447   1.890   4.154  16.531 -0.0564 -1.1993 -0.2709
 8652TIP3    H247448   1.774   4.192  16.442  1.4004 -0.4662 -1.9073
 8653TIP3   OH247449   2.957   3.963  14.834  0.1803  0.4220  0.1000
 8653TIP3    H147450   2.928   3.874  14.852 -0.7810  0.8460  0.7177
 8653TIP3    H247451   3.050   3.954  14.813  0.5811 -0.5248  2.0732
 8654TIP3   OH247452   5.744   1.908  14.423 -0.6204 -0.1379  0.1084
 8654TIP3    H147453   5.680   1.936  14.358 -1.9384  0.7118  1.6938
 8654TIP3    H247454   5.822   1.886  14.372 -1.7087  0.1210 -1.7653
 8655TIP3   OH247455   6.319   3.999   2.829 -0.0555  0.5280 -0.6356
 8655TIP3    H147456   6.381   3.962   2.767 -0.4570  0.4245 -0.9765
 8655TIP3    H247457   6.287   3.924   2.879  0.7468  0.6859  0.1441
 8656TIP3   OH247458   1.217   3.982   2.879  0.0857  0.0173 -0.0240
 8656TIP3    H147459   1.255   3.907   2.834  0.8789  1.0267 -1.1054
 8656TIP3    H247460   1.285   4.010   2.940  0.1185  0.3563 -0.2149
 8657TIP3   OH247461   2.090   3.583  11.781  0.4574  0.3520 -0.3220
 8657TIP3    H147462   2.113   3.519  11.714 -0.7225  0.0896 -0.4988
 8657TIP3    H247463   2.172   3.601  11.827  1.4876  1.1820 -2.3572
 8658TIP3   OH247464   0.737   2.454   3.322  0.2922 -0.4438 -0.2862
 8658TIP3    H147465   0.693   2.404   3.391  0.8058 -1.7266 -0.8620
 8658TIP3    H247466   0.767   2.388   3.260 -2.3692  0.7692 -3.1269
 8659TIP3   OH247467   1.512   1.213  11.819  0.0026 -0.0472 -0.0881
 8659TIP3    H147468   1.454   1.158  11.873  0.6787  0.0593  0.7598
 8659TIP3    H247469   1.475   1.206  11.731 -0.0899 -1.6529  0.0462
 8660TIP3   OH247470   2.424   5.604  13.641 -0.5622 -0.0684 -0.7622
 8660TIP3    H147471   2.412   5.538  13.572 -0.0180 -0.6674 -0.2986
 8660TIP3    H247472   2.483   5.562  13.703  1.1717  1.4881 -1.2949
 8661TIP3   OH247473   0.539   1.760  12.050  0.1976 -0.3721 -0.2809
 8661TIP3    H147474   0.471   1.781  11.986 -0.2639 -2.6219 -0.6116
 8661TIP3    H247475   0.564   1.670  12.029  1.7717 -0.3204  1.2002
 8662TIP3   OH247476   6.336   4.745   0.206  0.3962 -1.0420 -0.6959
 8662TIP3    H147477   6.425   4.759   0.240  0.0256  1.7920 -0.6219
 8662TIP3    H247478   6.306   4.666   0.250  1.2520  0.4450  3.0003
 8663TIP3   OH247479   3.297   3.299  13.659  0.4418 -0.1075 -0.0641
 8663TIP3    H147480   3.332   3.304  13.570  1.7300  0.4783  0.4542
 8663TIP3    H247481   3.211   3.341  13.653  0.3498 -0.4081 -1.1007
 8664TIP3   OH247482   4.033   5.823  13.897 -0.5782 -0.1719  0.2810
 8664TIP3    H147483   3.980   5.846  13.821  0.1280 -2.0685 -0.8668
 8664TIP3    H247484   4.088   5.900  13.912 -0.5673  0.1680 -1.3065
 8665TIP3   OH247485   0.069   3.107   0.770 -0.0367 -0.6896  0.2273
 8665TIP3    H147486   0.147   3.156   0.795  0.2153 -0.5525 -0.7967
 8665TIP3    H247487   0.013   3.110   0.848  0.4169  0.3351  0.5302
 8666TIP3   OH247488   5.711   1.330  15.909 -0.5252  0.0440 -0.2549
 8666TIP3    H147489   5.804   1.343  15.927 -0.8367  0.6636  1.0119
 8666TIP3    H247490   5.693   1.389  15.835 -0.4951  2.1164  1.2988
 8667TIP3   OH247491   1.931   4.984   1.470 -0.0006  0.0177  0.3627
 8667TIP3    H147492   1.915   4.978   1.376 -0.0229 -0.9814  0.4172
 8667TIP3    H247493   2.007   4.929   1.486  0.3651  0.6472  0.8529
 8668TIP3   OH247494   6.574   5.654   2.990 -0.4055 -0.3124 -0.2210
 8668TIP3    H147495   6.612   5.720   2.932  0.3150  0.1182  0.7199
 8668TIP3    H247496   6.479   5.668   2.983 -0.2662  0.8273 -0.0413
 8669TIP3   OH247497   5.433   0.152   1.345  0.0997  0.4661 -0.2246
 8669TIP3    H147498   5.358   0.206   1.370 -1.3074 -1.8762  1.0424
 8669TIP3    H247499   5.405   0.108   1.265  0.5986  0.4314 -0.3842
 8670TIP3   OH247500   4.273   0.222  12.101  0.0679  0.3617 -0.4189
 8670TIP3    H147501   4.296   0.130  12.108  2.6795  0.8310 -1.5664
 8670TIP3    H247502   4.313   0.262  12.179  0.2629  0.7371 -0.7103
 8671TIP3   OH247503   0.326   5.418   0.384 -0.4618 -0.0890  0.2525
 8671TIP3    H147504   0.325   5.466   0.301  1.4584 -0.4654 -0.0458
 8671TIP3    H247505   0.340   5.327   0.358 -0.8363 -0.3538  0.9545
 8672TIP3   OH247506   2.734   5.445  12.250 -0.1687 -0.4983  0.0745
 8672TIP3    H147507   2.648   5.405  12.264 -0.7875  0.9379  0.4958
 8672TIP3    H247508   2.763   5.469  12.338  0.5212 -0.6522 -0.1070
 8673TIP3   OH247509   4.208   5.110   0.654  0.0138 -0.7561 -0.5662
 8673TIP3    H147510   4.302   5.110   0.639  0.5800  0.5845  2.3416
 8673TIP3    H247511   4.193   5.036   0.713 -0.8275 -1.1555 -1.2591
 8674TIP3   OH247512   2.458   5.774   6.260 -0.5138  0.2014 -0.4228
 8674TIP3    H147513   2.543   5.775   6.306 -0.5977  0.2687 -0.2674
 8674TIP3    H247514   2.409   5.704   6.303 -1.1891  1.3269  0.6862
 8675TIP3   OH247515   1.865   5.975   2.518 -0.1161 -0.2887 -0.1721
 8675TIP3    H147516   1.866   5.985   2.613 -0.2825 -1.0546 -0.0867
 8675TIP3    H247517   1.845   5.882   2.503 -3.3969  0.4208 -0.9949
 8676TIP3   OH247518   0.272   3.508   2.577 -0.5523 -0.3067 -0.0843
 8676TIP3    H147519   0.183   3.535   2.601 -0.9266  0.2241 -1.8908
 8676TIP3    H247520   0.263   3.414   2.558 -0.7829 -0.2105 -0.4653
 8677TIP3   OH247521   4.330   4.476   4.367 -0.4053  0.3231  0.3611
 8677TIP3    H147522   4.399   4.471   4.301 -0.5524 -0.8602  0.2644
 8677TIP3    H247523   4.261   4.529   4.327 -0.4625 -0.3213 -0.4189
 8678TIP3   OH247524   3.358   5.160  15.845 -0.3052 -0.5578 -0.1157
 8678TIP3    H147525   3.262   5.169  15.844 -0.1170  2.4375 -1.0029
 8678TIP3    H247526   3.387   5.214  15.771  2.1258 -0.6770  0.6841
 8679TIP3   OH247527   4.446   5.680  16.920  0.6229  0.3180 -0.0917
 8679TIP3    H147528   4.540   5.686  16.902  0.8448 -2.7214 -0.4401
 8679TIP3    H247529   4.440   5.641  17.008 -0.3269  0.2736 -0.1593
 8680TIP3   OH247530   3.137   5.362   4.598 -0.4210 -0.2884 -0.8333
 8680TIP3    H147531   3.080   5.287   4.583 -3.5541  1.5564  0.7258
 8680TIP3    H247532   3.128   5.381   4.692  1.2285  1.2672 -0.9362
 8681TIP3   OH247533   6.126   4.823  13.469 -0.0877  0.4151  0.2243
 8681TIP3    H147534   6.119   4.805  13.376 -0.6330  1.9856 -0.0645
 8681TIP3    H247535   6.163   4.911  13.474 -1.5513  1.0045  1.4548
 8682TIP3   OH247536   4.349   5.923  16.814  0.3856 -0.0279  0.1125
 8682TIP3    H147537   4.361   5.849  16.873 -0.1364 -0.0619  0.1826
 8682TIP3    H247538   4.435   5.964  16.809  0.5219 -0.2464  0.6016
 8683TIP3   OH247539   0.346   2.677   6.150  0.8959  0.0567 -0.3322
 8683TIP3    H147540   0.312   2.751   6.200  0.9664  0.4918 -0.9133
 8683TIP3    H247541   0.374   2.615   6.216 -0.1415  0.0914  0.1626
 8684TIP3   OH247542   4.061   5.944  11.471  0.6958 -0.4111  0.3444
 8684TIP3    H147543   4.111   5.864  11.459  0.8020 -0.1078 -1.6181
 8684TIP3    H247544   4.081   5.997  11.394 -0.3449  0.9757  0.9700
 8685TIP3   OH247545   4.447   6.211   4.720 -0.1339 -0.2466  0.1340
 8685TIP3    H147546   4.397   6.167   4.652 -1.7443 -0.6581  1.5229
 8685TIP3    H247547   4.479   6.141   4.777 -0.5856  0.1996  0.9569
 8686TIP3   OH247548   5.263   0.199  16.052  0.1128  0.5029 -0.6891
 8686TIP3    H147549   5.234   0.202  16.143  0.5864  0.7194 -0.5421
 8686TIP3    H247550   5.192   0.154  16.006  0.1689 -0.2267 -0.0947
 8687TIP3   OH247551   2.988   2.267  17.190  0.5801 -0.6960  0.3652
 8687TIP3    H147552   2.956   2.179  17.210 -0.8383 -0.5461 -1.0716
 8687TIP3    H247553   3.081   2.255  17.172 -0.0885 -2.4080 -2.4952
 8688TIP3   OH247554   3.318   2.948  14.043  0.2683  0.4007  0.2280
 8688TIP3    H147555   3.277   3.012  13.985 -0.2723  0.8841  1.1228
 8688TIP3    H247556   3.245   2.893  14.073  0.5679  0.0481  0.3231
 8689TIP3   OH247557   3.700   2.600  10.996 -0.4167 -0.3427 -0.1223
 8689TIP3    H147558   3.629   2.662  10.978  0.1741  0.5819  0.6243
 8689TIP3    H247559   3.658   2.514  10.994 -0.9830 -0.0994 -2.7221
 8690TIP3   OH247560   2.320   3.896   6.577 -0.7101 -0.2236  0.1681
 8690TIP3    H147561   2.307   3.850   6.660  0.5956  0.0196  0.5304
 8690TIP3    H247562   2.413   3.916   6.575 -0.9138  0.7367 -0.8709
 8691TIP3   OH247563   0.238   6.257   2.150 -0.2667 -0.0536  0.5182
 8691TIP3    H147564   0.185   6.333   2.175 -0.1770  0.1923 -0.0437
 8691TIP3    H247565   0.264   6.273   2.060  1.1758  0.0559  0.9327
 8692TIP3   OH247566   6.044   0.233  16.420  0.2317  0.4082  0.5146
 8692TIP3    H147567   6.033   0.297  16.490 -2.5633  1.8509 -1.0484
 8692TIP3    H247568   5.980   0.165  16.439 -0.3913  0.6968 -0.4456
 8693TIP3   OH247569   3.680   6.027   5.974 -0.2326 -0.0172  0.3012
 8693TIP3    H147570   3.653   5.997   6.061  0.0771  0.3364  0.5215
 8693TIP3    H247571   3.658   6.119   5.972 -2.2604 -0.4806 -0.8132
 8694TIP3   OH247572   4.902   2.952  16.518 -0.7037 -0.2018  0.0334
 8694TIP3    H147573   4.873   3.008  16.447 -1.1548 -1.4533 -0.8131
 8694TIP3    H247574   4.928   3.012  16.588 -1.8294  1.0272 -0.5633
 8695TIP3   OH247575   4.092   4.633   5.408 -0.1355 -0.2677 -0.0903
 8695TIP3    H147576   4.143   4.656   5.330 -1.7218 -1.3047 -1.5309
 8695TIP3    H247577   4.149   4.575   5.458  0.3369 -0.9845 -1.3879
 8696TIP3   OH247578   0.961   3.193  17.409 -0.3717  0.5556  0.0023
 8696TIP3    H147579   0.966   3.228  17.498  1.3220 -0.7677  0.4889
 8696TIP3    H247580   1.031   3.128  17.405 -0.7382  0.2169 -2.1543
 8697TIP3   OH247581   2.109   0.738  12.248 -0.2668 -0.3062  0.1957
 8697TIP3    H147582   2.066   0.823  12.249  0.2236 -0.0042 -1.4273
 8697TIP3    H247583   2.202   0.758  12.240 -0.2494 -0.9803 -1.6338
 8698TIP3   OH247584   0.357   5.858   5.124 -0.0965 -0.5969  0.4284
 8698TIP3    H147585   0.435   5.804   5.140 -0.0636 -0.8173 -0.4562
 8698TIP3    H247586   0.373   5.898   5.039 -1.1875 -1.0781 -0.0124
 8699TIP3   OH247587   2.588   2.478  13.677  0.0989  0.2933  0.2030
 8699TIP3    H147588   2.510   2.438  13.714  0.4255  0.0144  0.5950
 8699TIP3    H247589   2.562   2.502  13.588 -0.3193 -0.1349  0.2033
 8700TIP3   OH247590   5.388   0.883  12.994  0.3534 -0.2758 -0.2746
 8700TIP3    H147591   5.327   0.846  13.056  0.5381 -1.4240 -0.7480
 8700TIP3    H247592   5.413   0.967  13.031 -2.1400  0.6236 -0.4789
 8701TIP3   OH247593   2.831   4.903  17.040  0.1551 -0.0323 -0.2610
 8701TIP3    H147594   2.829   4.866  17.128  0.3457  0.0988 -0.2018
 8701TIP3    H247595   2.922   4.894  17.012  0.2196  0.4558 -0.2156
 8702TIP3   OH247596   5.840   4.952   3.797  0.0674 -0.3230  0.8459
 8702TIP3    H147597   5.862   4.996   3.879  0.9643 -2.0247  1.5783
 8702TIP3    H247598   5.896   4.994   3.732 -1.0464  1.4249  0.9375
 8703TIP3   OH247599   2.636   3.301   4.981 -1.0339 -0.0604  0.6210
 8703TIP3    H147600   2.709   3.352   5.017 -0.1846 -0.0925 -0.9622
 8703TIP3    H247601   2.677   3.238   4.922 -2.3857  0.8906 -1.4669
 8704TIP3   OH247602   2.994   2.272  11.839 -0.4256 -0.3305 -0.3527
 8704TIP3    H147603   2.902   2.291  11.859 -0.5384 -1.4544  0.3252
 8704TIP3    H247604   3.022   2.342  11.781 -1.4652  0.5105  0.1399
 8705TIP3   OH247605   6.652   0.796   3.747 -0.0501  0.2858 -0.6702
 8705TIP3    H147606   6.640   0.702   3.761 -1.9495  0.3078 -1.7895
 8705TIP3    H247607   6.691   0.828   3.828  0.8277 -1.4871 -0.3501
 8706TIP3   OH247608   4.516   2.884  17.458  0.5483 -0.4787  0.5718
 8706TIP3    H147609   4.456   2.860  17.529  0.6323 -0.2567  0.7183
 8706TIP3    H247610   4.496   2.975  17.440  1.7146 -0.0185  1.4864
 8707TIP3   OH247611   4.740   2.736   0.061 -0.1796  0.1882 -0.1109
 8707TIP3    H147612   4.794   2.746   0.139  2.1591 -1.8174 -1.3209
 8707TIP3    H247613   4.684   2.661   0.079  0.2873 -0.2098 -0.2869
 8708TIP3   OH247614   6.025   4.908  15.102  0.4609 -0.6105  0.3040
 8708TIP3    H147615   6.001   5.000  15.090  0.8111 -0.6391 -0.6524
 8708TIP3    H247616   6.057   4.880  15.017  2.4062 -1.0083  1.0913
 8709TIP3   OH247617   4.689   2.108  13.217  0.5588 -0.5318 -0.5817
 8709TIP3    H147618   4.602   2.093  13.253  1.4205 -1.4338  1.2532
 8709TIP3    H247619   4.731   2.022  13.220  2.0398  0.1787  0.0678
 8710TIP3   OH247620   3.700   5.283  16.795  0.0337 -0.2534 -0.1935
 8710TIP3    H147621   3.766   5.256  16.859  0.1551  1.3497  0.4045
 8710TIP3    H247622   3.718   5.376  16.780 -2.1617  0.2505  0.0546
 8711TIP3   OH247623   3.015   5.661  12.558 -0.6482  0.1065  0.7977
 8711TIP3    H147624   3.028   5.689  12.649 -0.7928  0.2761  0.7666
 8711TIP3    H247625   3.083   5.707  12.509 -1.7472  1.5170  0.5358
 8712TIP3   OH247626   0.281   4.832  17.153 -0.1758 -0.1581 -0.6284
 8712TIP3    H147627   0.362   4.781  17.155 -0.6065 -0.9287 -1.7990
 8712TIP3    H247628   0.224   4.790  17.217 -0.2537 -0.6794 -1.0357
 8713TIP3   OH247629   0.669   5.029  14.095 -0.5763 -0.8679  0.3775
 8713TIP3    H147630   0.637   5.119  14.084 -0.5266 -1.0437 -1.7192
 8713TIP3    H247631   0.600   4.974  14.057  0.6772 -1.4801 -1.1043
 8714TIP3   OH247632   6.730   1.812  12.738  0.5038  0.8307 -0.3526
 8714TIP3    H147633   6.639   1.841  12.744 -0.0173 -1.0083  2.3101
 8714TIP3    H247634   6.727   1.735  12.681  0.0678 -0.1795  0.9930
 8715TIP3   OH247635   1.244   3.030  16.202 -0.5976 -0.4181 -0.6443
 8715TIP3    H147636   1.201   3.010  16.285  0.1626  1.7895  0.3387
 8715TIP3    H247637   1.190   3.098  16.162  0.8790  1.0092 -0.2961
 8716TIP3   OH247638   3.727   6.314  17.442  0.3929  0.0825  0.2033
 8716TIP3    H147639   3.640   6.340  17.413  0.1440  2.3357  2.6111
 8716TIP3    H247640   3.730   6.220  17.429 -2.1286  0.0401 -0.5803
 8717TIP3   OH247641   0.046   6.741   5.636 -1.0362 -0.3584 -0.0258
 8717TIP3    H147642   0.122   6.799   5.623  0.1405 -1.7126  0.5842
 8717TIP3    H247643   0.072   6.684   5.708 -3.0799 -0.1718  0.9245
 8718TIP3   OH247644   2.603   5.689  12.757 -0.5709  0.0501  0.1667
 8718TIP3    H147645   2.514   5.721  12.745 -0.2130  0.7269 -0.9069
 8718TIP3    H247646   2.596   5.594  12.750 -1.0730  0.1597 -1.0481
 8719TIP3   OH247647   2.681   4.605  15.705  0.1117  0.0665  0.1552
 8719TIP3    H147648   2.667   4.511  15.708 -1.0181  0.2099 -0.2837
 8719TIP3    H247649   2.643   4.633  15.622 -0.4990  1.0507  0.7337
 8720TIP3   OH247650   6.370   4.617  12.500 -0.6892  0.0786  0.0704
 8720TIP3    H147651   6.399   4.604  12.590 -1.8321 -1.7594  0.2264
 8720TIP3    H247652   6.403   4.541  12.452 -0.4094  0.8447 -1.0045
 8721TIP3   OH247653   1.104   3.431  16.789 -0.6527  0.4836 -0.3575
 8721TIP3    H147654   1.078   3.518  16.821  0.9592  1.0133 -0.3917
 8721TIP3    H247655   1.024   3.379  16.793 -1.0385  1.1277  2.5329
 8722TIP3   OH247656   5.170   4.322  13.634 -0.1834 -0.4067  0.2830
 8722TIP3    H147657   5.236   4.313  13.566  0.1258 -0.6321  0.6091
 8722TIP3    H247658   5.117   4.398  13.607  0.4532  0.0237  0.2251
 8723TIP3   OH247659   2.929   3.064   0.714 -0.3212 -0.2798 -0.5434
 8723TIP3    H147660   2.977   3.059   0.797  0.8940 -1.3210 -1.2788
 8723TIP3    H247661   2.939   2.977   0.675 -1.6233 -0.0849 -1.3956
 8724TIP3   OH247662   6.379   1.735  16.615 -0.2854 -0.8903  0.2657
 8724TIP3    H147663   6.287   1.710  16.613 -1.2049  2.2031 -0.3654
 8724TIP3    H247664   6.408   1.727  16.524 -0.6034  0.2961  0.0484
 8725TIP3   OH247665   4.269   3.700  12.328 -0.1730  0.6883 -0.0471
 8725TIP3    H147666   4.259   3.627  12.389 -0.2860 -0.0651 -0.9584
 8725TIP3    H247667   4.350   3.743  12.357 -0.1106  0.2227  0.5068
 8726TIP3   OH247668   4.040   4.355  15.561 -0.0291  0.0650  0.0514
 8726TIP3    H147669   4.113   4.394  15.610 -0.1258 -0.2237  0.4238
 8726TIP3    H247670   4.082   4.296  15.498  0.0640  0.0006  0.1747
 8727TIP3   OH247671   3.110   6.372   1.191  0.5258  0.3890 -0.2194
 8727TIP3    H147672   3.039   6.411   1.242  1.2821  1.4620  0.0461
 8727TIP3    H247673   3.155   6.446   1.151  0.4580 -0.3851 -1.8056
 8728TIP3   OH247674   4.253   3.436  12.151  0.4243  0.0247 -0.0659
 8728TIP3    H147675   4.329   3.435  12.209  0.6200 -1.5998 -0.3014
 8728TIP3    H247676   4.251   3.525  12.115  1.1448  0.6277  1.3046
 8729TIP3   OH247677   2.344   0.136   4.108  0.1695 -0.3347  0.4921
 8729TIP3    H147678   2.280   0.206   4.122  0.3613 -0.3234  1.3605
 8729TIP3    H247679   2.374   0.148   4.018  0.1979  0.6941  0.6370
 8730TIP3   OH247680   4.374   4.979   1.736 -0.6382  0.5485 -0.0791
 8730TIP3    H147681   4.389   5.067   1.703 -0.7405  0.1511 -1.2266
 8730TIP3    H247682   4.310   4.990   1.806 -0.8422  1.3521 -0.3866
 8731TIP3   OH247683   3.969   2.158   6.817 -0.1029  0.1509  0.6242
 8731TIP3    H147684   4.019   2.225   6.864  0.5624  0.2400 -0.1782
 8731TIP3    H247685   3.884   2.155   6.861  0.0036  1.2311  0.9252
 8732TIP3   OH247686   1.968   6.575  11.085 -0.3369 -0.2587  0.8026
 8732TIP3    H147687   1.975   6.665  11.055 -0.3548 -0.2142  0.9305
 8732TIP3    H247688   1.993   6.522  11.009 -1.0416 -0.1684  0.5028
 8733TIP3   OH247689   2.028   4.476   5.375  0.4980 -0.2636 -0.3652
 8733TIP3    H147690   2.027   4.385   5.405 -0.0335  0.3566  1.6385
 8733TIP3    H247691   2.097   4.518   5.426  0.8813  0.4474 -1.4121
 8734TIP3   OH247692   0.566   1.916   1.107  0.0664  0.4655  0.4600
 8734TIP3    H147693   0.527   1.974   1.173 -2.1639 -0.3795 -0.0448
 8734TIP3    H247694   0.495   1.899   1.045  1.2950 -1.0912 -0.5787
 8735TIP3   OH247695   4.482   4.716  12.464  0.1883  0.3578 -0.5277
 8735TIP3    H147696   4.416   4.744  12.400  0.6839  0.6893 -0.9106
 8735TIP3    H247697   4.481   4.785  12.531 -1.2440 -0.6464  0.5218
 8736TIP3   OH247698   2.653   0.170   2.731 -0.3908  0.0431  0.5377
 8736TIP3    H147699   2.595   0.172   2.807 -1.0785  1.8973  0.0389
 8736TIP3    H247700   2.638   0.255   2.688  0.4311 -0.6982 -1.3172
 8737TIP3   OH247701   4.836   3.304  16.608  0.0456  0.0510 -0.3224
 8737TIP3    H147702   4.854   3.388  16.649 -0.8663 -0.6444  1.6343
 8737TIP3    H247703   4.885   3.241  16.660 -1.5752 -0.9337  0.0950
 8738TIP3   OH247704   6.066   1.474   2.307  0.1855 -0.0069 -0.2433
 8738TIP3    H147705   6.043   1.433   2.224  2.8032  0.1560 -1.1247
 8738TIP3    H247706   6.016   1.425   2.373 -1.1349 -0.8135 -1.7770
 8739TIP3   OH247707   3.635   0.469  14.621 -0.2701  0.3438  0.4680
 8739TIP3    H147708   3.655   0.523  14.697 -0.0804  0.9298  0.0084
 8739TIP3    H247709   3.643   0.528  14.546  0.9371 -0.5274 -0.1394
 8740TIP3   OH247710   5.963   1.963  12.827  0.4182 -0.5808  0.1254
 8740TIP3    H147711   6.037   1.965  12.766 -0.3013  1.3236 -0.7628
 8740TIP3    H247712   5.896   1.912  12.782  0.4774 -0.6014  0.0605
 8741TIP3   OH247713   1.667   2.739   5.233 -0.2635  0.2654 -0.4251
 8741TIP3    H147714   1.607   2.782   5.173 -0.0605 -0.9687 -1.5423
 8741TIP3    H247715   1.622   2.660   5.261  0.3190 -0.0146 -0.2495
 8742TIP3   OH247716   1.532   4.446  14.683  0.4706 -0.1750 -0.5233
 8742TIP3    H147717   1.557   4.354  14.695  1.3814  0.2484  1.2340
 8742TIP3    H247718   1.506   4.453  14.591 -1.3758 -2.5943 -0.2835
 8743TIP3   OH247719   2.090   6.451  10.862 -0.1093  0.2569  0.1168
 8743TIP3    H147720   2.111   6.360  10.843  1.5551  0.6916 -0.2542
 8743TIP3    H247721   2.126   6.500  10.788 -3.5064  1.0162 -1.2194
 8744TIP3   OH247722   2.574   3.006  15.352  0.0132  0.6411 -0.2325
 8744TIP3    H147723   2.534   3.086  15.320  0.2225  1.6109  1.7488
 8744TIP3    H247724   2.500   2.951  15.377 -0.1234  0.8587 -0.1522
 8745TIP3   OH247725   3.015   1.812  14.320 -0.0934  0.1212 -0.4076
 8745TIP3    H147726   3.044   1.891  14.364 -1.1316  0.5206 -0.4161
 8745TIP3    H247727   2.929   1.793  14.357  0.4978 -1.5088  0.2402
 8746TIP3   OH247728   5.920   3.724   4.516 -0.8480 -0.0326  0.0010
 8746TIP3    H147729   5.975   3.652   4.549 -0.8872  0.0260  0.1953
 8746TIP3    H247730   5.915   3.708   4.422 -0.0634  0.2531 -0.0994
 8747TIP3   OH247731   2.741   2.567   1.975 -0.1118 -0.1550  0.0148
 8747TIP3    H147732   2.679   2.494   1.982  1.8881 -1.9336  0.3352
 8747TIP3    H247733   2.742   2.589   1.882 -0.2022 -1.0547 -0.2124
 8748TIP3   OH247734   0.284   5.590  11.960 -0.0586  0.6689 -0.1010
 8748TIP3    H147735   0.297   5.497  11.975 -0.3049  0.4411 -1.2434
 8748TIP3    H247736   0.344   5.612  11.888 -1.4996  0.9244 -1.2655
 8749TIP3   OH247737   2.652   3.104  16.503 -0.3036  0.1549 -0.0859
 8749TIP3    H147738   2.643   3.011  16.482  0.3104  0.2184 -0.6735
 8749TIP3    H247739   2.709   3.106  16.581 -1.0636  0.0026  0.4769
 8750TIP3   OH247740   2.694   4.205  12.045  0.4478  0.1616  0.1599
 8750TIP3    H147741   2.660   4.244  12.126 -2.7232  0.3897 -1.1311
 8750TIP3    H247742   2.661   4.263  11.976 -0.2391 -2.0797 -1.5002
 8751TIP3   OH247743   0.538   3.846  15.370  0.2839 -0.0968  0.1816
 8751TIP3    H147744   0.564   3.937  15.377 -0.2687 -0.0168  1.5453
 8751TIP3    H247745   0.456   3.840  15.419 -1.3749 -0.7038 -2.5024
 8752TIP3   OH247746   2.596   2.461   4.143  0.1462  0.5519 -0.6219
 8752TIP3    H147747   2.654   2.526   4.183  2.0381 -0.9932 -0.6985
 8752TIP3    H247748   2.530   2.442   4.210  1.5460  0.1386  0.6839
 8753TIP3   OH247749   0.214   3.720  16.690 -0.1022  0.1642 -0.6763
 8753TIP3    H147750   0.161   3.676  16.623 -1.9362  0.5230  0.4729
 8753TIP3    H247751   0.204   3.665  16.768  0.9342  0.4499 -0.3246
 8754TIP3   OH247752   2.168   1.294   3.129  0.0557 -0.2398 -0.3535
 8754TIP3    H147753   2.218   1.363   3.086 -0.8206  1.1417  0.7820
 8754TIP3    H247754   2.174   1.220   3.068  1.5836  0.5862 -1.2822
 8755TIP3   OH247755   5.737   2.605  16.539  0.4412  0.3609  0.8935
 8755TIP3    H147756   5.815   2.621  16.592 -0.2280  0.5303  1.8457
 8755TIP3    H247757   5.738   2.674  16.473  2.1156 -0.7534 -0.3284
 8756TIP3   OH247758   0.032   1.432   1.522 -0.1608 -0.2397  0.1583
 8756TIP3    H147759   0.025   1.458   1.614  4.0854  0.3494  0.4740
 8756TIP3    H247760   0.044   1.337   1.525  0.6467 -0.1387  0.2929
 8757TIP3   OH247761   0.481   1.007   0.479 -0.8723 -0.5976 -0.1851
 8757TIP3    H147762   0.537   0.999   0.557  0.0914 -0.3365 -0.8357
 8757TIP3    H247763   0.403   1.053   0.510 -0.5179 -0.5338  0.6351
 8758TIP3   OH247764   3.658   5.407   2.835 -0.4315  0.1355  0.3751
 8758TIP3    H147765   3.644   5.477   2.771  2.0432  2.0016  1.6768
 8758TIP3    H247766   3.649   5.326   2.785  0.3668  1.4936 -2.1251
 8759TIP3   OH247767   1.643   1.886   1.432 -0.2605  0.3674  0.0206
 8759TIP3    H147768   1.570   1.948   1.434  0.2793  0.9915  0.9335
 8759TIP3    H247769   1.602   1.801   1.449 -0.6152  0.9170  2.3939
 8760TIP3   OH247770   2.044   5.323   1.312  0.0098  0.1861  0.2277
 8760TIP3    H147771   2.090   5.250   1.354  1.3724  1.3073  0.7736
 8760TIP3    H247772   1.958   5.287   1.289  0.2492 -1.2740  1.4303
 8761TIP3   OH247773   4.250   6.076   0.117 -0.1431 -0.2371 -0.0462
 8761TIP3    H147774   4.331   6.095   0.069  0.5042  0.4372  1.2560
 8761TIP3    H247775   4.182   6.121   0.068  0.2111 -1.0588 -1.3265
 8762TIP3   OH247776   1.187   5.498  16.836  0.1109  0.6318 -0.1253
 8762TIP3    H147777   1.273   5.533  16.815 -0.9039  2.6201 -1.3153
 8762TIP3    H247778   1.174   5.521  16.928  0.2748  1.6688 -0.3480
 8763TIP3   OH247779   6.535   3.453  11.521  0.1617 -0.7815  0.0944
 8763TIP3    H147780   6.557   3.367  11.555  0.3456  0.0340  2.1832
 8763TIP3    H247781   6.443   3.465  11.544  0.6322  0.2984  1.5562
 8764TIP3   OH247782   0.580   2.768  13.328  0.2925 -0.9182 -0.2886
 8764TIP3    H147783   0.496   2.807  13.303 -0.2307 -1.4884  0.5198
 8764TIP3    H247784   0.627   2.757  13.246 -0.6847 -1.1711 -0.8291
 8765TIP3   OH247785   3.705   4.991  15.530  0.3178  0.0215  0.0689
 8765TIP3    H147786   3.706   4.990  15.625 -0.7626  0.6858  0.1052
 8765TIP3    H247787   3.786   4.947  15.504  0.8769  0.3009  1.2891
 8766TIP3   OH247788   5.817   2.185   2.147  0.1632  0.4876 -0.1790
 8766TIP3    H147789   5.738   2.238   2.162 -0.7944 -0.4260 -1.7315
 8766TIP3    H247790   5.838   2.199   2.055  1.0542 -0.3042 -0.1063
 8767TIP3   OH247791   4.270   6.507  13.395 -0.2846  0.1064 -0.7503
 8767TIP3    H147792   4.317   6.429  13.424  0.3421  0.2154 -1.4623
 8767TIP3    H247793   4.334   6.578  13.403 -1.2478  0.8261  1.2190
 8768TIP3   OH247794   6.141   5.007  17.111 -0.1393 -0.2509  0.3727
 8768TIP3    H147795   6.209   5.010  17.178  0.1784 -1.3241  0.1159
 8768TIP3    H247796   6.094   5.090  17.120  0.4350 -0.0266  1.3546
 8769TIP3   OH247797   3.286   0.542   2.241 -0.2746  0.6210 -0.4452
 8769TIP3    H147798   3.347   0.469   2.228 -0.7292  0.1795 -0.1607
 8769TIP3    H247799   3.212   0.503   2.288  0.0236  1.5141  0.8305
 8770TIP3   OH247800   5.812   0.866   4.958  0.5385  0.1843 -1.0214
 8770TIP3    H147801   5.757   0.926   4.908  1.2313  1.5045 -0.2823
 8770TIP3    H247802   5.751   0.810   5.005 -0.1718  1.2898 -0.5928
 8771TIP3   OH247803   2.263   5.189  13.196  0.2368 -0.2860  0.2748
 8771TIP3    H147804   2.208   5.160  13.269 -0.3349  1.6346  0.6514
 8771TIP3    H247805   2.213   5.258  13.154  1.7747  0.5906 -0.1924
 8772TIP3   OH247806   2.285   0.344  15.271  0.3550 -0.1330 -0.1628
 8772TIP3    H147807   2.380   0.334  15.272  0.3848  0.1545  0.7839
 8772TIP3    H247808   2.269   0.425  15.320 -0.2336  1.1825 -2.3566
 8773TIP3   OH247809   5.147   0.412   6.627 -0.1428 -0.2001 -0.1965
 8773TIP3    H147810   5.167   0.381   6.715  0.3374  0.0887 -0.1998
 8773TIP3    H247811   5.131   0.332   6.576  2.6097 -0.6250 -0.5883
 8774TIP3   OH247812   0.954   6.621   1.095  0.0011 -0.0367  0.2478
 8774TIP3    H147813   0.937   6.645   1.004 -0.7856  1.1431  0.6846
 8774TIP3    H247814   0.962   6.526   1.093  2.7080  0.1218 -1.4735
 8775TIP3   OH247815   0.881   3.407   6.183 -0.1799 -0.2481  0.3631
 8775TIP3    H147816   0.970   3.442   6.190 -0.1993  0.2340 -1.3925
 8775TIP3    H247817   0.886   3.321   6.224  1.1484 -0.2953  0.1397
 8776TIP3   OH247818   6.312   5.073   3.116  0.2503 -0.2601 -0.3465
 8776TIP3    H147819   6.265   5.028   3.186 -0.8260  0.9866 -0.2165
 8776TIP3    H247820   6.390   5.109   3.158  0.4806 -0.9524 -0.1796
 8777TIP3   OH247821   2.786   2.666  14.174  0.6856 -0.3180 -0.1665
 8777TIP3    H147822   2.783   2.656  14.078  0.1858 -1.8913 -0.0187
 8777TIP3    H247823   2.798   2.577  14.206 -0.4824  0.0251  1.2934
 8778TIP3   OH247824   5.792   1.164   2.695 -0.4051 -0.1131 -0.6534
 8778TIP3    H147825   5.885   1.149   2.680 -0.2355  1.0005 -0.8452
 8778TIP3    H247826   5.750   1.134   2.614 -0.0662  0.5689 -1.1006
 8779TIP3   OH247827   4.638   4.935   6.182 -0.0577 -0.3377  0.2626
 8779TIP3    H147828   4.619   5.015   6.133  0.0108 -0.2344  0.4033
 8779TIP3    H247829   4.574   4.934   6.252 -1.2814 -1.3708 -0.8134
 8780TIP3   OH247830   4.942   5.331   0.973 -0.3311  0.0851  0.1917
 8780TIP3    H147831   5.016   5.283   0.936 -0.4148 -2.2728  2.6928
 8780TIP3    H247832   4.981   5.408   1.014  0.3645  0.1923 -0.6393
 8781TIP3   OH247833   4.788   0.537  14.132  0.1317  0.1835  0.1524
 8781TIP3    H147834   4.787   0.562  14.225  0.4548  0.0467  0.1945
 8781TIP3    H247835   4.867   0.485  14.123  0.3326  0.5617 -0.2977
 8782TIP3   OH247836   5.227   0.707   3.903 -0.1380 -0.1438 -0.5600
 8782TIP3    H147837   5.236   0.801   3.884  0.5096 -0.1896 -0.4877
 8782TIP3    H247838   5.239   0.665   3.818 -0.2746 -0.1716 -0.5657
 8783TIP3   OH247839   3.428   3.488   2.596 -0.0421  0.0413 -0.0261
 8783TIP3    H147840   3.511   3.505   2.640  0.7902 -0.5793 -1.3006
 8783TIP3    H247841   3.419   3.393   2.595  0.6532 -0.0690 -2.3362
 8784TIP3   OH247842   3.287   3.396   6.622  0.2635  0.0063  0.4679
 8784TIP3    H147843   3.326   3.418   6.537  1.0573 -1.7576  0.3386
 8784TIP3    H247844   3.219   3.332   6.601 -0.1084  0.1839  1.0931
 8785TIP3   OH247845   0.969   0.523  12.950  0.0821  0.3830  0.2990
 8785TIP3    H147846   0.884   0.534  12.907 -1.4115 -1.3172  2.5258
 8785TIP3    H247847   0.981   0.605  12.998  0.2295  1.0341 -0.8143
 8786TIP3   OH247848   5.322   0.451  12.977  0.0664  0.1422  0.7643
 8786TIP3    H147849   5.355   0.399  13.050 -1.2361  0.7210  1.8056
 8786TIP3    H247850   5.303   0.388  12.909 -1.5701 -0.8113  2.0307
 8787TIP3   OH247851   1.406   1.021  14.744  0.4841  1.2523 -0.4311
 8787TIP3    H147852   1.359   1.104  14.741 -2.8351 -0.4267  0.7770
 8787TIP3    H247853   1.387   0.985  14.831  0.8044 -1.2837 -1.3178
 8788TIP3   OH247854   0.794   3.694   0.628 -0.8834 -0.2672  0.3506
 8788TIP3    H147855   0.775   3.744   0.548 -2.8268 -2.3150 -0.5896
 8788TIP3    H247856   0.719   3.636   0.637 -0.3055 -0.6833  3.2617
 8789TIP3   OH247857   0.222   4.417   5.580 -0.0969  0.3940 -0.2828
 8789TIP3    H147858   0.307   4.409   5.623 -0.3356 -0.0133  0.1271
 8789TIP3    H247859   0.204   4.511   5.579  0.1326  0.4412  0.0724
 8790TIP3   OH247860   1.618   4.519  14.273  0.2532 -0.0854  0.2018
 8790TIP3    H147861   1.595   4.594  14.328 -0.6985 -0.8714  0.9063
 8790TIP3    H247862   1.696   4.482  14.314 -0.2086 -0.4194  0.7821
 8791TIP3   OH247863   1.538   2.315   2.856 -0.1402  0.3632 -0.2355
 8791TIP3    H147864   1.574   2.228   2.840  0.8543  0.7719 -0.2411
 8791TIP3    H247865   1.613   2.374   2.852  0.0412  0.7746  4.1083
 8792TIP3   OH247866   4.001   4.961   2.297 -0.4749 -0.4123 -0.3172
 8792TIP3    H147867   3.997   5.054   2.320 -1.3429 -0.3228 -0.8093
 8792TIP3    H247868   4.075   4.927   2.348  1.6661  1.1202 -2.2305
 8793TIP3   OH247869   1.364   2.087  14.974 -0.3839  0.1618 -0.3458
 8793TIP3    H147870   1.459   2.091  14.968 -0.4380  1.0406 -0.9049
 8793TIP3    H247871   1.338   2.023  14.908 -0.1499 -0.6795  0.3544
 8794TIP3   OH247872   3.551   1.724   3.325  0.6492  0.0095 -0.0147
 8794TIP3    H147873   3.644   1.737   3.309  0.5837 -1.1573 -1.6362
 8794TIP3    H247874   3.545   1.700   3.417  2.0504 -0.7223 -0.1007
 8795TIP3   OH247875   2.952   0.975  13.306  0.2352  0.4990  0.3329
 8795TIP3    H147876   2.880   1.026  13.268  1.4561  1.2576 -1.0291
 8795TIP3    H247877   2.999   1.038  13.360  0.8727  0.4454 -0.1548
 8796TIP3   OH247878   0.280   2.950   4.547 -0.2805  0.0535 -0.1150
 8796TIP3    H147879   0.282   2.888   4.620 -0.4507 -0.0737 -0.2188
 8796TIP3    H247880   0.299   3.034   4.587  1.0695 -0.2174 -0.1303
 8797TIP3   OH247881   4.657   0.754  17.367 -0.0558 -0.3368  0.2941
 8797TIP3    H147882   4.735   0.725  17.319 -0.6302 -1.3988 -0.0317
 8797TIP3    H247883   4.626   0.831  17.319 -2.2507 -2.9163 -2.9217
 8798TIP3   OH247884   0.658   5.066   1.985 -0.3830  0.6392 -0.6348
 8798TIP3    H147885   0.610   5.131   2.034  0.4746  2.2608 -1.8544
 8798TIP3    H247886   0.617   4.982   2.008 -1.0841  1.5125  1.4588
 8799TIP3   OH247887   1.414   2.116   3.410 -0.1799  0.1486  0.0288
 8799TIP3    H147888   1.362   2.039   3.390  0.5275 -0.2426 -0.3668
 8799TIP3    H247889   1.447   2.146   3.325 -1.1910  1.4511  0.0575
 8800TIP3   OH247890   1.364   2.902  16.930  0.5744  0.5166  0.1227
 8800TIP3    H147891   1.302   2.960  16.974  1.4182  0.4007  1.5210
 8800TIP3    H247892   1.315   2.822  16.912  0.0294  0.8262  0.2151
 8801TIP3   OH247893   0.889   0.271  15.518  0.0197 -0.4749 -0.3097
 8801TIP3    H147894   0.927   0.326  15.449 -1.3495  0.3286 -0.4712
 8801TIP3    H247895   0.802   0.309  15.532 -0.3959 -1.7355  0.6084
 8802TIP3   OH247896   2.219   0.484   0.316  0.3315 -0.1186 -0.4879
 8802TIP3    H147897   2.282   0.532   0.369  0.4683 -0.8528  0.0307
 8802TIP3    H247898   2.136   0.493   0.362  0.4719 -0.8480 -0.0790
 8803TIP3   OH247899   4.058   5.979  14.705  0.1674 -0.0643  0.0542
 8803TIP3    H147900   4.009   6.034  14.766  0.1844 -1.5055  1.4347
 8803TIP3    H247901   4.131   5.945  14.757  0.0780 -1.4801 -0.7060
 8804TIP3   OH247902   4.758   2.782   3.170 -0.4658 -0.2033 -0.1537
 8804TIP3    H147903   4.673   2.823   3.185 -0.1698 -0.1481  1.5445
 8804TIP3    H247904   4.796   2.771   3.258  1.3793 -0.0274 -0.8782
 8805TIP3   OH247905   6.721   5.391   0.262  0.3350  0.4144 -0.4956
 8805TIP3    H147906   6.755   5.472   0.299  0.6763 -0.0677  0.2726
 8805TIP3    H247907   6.711   5.333   0.337  3.6662 -1.5556 -1.3747
 8806TIP3   OH247908   6.589   1.128  16.295  0.6587 -0.0154 -0.0780
 8806TIP3    H147909   6.665   1.143  16.350 -0.4126  0.3941  1.3337
 8806TIP3    H247910   6.601   1.187  16.220  2.5407 -1.1968 -0.7645
 8807TIP3   OH247911   0.686   1.276   3.273 -0.1331 -0.2826  0.3595
 8807TIP3    H147912   0.743   1.329   3.328  1.3519 -1.8924  0.4505
 8807TIP3    H247913   0.655   1.337   3.205  1.1041  0.8011  0.7339
 8808TIP3   OH247914   0.949   5.144  14.347  0.0237  0.1397 -0.3534
 8808TIP3    H147915   0.908   5.202  14.411 -0.0732  0.1389 -0.4147
 8808TIP3    H247916   0.960   5.199  14.269 -1.2472 -0.2811 -0.8481
 8809TIP3   OH247917   3.941   2.584   4.611  0.1857 -0.0146 -0.2721
 8809TIP3    H147918   3.879   2.531   4.661 -0.2649 -1.0079 -1.8224
 8809TIP3    H247919   3.933   2.672   4.649 -0.6162 -0.5772  0.9306
 8810TIP3   OH247920   5.452   6.355  11.658 -0.2009 -0.1436  0.4107
 8810TIP3    H147921   5.525   6.339  11.599  0.8930  2.1248  1.0426
 8810TIP3    H247922   5.476   6.311  11.740 -1.0009 -1.9590 -0.2788
 8811TIP3   OH247923   4.115   0.052   2.321  0.0896  0.5058 -0.7746
 8811TIP3    H147924   4.137   0.131   2.273  0.7027  0.9037  0.1432
 8811TIP3    H247925   4.024   0.065   2.349  0.2773  1.0213 -0.3843
 8812TIP3   OH247926   0.779   4.908   5.489 -0.0377  0.0161  0.1534
 8812TIP3    H147927   0.759   4.923   5.581  0.4706 -0.1402  0.2977
 8812TIP3    H247928   0.698   4.876   5.451 -0.2410  0.0515  0.5556
 8813TIP3   OH247929   4.411   5.601   4.136  0.1532 -0.3230  0.0449
 8813TIP3    H147930   4.506   5.603   4.146  0.2114  0.5655 -0.5195
 8813TIP3    H247931   4.393   5.668   4.070 -0.9338  0.1657  0.7964
 8814TIP3   OH247932   3.083   0.644  15.440  0.3443 -0.1113  0.2761
 8814TIP3    H147933   3.161   0.628  15.388 -0.1084  2.2202 -1.2570
 8814TIP3    H247934   3.116   0.668  15.527  1.3059  0.1251 -0.1489
 8815TIP3   OH247935   3.925   1.937   6.223  0.3166  0.4291 -0.9297
 8815TIP3    H147936   4.016   1.915   6.205  0.5174  1.6544 -1.5551
 8815TIP3    H247937   3.889   1.859   6.265  1.8287  0.1593 -0.0477
 8816TIP3   OH247938   4.598   5.334  13.030  0.5308  0.6623 -0.5190
 8816TIP3    H147939   4.662   5.266  13.006 -1.2014 -1.9200  1.5740
 8816TIP3    H247940   4.517   5.304  12.989 -1.3055 -1.1350  3.8349
 8817TIP3   OH247941   2.704   6.647   4.675 -0.0901 -0.2754  0.1155
 8817TIP3    H147942   2.689   6.560   4.636  1.3336 -0.4364 -0.1249
 8817TIP3    H247943   2.723   6.703   4.600 -2.4154  0.6230  0.1135
 8818TIP3   OH247944   0.222   0.458   0.750 -0.5037 -0.2610  0.4616
 8818TIP3    H147945   0.270   0.375   0.751 -0.0970 -0.0280  0.6003
 8818TIP3    H247946   0.131   0.433   0.735 -0.1426 -0.6224 -1.4699
 8819TIP3   OH247947   4.842   6.371   0.924 -0.2714 -0.5300 -0.5262
 8819TIP3    H147948   4.807   6.382   0.836 -2.1106 -0.8406  0.1148
 8819TIP3    H247949   4.783   6.308   0.966  0.3248 -0.1088  1.0444
 8820TIP3   OH247950   1.247   0.706  15.540 -0.5869  0.2590 -0.2711
 8820TIP3    H147951   1.288   0.770  15.597  0.5414 -1.1510  0.5651
 8820TIP3    H247952   1.284   0.724  15.453 -1.0391  1.3480 -0.2467
 8821TIP3   OH247953   0.539   2.064  17.111 -0.3838 -0.1641  0.2261
 8821TIP3    H147954   0.602   1.994  17.094 -0.4569  0.1229 -1.3499
 8821TIP3    H247955   0.586   2.144  17.088 -0.5830  0.2487  1.2122
 8822TIP3   OH247956   6.615   4.128  14.766  0.0718 -0.8627  0.0512
 8822TIP3    H147957   6.611   4.105  14.674 -1.7720 -1.1353  0.1776
 8822TIP3    H247958   6.694   4.183  14.773 -0.5489  0.4123 -1.9746
 8823TIP3   OH247959   1.677   2.189  17.281  0.4898  0.2501 -0.4957
 8823TIP3    H147960   1.719   2.244  17.347 -1.5436  1.8786 -0.4332
 8823TIP3    H247961   1.746   2.131  17.249  2.2095  1.3788  1.0149
 8824TIP3   OH247962   3.730   0.291  11.496  0.3177 -0.0559 -0.4990
 8824TIP3    H147963   3.767   0.320  11.580 -1.5311 -0.3394  0.4580
 8824TIP3    H247964   3.734   0.195  11.499 -1.1980 -0.1252 -0.0141
 8825TIP3   OH247965   3.248   5.828  11.982  0.4397  0.0739  0.6740
 8825TIP3    H147966   3.222   5.737  11.995  0.3051  0.2674  1.8640
 8825TIP3    H247967   3.214   5.851  11.895  0.1918 -0.8982  0.5023
 8826TIP3   OH247968   2.036   2.639  16.325  0.4274 -0.4326  0.4687
 8826TIP3    H147969   2.057   2.664  16.415 -1.3240  1.9281  0.3176
 8826TIP3    H247970   1.950   2.598  16.331 -0.7366  1.7073 -0.2631
 8827TIP3   OH247971   1.268   0.146  14.346  0.2807 -0.4587  0.4140
 8827TIP3    H147972   1.308   0.233  14.355  0.3919 -0.5363  0.6702
 8827TIP3    H247973   1.331   0.086  14.386 -1.3770 -0.2720  3.6519
 8828TIP3   OH247974   0.606   5.640  15.129 -0.0845  0.2129  0.1458
 8828TIP3    H147975   0.672   5.708  15.117 -0.9792  1.7441  3.0945
 8828TIP3    H247976   0.656   5.559  15.135  1.1072  0.6853 -2.1137
 8829TIP3   OH247977   5.955   4.936  10.810  0.4317 -0.0009  0.6142
 8829TIP3    H147978   5.899   5.013  10.798  0.0299 -0.2826  0.6575
 8829TIP3    H247979   5.895   4.862  10.807  0.3606 -0.1710  3.5366
 8830TIP3   OH247980   2.843   4.164  17.397  0.8446  0.1693 -0.2851
 8830TIP3    H147981   2.909   4.151  17.465  0.7604  2.2138  0.2658
 8830TIP3    H247982   2.894   4.179  17.317  0.9795 -0.5277 -0.3352
 8831TIP3   OH247983   3.787   4.801   0.230 -0.4684 -0.6373 -0.3910
 8831TIP3    H147984   3.867   4.848   0.208 -0.5819 -0.2313  0.0505
 8831TIP3    H247985   3.780   4.810   0.325  0.5167 -3.1292  0.0060
 8832TIP3   OH247986   2.066   5.464   3.297 -0.2541  0.3694 -0.0555
 8832TIP3    H147987   2.147   5.412   3.297  0.7177  1.8238 -0.3442
 8832TIP3    H247988   2.026   5.445   3.382 -0.7191 -1.9837 -0.7345
 8833TIP3   OH247989   4.698   1.352   6.587  0.1614 -0.1364 -0.3822
 8833TIP3    H147990   4.782   1.371   6.630  0.7316 -0.8966 -1.1314
 8833TIP3    H247991   4.669   1.436   6.552 -0.6861  0.6822  2.0791
 8834TIP3   OH247992   4.396   4.001   5.523  0.0003  0.1485 -0.1469
 8834TIP3    H147993   4.416   4.055   5.600  0.3351  0.1089 -0.2037
 8834TIP3    H247994   4.336   4.055   5.471  1.5803  1.1949 -1.0152
 8835TIP3   OH247995   1.694   2.761   2.738 -0.0982  0.5147  0.2464
 8835TIP3    H147996   1.642   2.814   2.798 -0.1198 -0.4133  1.0715
 8835TIP3    H247997   1.664   2.787   2.651  0.1144  2.0779  0.5986
 8836TIP3   OH247998   2.050   3.960   5.188  0.1769  0.0589  0.5599
 8836TIP3    H147999   2.130   3.927   5.147  0.9077  0.8772  1.2788
 8836TIP3    H248000   2.068   4.053   5.202 -0.6148  0.0912  1.4190
 8837TIP3   OH248001   4.264   2.777  11.630 -0.1997  0.5263 -0.4451
 8837TIP3    H148002   4.280   2.709  11.695 -1.5004 -0.6993 -1.3466
 8837TIP3    H248003   4.220   2.847  11.678 -1.1800 -0.3725  0.0026
 8838TIP3   OH248004   3.467   3.060  14.257  0.5498 -0.0874  0.3359
 8838TIP3    H148005   3.428   3.051  14.170  0.8598  0.8866  0.0796
 8838TIP3    H248006   3.506   2.974  14.275  4.5079  0.8555 -2.4873
 8839TIP3   OH248007   2.214   0.864  17.073  0.1080 -0.2929  0.0234
 8839TIP3    H148008   2.238   0.771  17.071 -0.2962 -0.4076  0.5037
 8839TIP3    H248009   2.210   0.889  16.980 -2.7083 -1.5220 -0.3006
 8840TIP3   OH248010   2.896   4.509  11.220 -0.3035 -0.1054 -0.1140
 8840TIP3    H148011   2.863   4.482  11.134 -1.2403  0.1079  0.1722
 8840TIP3    H248012   2.859   4.596  11.233  1.2733  0.6370 -0.2633
 8841TIP3   OH248013   0.244   1.752   4.995 -0.7737  0.0166 -0.3736
 8841TIP3    H148014   0.276   1.672   5.037 -1.0878  0.9968  1.9071
 8841TIP3    H248015   0.149   1.747   5.002 -0.8658 -0.1182 -1.6452
 8842TIP3   OH248016   3.166   0.980   0.528 -0.6600  0.8546 -0.1241
 8842TIP3    H148017   3.189   0.888   0.518 -0.7956  0.6588  1.1812
 8842TIP3    H248018   3.070   0.981   0.526 -0.7054  0.7771  1.1431
 8843TIP3   OH248019   3.961   4.458   0.993 -0.3686 -0.1596  0.4213
 8843TIP3    H148020   4.007   4.507   0.925 -0.6857  1.0879  1.0828
 8843TIP3    H248021   3.940   4.374   0.952  0.9283 -0.0795 -0.4574
 8844TIP3   OH248022   2.329   1.915   4.521  0.4102 -0.2560 -0.3208
 8844TIP3    H148023   2.311   1.977   4.450  0.8416 -0.6709 -0.7992
 8844TIP3    H248024   2.415   1.940   4.553 -0.1577  0.4944  0.6646
 8845TIP3   OH248025   4.315   6.261   1.477  0.2739 -0.3260  0.2644
 8845TIP3    H148026   4.343   6.194   1.415  1.3446 -0.5018  0.9127
 8845TIP3    H248027   4.397   6.296   1.513 -0.3193 -0.2428  1.5892
 8846TIP3   OH248028   1.967   2.460   5.878 -0.5873 -0.2217  0.8443
 8846TIP3    H148029   1.947   2.455   5.784 -0.3993 -1.3750  0.8420
 8846TIP3    H248030   1.882   2.467   5.921 -0.6977 -0.0761  0.5991
 8847TIP3   OH248031   3.039   0.190  15.851 -0.2457 -0.2781  0.4149
 8847TIP3    H148032   3.097   0.265  15.838 -0.7470  0.2604  1.2479
 8847TIP3    H248033   2.951   0.225  15.842 -0.4883 -0.7750  0.7625
 8848TIP3   OH248034   3.401   1.037  14.258  0.1047 -0.3470 -0.2891
 8848TIP3    H148035   3.311   1.005  14.249  0.1192 -0.8536  1.0357
 8848TIP3    H248036   3.454   0.975  14.208 -0.1910 -0.6568 -0.2277
 8849TIP3   OH248037   2.981   2.967   5.128  0.1605  0.3867 -0.1013
 8849TIP3    H148038   2.894   2.976   5.091  0.2433  0.3878 -0.2960
 8849TIP3    H248039   3.040   2.999   5.060  0.5085 -1.9551 -1.0048
 8850TIP3   OH248040   0.229   5.296  16.547 -0.0841 -0.4202  0.5387
 8850TIP3    H148041   0.211   5.389  16.559  2.9387  0.5397 -1.1627
 8850TIP3    H248042   0.184   5.273  16.465  0.8178  0.1590 -0.1447
 8851TIP3   OH248043   0.884   4.513   1.430 -0.1778  0.5542  0.3570
 8851TIP3    H148044   0.864   4.525   1.337 -1.6811  1.2758  0.7532
 8851TIP3    H248045   0.946   4.583   1.451 -0.3937  0.8317  0.0695
 8852TIP3   OH248046   1.655   2.759  13.303  0.2195 -0.4644  0.0016
 8852TIP3    H148047   1.597   2.689  13.332 -0.5424  0.0997 -0.1445
 8852TIP3    H248048   1.699   2.723  13.227 -0.5232 -0.6210 -0.3619
 8853TIP3   OH248049   1.672   0.070  16.505 -0.3608 -0.0436 -0.2030
 8853TIP3    H148050   1.696  -0.022  16.510 -3.5895 -0.9449  0.7571
 8853TIP3    H248051   1.710   0.109  16.584  1.2802 -0.4113 -0.7718
 8854TIP3   OH248052   0.904   2.418  13.092  0.8400 -0.2152 -0.1904
 8854TIP3    H148053   0.978   2.402  13.149  1.4021 -0.9101 -1.0767
 8854TIP3    H248054   0.828   2.390  13.143  1.3746 -1.2897  0.0593
 8855TIP3   OH248055   5.272   0.464   0.366  0.1653  0.2834 -0.5610
 8855TIP3    H148056   5.246   0.425   0.283  0.8152 -0.0644 -0.6064
 8855TIP3    H248057   5.209   0.431   0.430  1.3330 -1.7623 -0.3846
 8856TIP3   OH248058   5.093   5.478   2.739 -0.8119 -0.0701  0.6024
 8856TIP3    H148059   5.168   5.511   2.689 -1.3215  2.3885  1.3257
 8856TIP3    H248060   5.127   5.402   2.786  1.2120  0.8707  0.7613
 8857TIP3   OH248061   0.565   1.945   5.375  0.2593  0.5809 -0.0908
 8857TIP3    H148062   0.571   1.907   5.462 -0.3630 -1.9252 -1.0563
 8857TIP3    H248063   0.474   1.931   5.349  0.5777  0.7684 -1.3537
 8858TIP3   OH248064   0.057   0.081   5.993 -0.4818  0.6716 -0.9876
 8858TIP3    H148065   0.057  -0.002   5.946 -1.0786 -0.1397  0.3915
 8858TIP3    H248066   0.050   0.147   5.924  0.0479 -0.4056 -2.1086
 8859TIP3   OH248067   2.115   6.175  10.855 -0.1578  0.2123  0.3766
 8859TIP3    H148068   2.043   6.115  10.876  0.0878  0.0102  0.6545
 8859TIP3    H248069   2.194   6.126  10.878  0.0415  0.6751  0.6962
 8860TIP3   OH248070   2.241   2.740  14.645  0.1876  0.4912  0.2470
 8860TIP3    H148071   2.178   2.733  14.717  3.0190 -2.4918  2.7593
 8860TIP3    H248072   2.318   2.781  14.684  0.4424  2.7145 -2.3285
 8861TIP3   OH248073   5.627   1.533  14.853  0.5122 -0.2364  0.1770
 8861TIP3    H148074   5.605   1.609  14.800  0.9326 -0.6715 -0.6496
 8861TIP3    H248075   5.551   1.475  14.845 -0.6629  0.8826  2.3896
 8862TIP3   OH248076   3.667   4.474   3.000 -0.1574  0.0761  0.3043
 8862TIP3    H148077   3.654   4.404   3.064 -1.3040  0.2453  0.2804
 8862TIP3    H248078   3.676   4.554   3.053 -0.7577  0.1675  0.2745
 8863TIP3   OH248079   2.048   5.688   6.344  0.2143 -0.2983 -0.7054
 8863TIP3    H148080   2.061   5.593   6.339  0.8504 -0.2193 -0.6038
 8863TIP3    H248081   2.083   5.722   6.262 -2.7174 -0.4111 -2.1309
 8864TIP3   OH248082   3.094   4.975  13.863 -0.2408  0.7745  0.7476
 8864TIP3    H148083   3.074   5.047  13.804 -1.3954 -0.1475 -0.0186
 8864TIP3    H248084   3.052   5.000  13.946 -2.7209 -0.0418 -0.1751
 8865TIP3   OH248085   0.768   2.848  16.091 -0.4153 -0.7136  0.3998
 8865TIP3    H148086   0.834   2.856  16.023 -1.4878 -0.5555 -0.6510
 8865TIP3    H248087   0.695   2.802  16.049 -0.4293 -2.2165  1.9449
 8866TIP3   OH248088   2.953   0.815   1.394 -0.1068  0.1700 -0.3019
 8866TIP3    H148089   2.867   0.844   1.363  0.2415  0.3505 -1.1349
 8866TIP3    H248090   3.001   0.795   1.313  0.7157  0.3110  0.1497
 8867TIP3   OH248091   3.198   3.799   0.767  0.5678  0.3674 -0.4624
 8867TIP3    H148092   3.266   3.733   0.782  0.9780  1.2046  1.7514
 8867TIP3    H248093   3.123   3.749   0.734  1.4879 -0.9178 -0.6997
 8868TIP3   OH248094   4.207   1.961   0.413 -0.1328 -0.0328  0.7608
 8868TIP3    H148095   4.197   1.866   0.425  0.1994 -0.0368  1.0376
 8868TIP3    H248096   4.173   1.978   0.325 -1.8683 -0.1243  1.3879
 8869TIP3   OH248097   3.716   6.016   0.041  0.1957 -0.0626 -0.3446
 8869TIP3    H148098   3.660   6.090   0.060 -0.7039 -0.8305  0.0550
 8869TIP3    H248099   3.680   5.944   0.093 -1.1626 -1.7392 -3.3442
 8870TIP3   OH248100   6.475   4.867  11.676  0.4756  0.2109 -0.0417
 8870TIP3    H148101   6.540   4.914  11.623 -0.0955  0.4650 -0.5218
 8870TIP3    H248102   6.461   4.785  11.628 -1.1734  1.0788 -1.1515
 8871TIP3   OH248103   6.467   3.531  13.699  0.3428 -0.0022  0.0650
 8871TIP3    H148104   6.450   3.474  13.624  0.2188  0.1126  0.0063
 8871TIP3    H248105   6.528   3.598  13.666 -0.0774  0.3220 -0.0580
 8872TIP3   OH248106   4.689   5.792  16.835 -0.0480 -0.3886 -0.6097
 8872TIP3    H148107   4.675   5.858  16.767  1.1837  0.6333  0.0738
 8872TIP3    H248108   4.782   5.770  16.828  0.2045  0.0633  1.0101
 8873TIP3   OH248109   0.487   0.563   3.544 -0.6076 -0.2602  0.0038
 8873TIP3    H148110   0.498   0.644   3.592  1.2399 -0.5117  0.0454
 8873TIP3    H248111   0.471   0.590   3.453 -0.9122  0.1405  0.1721
 8874TIP3   OH248112   0.652   5.651   4.604  0.3543  0.1328 -0.3976
 8874TIP3    H148113   0.611   5.583   4.657 -0.3873  0.2348 -0.8243
 8874TIP3    H248114   0.587   5.672   4.537  0.2796  1.7820  0.1583
 8875TIP3   OH248115   5.568   2.624  12.634 -0.1196 -0.0144  0.3115
 8875TIP3    H148116   5.529   2.710  12.616  0.9517  0.6287  0.9629
 8875TIP3    H248117   5.656   2.629  12.596 -0.6381 -1.4639 -1.1788
 8876TIP3   OH248118   1.094   3.097  14.068  0.2761 -0.0097  0.1587
 8876TIP3    H148119   1.147   3.173  14.043  2.4485 -1.5933 -0.3572
 8876TIP3    H248120   1.041   3.079  13.990  2.6445 -1.3197 -1.2480
 8877TIP3   OH248121   3.898   0.603   1.794 -0.5562 -1.2051  0.9158
 8877TIP3    H148122   3.810   0.638   1.811 -1.1136 -1.8689 -0.4880
 8877TIP3    H248123   3.956   0.678   1.805 -1.4885 -0.3461  0.1708
 8878TIP3   OH248124   2.452   3.743  14.509  0.2456 -0.1552 -0.3389
 8878TIP3    H148125   2.478   3.774  14.596  1.3187  1.8411 -1.3057
 8878TIP3    H248126   2.508   3.667  14.494  0.7328  0.0519  0.3393
 8879TIP3   OH248127   0.106   5.359  14.531 -0.1158 -0.1729 -0.4101
 8879TIP3    H148128   0.066   5.280  14.493  1.8525 -1.6196  0.3744
 8879TIP3    H248129   0.092   5.350  14.625  1.6181 -0.5295 -0.1520
 8880TIP3   OH248130   5.596   6.042   3.942  0.1966 -0.4629  0.1422
 8880TIP3    H148131   5.672   6.099   3.958  0.5994 -1.0043  0.1914
 8880TIP3    H248132   5.521   6.091   3.975  0.2008  1.0511 -1.8973
 8881TIP3   OH248133   6.538   4.388  12.423  0.6648 -0.3749  0.3562
 8881TIP3    H148134   6.593   4.389  12.345  0.3660 -0.6580  0.1339
 8881TIP3    H248135   6.599   4.393  12.496  0.8863  1.3581  0.0986
 8882TIP3   OH248136   4.779   0.607   5.850 -0.3454  0.8105 -0.0151
 8882TIP3    H148137   4.694   0.620   5.891 -0.0837 -0.8281  1.1368
 8882TIP3    H248138   4.843   0.628   5.918  0.1100 -0.7292  0.0664
 8883TIP3   OH248139   1.552   3.206   4.887  0.6026  0.0240  0.4539
 8883TIP3    H148140   1.613   3.132   4.893  1.2846  0.6280  1.1442
 8883TIP3    H248141   1.600   3.273   4.838  0.1372  0.1622  0.1812
 8884TIP3   OH248142   0.816   2.077   4.079 -0.0951  0.4525 -0.5340
 8884TIP3    H148143   0.819   2.111   3.989  1.4209 -1.0350 -1.0975
 8884TIP3    H248144   0.754   2.135   4.124 -0.7417  1.3686 -2.4704
 8885TIP3   OH248145   0.495   4.838   2.083 -0.6346  0.1772 -0.2061
 8885TIP3    H148146   0.532   4.781   2.150 -1.1258  2.5190  2.2187
 8885TIP3    H248147   0.468   4.779   2.013  2.3446 -2.1585  0.4292
 8886TIP3   OH248148   2.285   2.873  13.134  0.3492 -0.4658 -0.4884
 8886TIP3    H148149   2.328   2.900  13.215 -0.3139 -2.8828  0.7405
 8886TIP3    H248150   2.296   2.949  13.076 -1.4855  2.4876  2.6403
 8887TIP3   OH248151   4.031   4.387  16.008  0.4670  0.6249 -0.6350
 8887TIP3    H148152   3.978   4.309  15.995 -0.3628  1.1063 -0.2016
 8887TIP3    H248153   4.115   4.354  16.041 -0.4103  0.0061  1.0956
 8888TIP3   OH248154   2.044   5.778   1.691  0.3245 -0.0944 -0.0250
 8888TIP3    H148155   2.008   5.747   1.608  0.5468  0.6194 -0.3988
 8888TIP3    H248156   2.139   5.777   1.678  0.3230  1.6833 -0.4168
 8889TIP3   OH248157   1.977   4.639   2.982  0.7484  0.0313  0.3455
 8889TIP3    H148158   2.000   4.579   2.910  1.7060  0.1645  0.5206
 8889TIP3    H248159   1.978   4.583   3.060 -0.2106 -0.0956  0.2788
 8890TIP3   OH248160   5.135   3.036   4.714 -0.2145 -0.4879  0.2985
 8890TIP3    H148161   5.081   2.962   4.686 -0.8480  0.5757 -1.5222
 8890TIP3    H248162   5.128   3.036   4.809 -2.1685 -1.3422  0.2216
 8891TIP3   OH248163   1.081   0.617   1.406 -0.3603  0.3138  0.3362
 8891TIP3    H148164   1.070   0.707   1.376 -1.7711  0.6862  1.8604
 8891TIP3    H248165   1.053   0.563   1.333 -1.0403  1.1383 -0.0181
 8892TIP3   OH248166   2.413   5.494  15.012 -0.0282  0.0315 -0.3249
 8892TIP3    H148167   2.505   5.485  15.035 -0.0320 -1.1810 -0.7133
 8892TIP3    H248168   2.386   5.577  15.051  1.1063  0.1712  0.1886
 8893TIP3   OH248169   3.687   4.386  16.397  0.1444  0.4703 -0.1347
 8893TIP3    H148170   3.679   4.413  16.489 -1.1460  1.3831 -0.4746
 8893TIP3    H248171   3.748   4.449  16.359  0.3667  0.3395  0.0060
 8894TIP3   OH248172   5.973   0.240   2.916 -0.1277  0.1189 -0.0096
 8894TIP3    H148173   5.948   0.204   3.001 -0.8123  0.9980  0.1795
 8894TIP3    H248174   5.951   0.333   2.922 -1.6507 -0.0703 -1.6755
 8895TIP3   OH248175   6.110   4.891  11.016 -0.1280  0.0606 -0.0583
 8895TIP3    H148176   6.053   4.907  10.940 -1.4717 -1.6243  0.5258
 8895TIP3    H248177   6.090   4.962  11.077  0.6569  1.1884 -1.0691
 8896TIP3   OH248178   2.992   3.034  13.702  0.2424 -0.3127 -0.0677
 8896TIP3    H148179   2.937   3.062  13.629 -0.3446  0.2945  0.5978
 8896TIP3    H248180   2.991   2.938  13.698 -0.6909 -0.3068 -0.1971
 8897TIP3   OH248181   4.396   1.989  12.956 -0.2180  0.4367  0.4050
 8897TIP3    H148182   4.364   1.997  12.866 -1.3099  1.0500  0.8260
 8897TIP3    H248183   4.318   1.997  13.010  0.2460 -1.1445  1.3925
 8898TIP3   OH248184   3.059   2.612  16.790 -0.1783  0.5070 -0.3686
 8898TIP3    H148185   3.110   2.537  16.758 -2.1919 -0.4316 -1.5709
 8898TIP3    H248186   3.030   2.586  16.878 -0.9268 -0.1955 -0.8086
 8899TIP3   OH248187   4.350   6.543  12.610 -0.2520  0.0009 -0.0309
 8899TIP3    H148188   4.382   6.454  12.622 -1.2265 -0.4762 -0.8600
 8899TIP3    H248189   4.336   6.576  12.699 -0.3208 -0.8368  0.2707
 8900TIP3   OH248190   4.918   1.878   3.266  0.3295  0.0264 -0.5306
 8900TIP3    H148191   5.005   1.917   3.275 -0.0157  0.7875 -0.4430
 8900TIP3    H248192   4.894   1.893   3.174 -0.4961  1.5425 -0.1088
 8901TIP3   OH248193   4.091   3.076  11.329  0.5809  0.6804 -0.2357
 8901TIP3    H148194   4.169   3.051  11.379  0.5967  1.9906  0.4642
 8901TIP3    H248195   4.076   3.167  11.355 -1.1443  0.4703 -0.4209
 8902TIP3   OH248196   0.556   2.389  13.524 -0.0223  0.3605  0.1976
 8902TIP3    H148197   0.530   2.312  13.576  1.3807 -1.1163 -1.1489
 8902TIP3    H248198   0.483   2.405  13.465 -0.3684  0.1227  0.5584
 8903TIP3   OH248199   3.290   0.904  16.429 -0.0608 -0.2181 -0.2251
 8903TIP3    H148200   3.371   0.856  16.448 -0.4729 -0.8531 -0.0517
 8903TIP3    H248201   3.240   0.846  16.373 -0.4901  0.0892 -0.1659
 8904TIP3   OH248202   2.744   5.514  14.009 -0.7316 -0.4163  0.2178
 8904TIP3    H148203   2.720   5.448  14.074  0.7709 -0.0594  1.1853
 8904TIP3    H248204   2.811   5.567  14.052 -1.0822  1.0470 -0.9456
 8905TIP3   OH248205   0.264   5.701   3.582  0.5554 -0.7628 -0.0176
 8905TIP3    H148206   0.241   5.701   3.489  0.0103 -3.2006  0.0401
 8905TIP3    H248207   0.357   5.678   3.584  0.7301 -0.0742  0.0375
 8906TIP3   OH248208   3.518   0.173  16.161 -0.6830  0.2160 -0.5853
 8906TIP3    H148209   3.470   0.134  16.088  0.5782 -0.7611 -0.9224
 8906TIP3    H248210   3.558   0.099  16.206  0.6065  1.0020 -0.3986
 8907TIP3   OH248211   3.322   6.485   4.463 -0.1328  0.2725 -0.8960
 8907TIP3    H148212   3.322   6.579   4.449 -0.6810  0.6128  1.0164
 8907TIP3    H248213   3.266   6.450   4.394 -2.1543  1.6769 -0.0813
 8908TIP3   OH248214   1.533   6.639  12.292  0.3375  0.3662  0.2499
 8908TIP3    H148215   1.452   6.685  12.271  0.3084 -0.6098 -2.0169
 8908TIP3    H248216   1.532   6.634  12.388 -1.5482  1.6279  0.3723
 8909TIP3   OH248217   5.586   5.268   5.755  0.7886 -0.2308 -0.0780
 8909TIP3    H148218   5.617   5.336   5.815  1.0271  0.1021 -0.5725
 8909TIP3    H248219   5.666   5.226   5.724  0.7051  0.0844 -0.7251
 8910TIP3   OH248220   4.085   2.512  12.703  0.3331  0.4644 -0.2957
 8910TIP3    H148221   4.137   2.582  12.663 -0.3740  0.1589 -1.7923
 8910TIP3    H248222   3.997   2.523  12.666 -0.0054 -0.6926  0.1220
 8911TIP3   OH248223   1.847   4.075   4.950 -0.1127  0.0951 -0.2689
 8911TIP3    H148224   1.857   4.148   4.889 -1.6536  0.6442  0.0932
 8911TIP3    H248225   1.936   4.059   4.982  0.3982  1.1894 -1.0616
 8912TIP3   OH248226   0.691   3.313  10.849 -0.2253  0.1071 -0.1750
 8912TIP3    H148227   0.691   3.373  10.775  0.5584 -1.2301 -1.3126
 8912TIP3    H248228   0.756   3.349  10.909 -0.0243  0.5766 -0.6690
 8913TIP3   OH248229   1.373   1.330  11.325 -0.3525  0.3179  0.4915
 8913TIP3    H148230   1.448   1.383  11.296 -0.9519  0.6196 -0.5652
 8913TIP3    H248231   1.358   1.269  11.253 -1.5822  0.7514  0.3618
 8914TIP3   OH248232   1.985   4.113  12.703  0.6794  0.9946 -0.5169
 8914TIP3    H148233   1.901   4.121  12.658  1.5662 -1.1620 -2.8048
 8914TIP3    H248234   1.969   4.048  12.772  0.5703  0.0241 -1.4205
 8915TIP3   OH248235   5.647   6.666  15.493  0.1666  0.4661 -0.3335
 8915TIP3    H148236   5.581   6.615  15.540 -0.0494  1.4484  0.4642
 8915TIP3    H248237   5.653   6.748  15.542  1.4047  0.7124 -0.8688
 8916TIP3   OH248238   0.987   0.819  14.910 -0.1373 -0.2971  0.0448
 8916TIP3    H148239   0.998   0.877  14.985  0.9388 -2.1442  1.3864
 8916TIP3    H248240   0.896   0.830  14.884  0.3212  2.9864 -0.6832
 8917TIP3   OH248241   5.917   6.523   5.538  0.4681  0.4445 -0.0003
 8917TIP3    H148242   5.933   6.436   5.501 -0.9189  0.7443 -1.4326
 8917TIP3    H248243   6.001   6.568   5.533  1.0319 -0.5797  0.0977
 8918TIP3   OH248244   0.951   5.560   1.278  0.5758 -0.5494  0.7858
 8918TIP3    H148245   0.921   5.484   1.328  0.9080 -1.3246 -0.1511
 8918TIP3    H248246   0.960   5.630   1.343 -2.0192 -0.6022  1.3308
 8919TIP3   OH248247   5.400   1.910   4.705 -0.5839  0.2079 -0.8317
 8919TIP3    H148248   5.469   1.970   4.733 -1.8569  1.0286  0.7395
 8919TIP3    H248249   5.355   1.957   4.635 -0.5406  0.3698 -0.7534
 8920TIP3   OH248250   0.992   4.063   1.153  0.1358 -0.4937  0.7988
 8920TIP3    H148251   1.077   4.075   1.111 -0.0937  1.4844  0.8177
 8920TIP3    H248252   0.990   4.128   1.223 -1.1818 -0.8799  1.1569
 8921TIP3   OH248253   1.536   6.082  12.658 -0.0246 -0.1917  0.1747
 8921TIP3    H148254   1.483   6.125  12.726  0.7063  0.2961  0.4454
 8921TIP3    H248255   1.602   6.147  12.634  1.2705 -1.2369  0.7738
 8922TIP3   OH248256   3.359   6.314  15.159 -0.0348  0.6570  0.1466
 8922TIP3    H148257   3.379   6.275  15.244  0.7512  0.9614  0.1092
 8922TIP3    H248258   3.415   6.267  15.097 -1.5075 -0.4279 -0.4131
 8923TIP3   OH248259   4.570   2.555  15.139  0.7285  0.2203  0.0439
 8923TIP3    H148260   4.638   2.572  15.073  2.8561 -1.0165  1.7627
 8923TIP3    H248261   4.614   2.501  15.205 -1.2448  1.5097  2.5829
 8924TIP3   OH248262   6.624   4.025  12.968  0.3107 -0.6257 -0.2517
 8924TIP3    H148263   6.584   4.005  12.884 -0.5507 -0.4149  0.0989
 8924TIP3    H248264   6.715   3.996  12.959  0.6093  0.6102 -1.7143
 8925TIP3   OH248265   5.196   6.121   4.200 -0.0397 -0.1191  0.5648
 8925TIP3    H148266   5.282   6.132   4.242  2.3557  0.4450 -3.8568
 8925TIP3    H248267   5.156   6.208   4.204  0.0025 -0.1462  1.8220
 8926TIP3   OH248268   2.699   3.456  15.185  0.3551 -0.1325  0.4983
 8926TIP3    H148269   2.779   3.413  15.157 -0.3672 -1.8307  0.9449
 8926TIP3    H248270   2.728   3.542  15.217  2.1632 -1.1738  1.8403
 8927TIP3   OH248271   5.383   6.468  13.155  0.0328  0.5339 -0.4966
 8927TIP3    H148272   5.290   6.487  13.165  0.1597  0.4212  1.0311
 8927TIP3    H248273   5.405   6.412  13.229  2.0702  3.3985  1.3054
 8928TIP3   OH248274   3.555   2.177   3.966 -0.6003 -0.3283 -0.3773
 8928TIP3    H148275   3.637   2.133   3.989 -0.0331  1.1003  0.4741
 8928TIP3    H248276   3.526   2.217   4.048 -1.1915  0.6925 -1.0701
 8929TIP3   OH248277   4.013   0.721  16.948 -0.0399  0.0555 -0.2500
 8929TIP3    H148278   4.034   0.640  16.900  0.3062  1.5074 -2.6963
 8929TIP3    H248279   4.096   0.768  16.952  0.5050 -0.8859  3.8608
 8930TIP3   OH248280   4.510   5.115  14.094 -0.5695  0.3287  0.0598
 8930TIP3    H148281   4.509   5.100  14.189 -0.9837 -0.7825 -0.1067
 8930TIP3    H248282   4.559   5.041  14.059  2.3422  2.3134 -0.3844
 8931TIP3   OH248283   0.624   1.403   4.013 -0.0121  0.6403  0.4180
 8931TIP3    H148284   0.687   1.423   4.082 -0.3266 -0.7742  1.1694
 8931TIP3    H248285   0.552   1.464   4.027  1.2810  2.4873 -0.6491
 8932TIP3   OH248286   2.154   6.208  17.026  0.0025 -0.3558 -0.1799
 8932TIP3    H148287   2.198   6.208  17.111 -0.8589  0.8859  0.3011
 8932TIP3    H248288   2.221   6.180  16.964  1.2527  0.7677  0.6175
 8933TIP3   OH248289   6.355   0.953   0.991 -0.0004 -0.4676 -0.2255
 8933TIP3    H148290   6.375   0.979   1.081  0.2553 -2.3106  0.2956
 8933TIP3    H248291   6.260   0.962   0.985 -0.0826 -0.8291  0.4074
 8934TIP3   OH248292   6.498   1.463  12.755 -0.3339 -0.2354 -0.0287
 8934TIP3    H148293   6.490   1.549  12.795 -2.0781 -1.3025  2.1315
 8934TIP3    H248294   6.407   1.434  12.742  0.1963 -1.1994 -2.0714
 8935TIP3   OH248295   5.210   6.560   3.900 -0.9606  0.0321 -0.2235
 8935TIP3    H148296   5.246   6.574   3.987 -2.2910  0.8032  0.2253
 8935TIP3    H248297   5.130   6.510   3.914 -0.4901 -1.0273 -1.1380
 8936TIP3   OH248298   3.444   2.377  17.327  0.6140 -0.1235 -0.5394
 8936TIP3    H148299   3.420   2.315  17.395 -1.4237  0.3983 -0.6972
 8936TIP3    H248300   3.433   2.463  17.368 -1.1970  0.2213 -1.6051
 8937TIP3   OH248301   0.939   4.354  14.165 -0.6177 -0.6508 -0.2442
 8937TIP3    H148302   1.008   4.405  14.207 -1.0723 -0.2696  0.0462
 8937TIP3    H248303   0.944   4.379  14.073 -0.4929 -0.4808 -0.1919
 8938TIP3   OH248304   6.188   2.879  16.007 -0.0882 -0.1466 -0.3144
 8938TIP3    H148305   6.191   2.872  15.911  1.2935  1.6705 -0.4333
 8938TIP3    H248306   6.129   2.952  16.024 -0.0127 -0.2088  0.2343
 8939TIP3   OH248307   6.748   5.079   0.829  0.1025  0.3123  0.4167
 8939TIP3    H148308   6.838   5.047   0.843  0.7663  1.7416 -0.3841
 8939TIP3    H248309   6.739   5.154   0.888 -1.0070 -0.5165  1.3569
 8940TIP3   OH248310   0.462   1.593  17.321 -0.4466 -0.3876 -0.6143
 8940TIP3    H148311   0.508   1.567  17.401 -1.8720 -1.3967 -0.0668
 8940TIP3    H248312   0.512   1.667  17.287  1.7846 -1.6505 -0.2987
 8941TIP3   OH248313   2.194   3.686  11.046 -0.1889  0.0606  0.0901
 8941TIP3    H148314   2.274   3.638  11.025 -0.2062  0.2035 -0.3140
 8941TIP3    H248315   2.145   3.687  10.964 -0.4201  0.3271  0.2317
 8942TIP3   OH248316   1.161   4.320  10.826 -0.0464 -0.1515  0.1107
 8942TIP3    H148317   1.110   4.303  10.747 -0.4855  0.6322  0.2193
 8942TIP3    H248318   1.252   4.318  10.797 -0.0069 -2.9921  0.1765
 8943TIP3   OH248319   0.033   0.206   2.546  0.0588  0.2418 -0.6035
 8943TIP3    H148320  -0.029   0.277   2.561 -1.1256 -1.2639  2.3629
 8943TIP3    H248321  -0.016   0.142   2.493 -0.7644 -0.5873  1.0698
 8944TIP3   OH248322   5.331   2.619  15.919 -0.1335  0.0313  0.0024
 8944TIP3    H148323   5.316   2.569  15.838  2.1295  0.0009 -0.4463
 8944TIP3    H248324   5.311   2.557  15.989 -1.9012 -0.0088 -0.4743
 8945TIP3   OH248325   3.491   0.726  16.271 -0.7625 -0.4588  0.4897
 8945TIP3    H148326   3.466   0.639  16.301 -2.3733  0.3115  1.5377
 8945TIP3    H248327   3.434   0.743  16.196  0.4945 -0.8211 -0.5680
 8946TIP3   OH248328   5.678   2.619   0.005 -0.4142  0.2385  0.5349
 8946TIP3    H148329   5.756   2.571   0.033 -0.4075  0.4192  0.8267
 8946TIP3    H248330   5.632   2.639   0.086 -2.6361 -2.9370  0.2542
 8947TIP3   OH248331   5.576   2.933  14.896  0.1553 -0.6084  0.0136
 8947TIP3    H148332   5.625   2.857  14.864 -1.9935 -0.6820 -3.6439
 8947TIP3    H248333   5.507   2.895  14.950 -1.2547 -1.5067 -2.2423
 8948TIP3   OH248334   6.231   4.817  15.691  0.0434 -0.4461 -0.1566
 8948TIP3    H148335   6.145   4.795  15.728 -0.3344  1.1830 -0.0181
 8948TIP3    H248336   6.251   4.904  15.725  1.9109 -0.8954  0.0487
 8949TIP3   OH248337   5.177   3.452  15.108  0.1571 -0.0834  0.2041
 8949TIP3    H148338   5.221   3.375  15.072 -0.2957  0.1361 -0.8709
 8949TIP3    H248339   5.100   3.463  15.053 -0.5239  0.3404  1.2055
 8950TIP3   OH248340   4.261   1.774   5.558 -0.3016  0.5084 -0.3077
 8950TIP3    H148341   4.211   1.852   5.533 -3.2915 -1.7765 -2.2295
 8950TIP3    H248342   4.341   1.779   5.506 -0.8363  1.8991 -1.0494
 8951TIP3   OH248343   2.929   2.987   5.406 -0.4450  0.0951 -0.4911
 8951TIP3    H148344   2.937   2.988   5.311  0.6435  2.8276 -0.4545
 8951TIP3    H248345   2.860   3.051   5.425  0.3996  0.7219  0.5937
 8952TIP3   OH248346   6.496   0.693  11.131  0.5049 -0.6282  0.1099
 8952TIP3    H148347   6.452   0.660  11.052  0.3355  0.0755 -0.0930
 8952TIP3    H248348   6.431   0.683  11.200  1.1867 -2.7705  0.5338
 8953TIP3   OH248349   3.564   5.966  14.928  0.1392 -0.1556  0.2567
 8953TIP3    H148350   3.584   6.031  14.995 -1.2129  0.0282  0.5169
 8953TIP3    H248351   3.548   6.017  14.849 -0.2797 -0.2159  0.3004
 8954TIP3   OH248352   2.995   4.539  10.611 -0.5252  0.1831 -0.2927
 8954TIP3    H148353   3.040   4.560  10.692 -0.0969 -1.3507 -0.1171
 8954TIP3    H248354   3.049   4.472  10.569 -0.1177  1.7065 -2.4141
 8955TIP3   OH248355   3.489   5.787  17.444  0.0312 -0.6445  0.3045
 8955TIP3    H148356   3.562   5.836  17.407  0.4831  0.9218  2.9673
 8955TIP3    H248357   3.411   5.831  17.413  0.3891  0.5144  1.0032
 8956TIP3   OH248358   5.646   0.976  16.523  0.6625 -0.5241  0.2137
 8956TIP3    H148359   5.574   0.934  16.476  0.6179 -1.6236  1.2318
 8956TIP3    H248360   5.604   1.050  16.568 -0.0387 -1.6206  1.4494
 8957TIP3   OH248361   4.100   6.109   1.314 -0.2800 -0.0310 -0.4203
 8957TIP3    H148362   4.192   6.082   1.311 -0.4781 -0.6832 -0.7523
 8957TIP3    H248363   4.102   6.195   1.356  0.1678 -1.5353  2.9966
 8958TIP3   OH248364   1.876   0.074  14.589  0.6835 -0.0872  0.2226
 8958TIP3    H148365   1.798   0.098  14.640  0.9276  1.2846 -0.0234
 8958TIP3    H248366   1.949   0.090  14.648  0.7979 -1.5535  0.5145
 8959TIP3   OH248367   1.136   3.867   5.097  0.0783  0.0349 -0.1185
 8959TIP3    H148368   1.196   3.821   5.039  0.1593  1.2092 -1.0150
 8959TIP3    H248369   1.147   3.959   5.074  0.2202  0.5596  1.8866
 8960TIP3   OH248370   1.076   1.136  12.997 -0.3134  0.1258  0.3965
 8960TIP3    H148371   1.125   1.194  12.939  0.8290 -1.1545  0.0285
 8960TIP3    H248372   0.990   1.127  12.956  1.0313 -2.2684 -2.2988
 8961TIP3   OH248373   1.264   2.744   4.596  0.2915 -0.1453 -0.7108
 8961TIP3    H148374   1.200   2.714   4.531 -0.3361  1.2393 -0.7687
 8961TIP3    H248375   1.227   2.825   4.631  0.7504 -0.7184  1.2008
 8962TIP3   OH248376   5.781   0.777  12.943  0.3388 -0.6446  0.0935
 8962TIP3    H148377   5.875   0.764  12.955  0.1832 -1.3013  0.6616
 8962TIP3    H248378   5.740   0.720  13.008 -0.4658 -0.8791 -0.5951
 8963TIP3   OH248379   2.373   4.739  11.922 -0.0374 -0.5409 -0.1968
 8963TIP3    H148380   2.371   4.645  11.904  0.7829 -0.8360  1.1346
 8963TIP3    H248381   2.466   4.763  11.914 -0.1098 -0.0389  0.3933
 8964TIP3   OH248382   1.506   5.906   2.686  0.1148 -0.1453  0.4899
 8964TIP3    H148383   1.530   5.962   2.760  3.4462 -0.0126 -0.5151
 8964TIP3    H248384   1.450   5.960   2.631  0.6922  1.1036  1.0862
 8965TIP3   OH248385   5.528   1.382   6.834 -0.1360  0.2191 -0.2168
 8965TIP3    H148386   5.621   1.364   6.846 -0.3791 -1.8717 -0.9613
 8965TIP3    H248387   5.484   1.303   6.865 -1.5866  0.7388 -0.8433
 8966TIP3   OH248388   3.299   0.244   1.464 -0.3766 -0.4896  0.0018
 8966TIP3    H148389   3.254   0.310   1.412 -0.8396 -1.7239 -1.2254
 8966TIP3    H248390   3.257   0.249   1.550 -0.1679  1.0150  0.0449
 8967TIP3   OH248391   3.213   4.336   0.712 -0.5188  0.1241  0.4673
 8967TIP3    H148392   3.178   4.408   0.764 -0.4119  1.1715 -0.8606
 8967TIP3    H248393   3.308   4.341   0.726 -0.3778  1.1567 -0.7187
 8968TIP3   OH248394   3.911   0.847  14.757 -0.5850 -0.0477  0.1442
 8968TIP3    H148395   3.971   0.813  14.824  1.0784 -0.2071 -1.3629
 8968TIP3    H248396   3.963   0.849  14.677 -3.0406 -1.7093 -1.6269
 8969TIP3   OH248397   2.935   6.482   1.364  0.6574  0.3893 -0.6537
 8969TIP3    H148398   2.873   6.513   1.299  1.0240  1.0165 -0.7169
 8969TIP3    H248399   2.881   6.453   1.437  0.2298 -0.6641 -1.3700
 8970TIP3   OH248400   5.759   6.586  13.080  0.2758 -0.0717  0.5938
 8970TIP3    H148401   5.777   6.594  13.174 -1.0216  0.1503  0.8409
 8970TIP3    H248402   5.844   6.599  13.039  0.8609 -0.1165  1.7368
 8971TIP3   OH248403   6.555   6.365   1.474  0.4900  0.1086 -0.4690
 8971TIP3    H148404   6.583   6.331   1.389 -1.3078 -1.6699 -0.4476
 8971TIP3    H248405   6.607   6.316   1.537  0.4938  0.0553 -0.5129
 8972TIP3   OH248406   6.116   6.757   2.545 -0.0669 -0.2043  0.8839
 8972TIP3    H148407   6.152   6.797   2.466 -1.3938  0.8118  0.7494
 8972TIP3    H248408   6.044   6.702   2.514 -0.6593  0.2730  1.3561
 8973TIP3   OH248409   5.550   6.645   3.972 -0.7434  0.2295  0.2274
 8973TIP3    H148410   5.609   6.715   3.944 -0.2844  0.4446  1.6339
 8973TIP3    H248411   5.511   6.678   4.053  0.9956 -1.8942  2.0578
 8974TIP3   OH248412   4.544   5.210  10.656 -0.0643  0.0511  0.4231
 8974TIP3    H148413   4.523   5.179  10.568 -0.3009 -0.1945  0.5634
 8974TIP3    H248414   4.528   5.304  10.654  2.6058  0.5940 -0.6099
 8975TIP3   OH248415   4.364   5.219   1.612 -0.4828 -0.1882  0.0875
 8975TIP3    H148416   4.286   5.242   1.562  0.6679  1.7977 -0.9168
 8975TIP3    H248417   4.365   5.282   1.685  1.0662  1.0603 -0.9286
 8976TIP3   OH248418   5.570   4.320   0.494 -0.3683 -0.0962 -0.3813
 8976TIP3    H148419   5.563   4.310   0.399  0.4197  1.1539 -0.5893
 8976TIP3    H248420   5.492   4.370   0.519 -0.5118 -0.3176 -0.3829
 8977TIP3   OH248421   0.393   1.191   0.737 -0.2776  0.1781 -0.4903
 8977TIP3    H148422   0.416   1.269   0.686  1.5058  0.0396  0.0566
 8977TIP3    H248423   0.474   1.142   0.744 -1.3499 -1.7195 -0.7402
 8978TIP3   OH248424   6.678   3.231   2.394 -0.7503  0.3892 -0.1687
 8978TIP3    H148425   6.636   3.149   2.369 -1.3299 -0.3452  2.7754
 8978TIP3    H248426   6.763   3.204   2.430 -0.3777  1.2259 -0.3976
 8979TIP3   OH248427   0.649   5.410   0.463  0.3120  0.0563  0.0418
 8979TIP3    H148428   0.590   5.467   0.414  1.0789 -0.2895 -1.3452
 8979TIP3    H248429   0.669   5.338   0.402  1.4356 -0.3087  0.7993
 8980TIP3   OH248430   4.991   3.559  12.136  0.1383 -0.2021  0.2824
 8980TIP3    H148431   4.974   3.596  12.222 -0.1230 -1.1514  0.6552
 8980TIP3    H248432   5.026   3.632  12.085  1.2487  0.1418  1.4795
 8981TIP3   OH248433   0.816   4.465   2.671  0.9461 -0.2200 -0.1263
 8981TIP3    H148434   0.800   4.395   2.608  1.0503 -0.3935  0.0380
 8981TIP3    H248435   0.861   4.422   2.744  0.7274 -0.0468  0.1154
 8982TIP3   OH248436   4.260   5.315   2.517  0.1884  0.1146  0.0546
 8982TIP3    H148437   4.278   5.385   2.454  0.8724  0.2103  0.3568
 8982TIP3    H248438   4.324   5.327   2.587 -1.1131  0.5336  1.2153
 8983TIP3   OH248439   4.991   3.410  15.987  0.3540 -0.0186 -0.6458
 8983TIP3    H148440   5.069   3.462  15.968 -0.6387  2.2498  0.9829
 8983TIP3    H248441   5.022   3.342  16.047  1.2680  0.1783 -0.8757
 8984TIP3   OH248442   0.460   0.252   1.248  0.0009  0.1023 -0.3695
 8984TIP3    H148443   0.549   0.288   1.252 -0.2983  0.7951  0.3204
 8984TIP3    H248444   0.436   0.237   1.339 -0.5660 -0.1390 -0.5559
 8985TIP3   OH248445   0.156   1.865   2.310  0.8541 -0.1775  0.2853
 8985TIP3    H148446   0.115   1.828   2.232  1.5095  1.0369 -0.6623
 8985TIP3    H248447   0.114   1.819   2.383 -1.1678  0.0038 -0.6845
 8986TIP3   OH248448   3.681   2.438  16.163 -0.1670  0.2093 -0.0829
 8986TIP3    H148449   3.618   2.509  16.150 -1.3272 -0.9641 -1.0972
 8986TIP3    H248450   3.766   2.482  16.166 -0.9539  1.7536  0.5372
 8987TIP3   OH248451   3.606   3.867  16.366  0.0961  0.2685  0.4531
 8987TIP3    H148452   3.566   3.782  16.349  0.3955  0.2765 -0.3333
 8987TIP3    H248453   3.554   3.929  16.314  2.1603  0.0453 -2.1098
 8988TIP3   OH248454   5.216   3.048   2.480 -0.2874 -0.3688  0.8707
 8988TIP3    H148455   5.308   3.037   2.454  0.6979  1.2673  3.2330
 8988TIP3    H248456   5.200   2.975   2.539 -1.6291 -2.5024 -1.9632
 8989TIP3   OH248457   2.381   4.879  13.505 -0.0733 -0.4734  0.2978
 8989TIP3    H148458   2.395   4.973  13.517 -1.4218  0.0171 -1.4405
 8989TIP3    H248459   2.468   4.841  13.505  0.6158  1.0204 -0.5375
 8990TIP3   OH248460   1.096   0.910  12.460  0.3494 -0.1670  0.4089
 8990TIP3    H148461   1.013   0.873  12.431  1.3741  0.2564 -3.8614
 8990TIP3    H248462   1.134   0.843  12.517 -2.3275 -0.8721  1.5128
 8991TIP3   OH248463   6.326   3.350   3.524  0.4952 -0.2819  0.0608
 8991TIP3    H148464   6.334   3.444   3.541  1.5538 -0.1801 -0.9457
 8991TIP3    H248465   6.396   3.330   3.463  0.6498 -1.8516  0.7073
 8992TIP3   OH248466   1.330   1.043   5.396 -0.0146 -0.0816 -0.1809
 8992TIP3    H148467   1.294   0.967   5.350 -2.1999  1.3419 -1.0211
 8992TIP3    H248468   1.391   1.081   5.333  2.8667 -2.2684  1.0851
 8993TIP3   OH248469   6.403   5.931  15.110  0.2207  0.6060 -0.4337
 8993TIP3    H148470   6.409   5.854  15.165  1.1001  1.0961  0.1855
 8993TIP3    H248471   6.327   5.915  15.053 -0.1186 -0.3214  0.2648
 8994TIP3   OH248472   3.217   5.902  13.107  0.5964  0.4184 -0.9200
 8994TIP3    H148473   3.128   5.892  13.140  0.4324  1.4711 -1.0159
 8994TIP3    H248474   3.270   5.918  13.185  0.6487  0.1335 -0.8968
 8995TIP3   OH248475   1.444   2.476  12.495  0.5468  0.0976 -0.1730
 8995TIP3    H148476   1.528   2.488  12.450  0.8920 -2.4441 -0.3694
 8995TIP3    H248477   1.383   2.530  12.445  1.6564  0.2923 -1.3826
 8996TIP3   OH248478   4.011   1.017   2.074  0.0050 -0.3971 -0.6439
 8996TIP3    H148479   4.024   0.981   2.161  1.3910 -0.1533 -0.7236
 8996TIP3    H248480   3.975   1.105   2.090 -1.1280 -0.8955 -0.3819
 8997TIP3   OH248481   0.138   5.994   1.918 -0.6704 -0.0485 -0.0446
 8997TIP3    H148482   0.208   6.039   1.965  0.5661 -0.1308 -1.7092
 8997TIP3    H248483   0.174   5.978   1.831 -2.9891  0.4545 -1.1772
 8998TIP3   OH248484   1.807   4.488  14.486 -0.7554 -0.4508  0.1475
 8998TIP3    H148485   1.818   4.430  14.562 -0.3649  0.0850  0.5089
 8998TIP3    H248486   1.817   4.576  14.522  2.6690 -0.2274 -0.9635
 8999TIP3   OH248487   1.459   2.559  16.770 -0.0378 -0.2188  0.2350
 8999TIP3    H148488   1.473   2.468  16.797 -0.7499  0.0564  1.6076
 8999TIP3    H248489   1.515   2.610  16.827  0.1606  0.2394 -0.3563
 9000TIP3   OH248490   3.414   5.836   4.019  0.2860 -0.4900  0.0080
 9000TIP3    H148491   3.462   5.882   4.088  0.0425 -0.4979  0.1788
 9000TIP3    H248492   3.423   5.743   4.041  0.8979 -0.5418 -0.4136
 9001TIP3   OH248493   3.054   5.507   0.531  0.9926 -0.3863 -0.4855
 9001TIP3    H148494   3.009   5.422   0.536 -0.5348  0.4115  0.2152
 9001TIP3    H248495   3.062   5.535   0.622 -1.2386  1.5050 -0.7476
 9002TIP3   OH248496   5.596   5.436  15.317  0.0527 -0.2992 -0.2012
 9002TIP3    H148497   5.598   5.506  15.251  1.7349  0.4047  0.5391
 9002TIP3    H248498   5.686   5.403  15.319 -0.2322 -1.0464  0.9814
 9003TIP3   OH248499   6.390   6.662  16.590  0.6936  0.0782  0.5104
 9003TIP3    H148500   6.337   6.742  16.590 -0.8871 -0.9198  0.4008
 9003TIP3    H248501   6.347   6.605  16.526  0.5772 -1.6005  2.0078
 9004TIP3   OH248502   4.328   0.063  16.226  0.4173  0.7114 -0.1030
 9004TIP3    H148503   4.356   0.079  16.135 -2.0596 -0.3970 -1.1565
 9004TIP3    H248504   4.381  -0.011  16.255  0.7041  0.5915 -0.9098
 9005TIP3   OH248505   3.064   0.578   4.163  0.1274 -0.0210  0.6843
 9005TIP3    H148506   3.147   0.624   4.153 -0.3036  0.3060 -2.1861
 9005TIP3    H248507   3.000   0.634   4.119 -0.9761 -1.8477 -0.1604
 9006TIP3   OH248508   2.875   0.128   0.725  0.5556  0.0190 -0.1509
 9006TIP3    H148509   2.962   0.144   0.688  0.9655  0.1360  0.8316
 9006TIP3    H248510   2.889   0.129   0.819 -0.1213 -2.0808  0.0180
 9007TIP3   OH248511   5.223   6.398  17.365 -0.3989  0.1811 -0.1496
 9007TIP3    H148512   5.316   6.379  17.359 -0.3831  0.1271  0.2080
 9007TIP3    H248513   5.215   6.491  17.342 -0.4260 -0.1442 -1.5139
 9008TIP3   OH248514   6.399   1.262   2.973 -0.1589 -0.3462 -0.0581
 9008TIP3    H148515   6.467   1.201   3.000 -2.3091 -1.8482  2.5317
 9008TIP3    H248516   6.363   1.295   3.056 -2.1522  0.8302 -1.3137
 9009TIP3   OH248517   3.777   0.134   1.736 -0.1591  1.1025 -0.4275
 9009TIP3    H148518   3.746   0.200   1.798  0.9986  0.6557  0.6795
 9009TIP3    H248519   3.739   0.160   1.652 -1.2351  2.1050  0.3279
 9010TIP3   OH248520   4.360   5.756   0.159 -0.5803  0.2772 -0.4432
 9010TIP3    H148521   4.317   5.678   0.124 -1.6573  1.1017 -1.0241
 9010TIP3    H248522   4.416   5.786   0.087 -1.3305  0.8814 -0.7946
 9011TIP3   OH248523   5.214   0.797   1.206 -0.2932  0.7312  0.2043
 9011TIP3    H148524   5.197   0.841   1.289 -1.4058 -0.7346  0.8158
 9011TIP3    H248525   5.189   0.706   1.222  2.3299 -0.2871 -0.8308
 9012TIP3   OH248526   1.285   3.270  15.765 -0.2349 -0.3933 -0.6782
 9012TIP3    H148527   1.279   3.331  15.838  0.6611  1.2560 -1.8928
 9012TIP3    H248528   1.376   3.239  15.766 -0.5580 -1.3781 -0.3554
 9013TIP3   OH248529   1.584   3.958  17.262  0.0835  0.4091  0.1097
 9013TIP3    H148530   1.624   3.887  17.312 -0.2527  1.5737  2.1864
 9013TIP3    H248531   1.654   3.990  17.205  0.8118 -0.3443  0.5603
 9014TIP3   OH248532   4.072   2.479   3.877 -0.1902 -0.0160  0.4368
 9014TIP3    H148533   3.995   2.437   3.915 -0.1933 -1.1638 -0.7599
 9014TIP3    H248534   4.081   2.439   3.790 -0.3775  2.7324 -0.9463
 9015TIP3   OH248535   2.171   1.475   3.810  0.0405 -0.7640 -0.2448
 9015TIP3    H148536   2.185   1.499   3.902  2.2714  1.4798 -1.0432
 9015TIP3    H248537   2.139   1.556   3.770 -0.8133 -1.6936 -1.4841
 9016TIP3   OH248538   1.353   4.775  15.243  0.5678 -0.6297 -0.0995
 9016TIP3    H148539   1.345   4.835  15.318 -1.3168  1.3999 -1.7466
 9016TIP3    H248540   1.323   4.691  15.277 -1.1268  0.4317  1.2619
 9017TIP3   OH248541   4.389   1.268  16.933 -0.1574  0.5537  0.7284
 9017TIP3    H148542   4.408   1.351  16.890  0.4118  0.3425  0.5650
 9017TIP3    H248543   4.410   1.284  17.026  2.7361 -0.1894  0.3266
 9018TIP3   OH248544   2.103   0.191  16.926  0.2137  0.8721 -0.5760
 9018TIP3    H148545   2.092   0.285  16.910  0.2169  0.8142 -0.9240
 9018TIP3    H248546   2.020   0.152  16.899  0.5925  0.6508 -1.4478
 9019TIP3   OH248547   5.759   4.920  17.459 -1.0096  0.1242 -0.3212
 9019TIP3    H148548   5.747   4.945  17.368 -0.3238  2.6512  0.1736
 9019TIP3    H248549   5.845   4.879  17.461 -1.0810 -0.0552 -0.8441
 9020TIP3   OH248550   3.284   2.964   5.164  0.2955 -0.0570  0.3074
 9020TIP3    H148551   3.334   2.972   5.083 -0.6813  2.6979 -0.1279
 9020TIP3    H248552   3.331   3.018   5.228 -0.2270 -0.2727  0.8929
 9021TIP3   OH248553   0.270   5.875   0.933 -0.1835 -0.2947  0.2335
 9021TIP3    H148554   0.356   5.850   0.968 -0.3501  0.1380  0.9696
 9021TIP3    H248555   0.290   5.929   0.856  0.2648  1.3012  1.4093
 9022TIP3   OH248556   3.634   6.032   6.246 -0.1830 -0.0287 -0.4628
 9022TIP3    H148557   3.673   6.010   6.330  0.3768 -0.1825 -0.7593
 9022TIP3    H248558   3.614   6.126   6.253 -1.6586 -0.3794  0.4331
 9023TIP3   OH248559   2.267   5.076   6.229 -0.4275  0.1983 -0.1996
 9023TIP3    H148560   2.345   5.021   6.234 -1.3261 -1.1851 -0.8321
 9023TIP3    H248561   2.265   5.122   6.313 -0.9612 -2.6022  1.4414
 9024TIP3   OH248562   3.055   0.354   3.877  0.1457  0.2021 -0.6259
 9024TIP3    H148563   3.074   0.445   3.855 -1.0289  0.2165 -1.7194
 9024TIP3    H248564   2.981   0.359   3.938 -1.1917 -0.0401 -2.1669
 9025TIP3   OH248565   3.423   0.691  12.025 -0.5116 -0.2452  0.3250
 9025TIP3    H148566   3.446   0.650  12.109 -0.0147 -1.6191 -0.4505
 9025TIP3    H248567   3.460   0.632  11.959  0.5213  1.6380 -0.8654
 9026TIP3   OH248568   2.623   0.691   6.196 -0.1618 -0.1097  0.0110
 9026TIP3    H148569   2.678   0.733   6.262  1.1652 -0.2879 -0.9419
 9026TIP3    H248570   2.620   0.753   6.123 -0.0429 -0.7013 -0.5068
 9027TIP3   OH248571   2.580   1.319  15.219 -0.4858  0.7250 -0.1416
 9027TIP3    H148572   2.500   1.360  15.186 -0.1630  0.4802 -1.3000
 9027TIP3    H248573   2.606   1.259  15.148  0.9670  1.1413  0.0229
 9028TIP3   OH248574   3.903   1.550   0.970 -0.6078  0.3214 -0.3862
 9028TIP3    H148575   3.958   1.625   0.946 -1.2255  0.3919 -1.7132
 9028TIP3    H248576   3.819   1.568   0.927 -1.4799 -0.0885  1.0779
 9029TIP3   OH248577   3.495   6.067   2.314 -0.1181  0.4396 -0.3447
 9029TIP3    H148578   3.407   6.043   2.343 -0.0550  0.4450 -0.1502
 9029TIP3    H248579   3.524   5.992   2.262  0.2899 -0.1524  0.7078
 9030TIP3   OH248580   3.102   3.226  13.334 -0.4806 -0.0203 -0.5591
 9030TIP3    H148581   3.049   3.279  13.275 -0.4137  0.8809  0.1508
 9030TIP3    H248582   3.039   3.182  13.390 -0.5315 -0.5138 -1.0042
 9031TIP3   OH248583   4.263   4.814  13.309  0.2580  0.5206 -0.3716
 9031TIP3    H148584   4.252   4.789  13.218 -0.1303 -1.4412  0.1631
 9031TIP3    H248585   4.187   4.775  13.354 -0.0701  2.2353  0.6600
 9032TIP3   OH248586   1.958   6.456  13.515 -0.7462 -0.0510 -0.0110
 9032TIP3    H148587   1.997   6.542  13.529 -2.7404  0.8230  0.3553
 9032TIP3    H248588   1.975   6.408  13.596  0.7697 -0.2097 -0.3855
 9033TIP3   OH248589   5.521   1.808  15.285 -0.8609  0.3041 -0.0489
 9033TIP3    H148590   5.527   1.809  15.189  0.3565  2.9061 -0.0230
 9033TIP3    H248591   5.550   1.720  15.310 -2.5397 -0.9110 -2.0782
 9034TIP3   OH248592   3.894   1.963   3.402 -0.2421 -0.1579  0.1018
 9034TIP3    H148593   3.966   1.918   3.447  1.5458  0.4923 -1.9210
 9034TIP3    H248594   3.930   2.048   3.378 -1.8547  0.3646 -0.6024
 9035TIP3   OH248595   0.474   2.330   4.173  0.7940 -0.2208 -0.1666
 9035TIP3    H148596   0.543   2.314   4.237  0.2858  1.0456  0.7568
 9035TIP3    H248597   0.520   2.345   4.091  1.5855 -0.0017  0.3047
 9036TIP3   OH248598   5.676   2.837  13.959  0.4333 -0.1949 -0.0218
 9036TIP3    H148599   5.629   2.835  14.043 -1.7557  0.6649 -1.1518
 9036TIP3    H248600   5.643   2.761  13.911 -0.3631  0.7845 -1.0892
 9037TIP3   OH248601   2.973   6.441   4.018  0.1249 -0.4794  0.2170
 9037TIP3    H148602   2.974   6.507   3.950 -1.6655 -0.0565  0.5711
 9037TIP3    H248603   3.018   6.482   4.092  1.1823 -0.5841 -0.3403
 9038TIP3   OH248604   0.304   2.828  13.320  0.2728 -0.1552 -0.0403
 9038TIP3    H148605   0.236   2.893  13.337  0.9960  0.7468 -0.5364
 9038TIP3    H248606   0.272   2.780  13.243 -0.4730 -0.7059  0.5990
 9039TIP3   OH248607   0.953   4.197  13.558  0.2226  0.4720  0.4120
 9039TIP3    H148608   0.968   4.109  13.591 -2.0209  0.3189  1.2463
 9039TIP3    H248609   1.030   4.247  13.585  1.0045 -0.9736  0.9283
 9040TIP3   OH248610   1.537   0.088  10.598  0.0259  0.1041 -0.2335
 9040TIP3    H148611   1.630   0.091  10.620  0.4014  1.3736 -1.8146
 9040TIP3    H248612   1.515   0.179  10.576 -1.3057 -0.3734 -0.9723
 9041TIP3   OH248613   0.887   4.073  13.876 -0.4222  0.0424  0.0986
 9041TIP3    H148614   0.923   4.021  13.804 -0.2216  0.1438  0.1257
 9041TIP3    H248615   0.895   4.016  13.953 -0.2164  0.1098  0.1252
 9042TIP3   OH248616   4.930   3.962  13.261  1.0710 -0.1305 -0.1859
 9042TIP3    H148617   4.922   3.866  13.254  0.0326 -0.0179 -0.7310
 9042TIP3    H248618   4.932   3.979  13.355  0.4817 -0.6366 -0.0741
 9043TIP3   OH248619   5.742   6.187  14.559  0.6942 -0.2055  0.7784
 9043TIP3    H148620   5.686   6.147  14.625 -2.2147  1.4138 -0.5168
 9043TIP3    H248621   5.694   6.265  14.530  2.5303  0.0237 -2.0915
 9044TIP3   OH248622   1.364   5.647   4.159 -0.3685  0.2031  0.3395
 9044TIP3    H148623   1.445   5.612   4.122 -0.6387 -0.0535 -0.0089
 9044TIP3    H248624   1.390   5.730   4.199  0.0608  0.1339  0.2026
 9045TIP3   OH248625   0.678   2.289  17.201  0.1251 -0.0649 -0.0680
 9045TIP3    H148626   0.735   2.262  17.273  1.3335  0.8925 -0.6440
 9045TIP3    H248627   0.737   2.303  17.128 -1.0560 -0.7651 -1.2007
 9046TIP3   OH248628   3.547   3.876  17.443 -0.6159 -0.1416  0.2263
 9046TIP3    H148629   3.533   3.942  17.511 -1.6007  0.3127 -0.3932
 9046TIP3    H248630   3.555   3.927  17.362 -0.4059 -0.7313 -0.1282
 9047TIP3   OH248631   3.330   2.795  11.856 -0.3413  0.1116  1.0142
 9047TIP3    H148632   3.322   2.722  11.916  0.5142 -0.8567 -0.0047
 9047TIP3    H248633   3.401   2.770  11.797 -1.5649  0.6993 -0.8045
 9048TIP3   OH248634   3.276   0.269   2.038  0.2466 -0.0578  0.5343
 9048TIP3    H148635   3.181   0.281   2.037  0.0622 -1.3710 -1.1688
 9048TIP3    H248636   3.294   0.226   2.122 -0.6631  0.0896  0.8139
 9049TIP3   OH248637   1.804   1.420   1.527 -0.4900  0.1375 -0.0502
 9049TIP3    H148638   1.788   1.468   1.609  1.1206  2.2253 -0.8740
 9049TIP3    H248639   1.729   1.441   1.472 -0.7996  0.0076  0.3121
 9050TIP3   OH248640   3.234   5.621   4.504 -0.5812 -0.0610 -0.2523
 9050TIP3    H148641   3.244   5.530   4.474  0.0734 -0.2948  0.6384
 9050TIP3    H248642   3.191   5.613   4.589  0.1964  0.4091  0.1940
 9051TIP3   OH248643   6.427   5.386  12.326  0.0972  0.2298  0.6905
 9051TIP3    H148644   6.479   5.367  12.404 -0.2510  0.0473  0.8818
 9051TIP3    H248645   6.428   5.481  12.319  2.1661  0.1694 -0.4940
 9052TIP3   OH248646   5.999   0.878   3.788  0.1635  0.0252  0.5286
 9052TIP3    H148647   6.070   0.924   3.742  0.6947 -1.3303 -0.0464
 9052TIP3    H248648   6.039   0.796   3.817 -0.8667 -0.2431  1.2432
 9053TIP3   OH248649   6.030   4.158   1.416  0.1941 -0.0493  0.6023
 9053TIP3    H148650   6.104   4.146   1.356  0.4848  0.3285  0.8731
 9053TIP3    H248651   6.066   4.212   1.486 -0.5025  0.6657  0.4238
 9054TIP3   OH248652   0.738   5.144  13.379 -0.3510  0.0377 -0.3285
 9054TIP3    H148653   0.772   5.145  13.469  0.1016 -0.3471 -0.4884
 9054TIP3    H248654   0.650   5.109  13.387  0.1745 -1.3231 -0.1770
 9055TIP3   OH248655   6.571   4.177   0.841 -0.3244  0.2766 -0.3282
 9055TIP3    H148656   6.506   4.158   0.774 -0.5005 -0.8900  0.1419
 9055TIP3    H248657   6.641   4.224   0.795 -1.2395  1.0594 -0.9427
 9056TIP3   OH248658   3.382   0.385   5.935  0.1742 -0.3456 -0.2041
 9056TIP3    H148659   3.473   0.360   5.947  0.1861 -1.1938 -1.7744
 9056TIP3    H248660   3.363   0.443   6.009  1.4159 -1.6047  1.1666
 9057TIP3   OH248661   5.516   6.545   0.917 -0.1799  0.2344 -0.2712
 9057TIP3    H148662   5.587   6.482   0.904 -0.2524  0.5057 -2.2526
 9057TIP3    H248663   5.536   6.617   0.857 -1.3645  0.9987  0.2136
 9058TIP3   OH248664   0.741   3.393   3.414 -0.5256 -0.2360  0.5371
 9058TIP3    H148665   0.798   3.340   3.359 -1.1286  0.4087 -0.7548
 9058TIP3    H248666   0.787   3.477   3.423 -0.1028 -0.5641  1.6315
 9059TIP3   OH248667   5.437   2.204  17.437  0.3130  0.6182  0.1250
 9059TIP3    H148668   5.436   2.291  17.396  0.2017  0.2762 -0.6126
 9059TIP3    H248669   5.349   2.194  17.474 -0.0966  0.3280 -0.8759
 9060TIP3   OH248670   5.416   6.179   1.828  0.5036 -0.7856 -0.1250
 9060TIP3    H148671   5.369   6.133   1.758 -0.2676 -0.1411 -0.0553
 9060TIP3    H248672   5.441   6.263   1.788  0.1804 -0.4726  0.3270
 9061TIP3   OH248673   3.473   1.797  16.447  0.1149  0.7785 -0.0561
 9061TIP3    H148674   3.394   1.848  16.467 -1.0924 -0.4259 -1.4597
 9061TIP3    H248675   3.533   1.859  16.407 -0.9189  1.3490 -0.7776
 9062TIP3   OH248676   4.219   2.920  14.796 -0.1923  0.6071 -0.1121
 9062TIP3    H148677   4.139   2.870  14.812 -0.0169 -1.3041 -4.0828
 9062TIP3    H248678   4.200   2.973  14.719  1.7105  1.8629  0.2037
 9063TIP3   OH248679   5.623   0.869   1.861 -0.5250  0.5430  0.1703
 9063TIP3    H148680   5.642   0.895   1.951 -1.7171 -0.4289  0.7339
 9063TIP3    H248681   5.707   0.840   1.826 -0.4640 -1.4368  1.8030
 9064TIP3   OH248682   1.678   2.061  12.028 -0.7049 -0.1559  0.4856
 9064TIP3    H148683   1.704   1.980  12.073 -3.8437 -1.6783 -0.1811
 9064TIP3    H248684   1.680   2.038  11.935 -1.0298  0.7522  0.2421
 9065TIP3   OH248685   2.440   6.291  15.853 -0.5625  0.0975  0.3533
 9065TIP3    H148686   2.489   6.345  15.915 -2.0532 -0.0290  1.7058
 9065TIP3    H248687   2.487   6.208  15.852 -0.1173  0.3376  0.7712
 9066TIP3   OH248688   6.178   3.996   5.065  0.0669 -0.5233 -0.0676
 9066TIP3    H148689   6.220   3.910   5.071  0.8175 -0.1896 -0.3935
 9066TIP3    H248690   6.240   4.049   5.014 -0.5224  0.1260 -0.1165
 9067TIP3   OH248691   2.534   3.514  17.304  0.2104  0.6493  0.0158
 9067TIP3    H148692   2.488   3.430  17.305 -1.8594  1.7045 -0.6602
 9067TIP3    H248693   2.602   3.503  17.237 -0.9815 -0.0394 -1.1349
 9068TIP3   OH248694   6.685   2.005  13.690  0.4663 -0.3770  0.7243
 9068TIP3    H148695   6.724   1.963  13.767  1.0316 -1.2814 -0.0368
 9068TIP3    H248696   6.603   2.041  13.722  1.2628  0.3449  2.0421
 9069TIP3   OH248697   4.843   6.736  16.714 -0.3338 -0.0862  0.1665
 9069TIP3    H148698   4.928   6.775  16.732 -1.1704  1.1225  1.8304
 9069TIP3    H248699   4.813   6.706  16.800 -2.1566  0.7920 -0.1147
 9070TIP3   OH248700   4.501   4.653  15.034 -0.6281  0.3543  0.5230
 9070TIP3    H148701   4.430   4.639  14.972 -0.0112  0.7415 -0.2852
 9070TIP3    H248702   4.504   4.573  15.086 -0.9114 -0.1239 -0.1866
 9071TIP3   OH248703   1.435   0.997   4.752  0.6329  0.0558 -0.4260
 9071TIP3    H148704   1.464   1.035   4.835 -0.6370  0.2856 -0.0711
 9071TIP3    H248705   1.346   1.028   4.741 -0.6853 -3.1528  0.1114
 9072TIP3   OH248706   0.176   3.844   1.461 -0.1789  0.2210  0.5724
 9072TIP3    H148707   0.265   3.862   1.490  0.1860 -0.4855 -0.0578
 9072TIP3    H248708   0.141   3.929   1.434  1.0907  0.2274 -1.2877
 9073TIP3   OH248709   3.449   2.009   0.026  0.0547 -0.7601  0.2167
 9073TIP3    H148710   3.415   1.920   0.024 -1.7394 -0.0992 -1.0300
 9073TIP3    H248711   3.400   2.055  -0.042  2.8952  0.5156 -1.1548
 9074TIP3   OH248712   0.587   5.706   5.183  0.3943 -0.3728  0.2341
 9074TIP3    H148713   0.554   5.618   5.204  2.2958 -1.1643  0.1530
 9074TIP3    H248714   0.661   5.690   5.125 -0.3159  1.4099 -1.2545
 9075TIP3   OH248715   5.725   1.510  17.086 -0.7538 -0.0146  0.0249
 9075TIP3    H148716   5.740   1.528  16.993  2.8074  0.5927  0.5620
 9075TIP3    H248717   5.704   1.417  17.090 -0.7206 -0.0955 -1.3754
 9076TIP3   OH248718   6.660   1.964  14.840  0.5690  0.0949  0.3889
 9076TIP3    H148719   6.727   1.916  14.793  0.0945  0.1147 -0.3143
 9076TIP3    H248720   6.688   2.056  14.835  0.8583  0.0308  0.7252
 9077TIP3   OH248721   2.531   1.848   2.695  0.5061 -0.4068  0.0091
 9077TIP3    H148722   2.563   1.881   2.779 -0.8675 -1.6021  1.0439
 9077TIP3    H248723   2.537   1.924   2.636 -0.2137  0.9870  1.6492
 9078TIP3   OH248724   1.135   1.327  12.430 -0.4142 -0.2256 -0.5675
 9078TIP3    H148725   1.155   1.415  12.396 -2.1182  1.2058  1.7714
 9078TIP3    H248726   1.078   1.288  12.364 -0.2087  0.7023 -1.3265
 9079TIP3   OH248727   4.007   6.263  12.865 -0.3179 -0.2412  0.1846
 9079TIP3    H148728   3.958   6.280  12.945 -2.9960 -0.5550 -1.2503
 9079TIP3    H248729   3.982   6.336  12.807  0.5167 -0.7134 -0.7983
 9080TIP3   OH248730   3.704   0.765  15.477 -0.2291  0.0047  0.3207
 9080TIP3    H148731   3.757   0.766  15.398 -2.2057  0.5156 -1.0677
 9080TIP3    H248732   3.731   0.685  15.523  0.5935 -0.5746 -1.1080
 9081TIP3   OH248733   3.828   3.806  13.368  1.0288 -0.5796  0.5475
 9081TIP3    H148734   3.757   3.830  13.427 -0.2315 -1.3791 -0.6018
 9081TIP3    H248735   3.815   3.861  13.291  1.1415 -1.3358 -0.0217
 9082TIP3   OH248736   1.197   6.137   4.140 -0.3624  0.4678 -0.0543
 9082TIP3    H148737   1.205   6.074   4.212 -2.1516 -0.6595 -0.7516
 9082TIP3    H248738   1.279   6.186   4.141  1.5550 -2.4874 -0.0035
 9083TIP3   OH248739   0.898   0.219  11.337  0.0179  0.0683  0.5468
 9083TIP3    H148740   0.968   0.267  11.292 -0.2511 -1.1587 -1.2383
 9083TIP3    H248741   0.817   0.256  11.303 -0.1951 -0.4982  0.4284
 9084TIP3   OH248742   4.641   6.398   0.675 -0.3146 -0.4774  0.3330
 9084TIP3    H148743   4.642   6.309   0.641  1.9265 -0.1589 -0.5960
 9084TIP3    H248744   4.684   6.451   0.608 -1.3216  1.2820  0.9893
 9085TIP3   OH248745   1.220   4.649   3.798  0.0010  0.0683  0.0484
 9085TIP3    H148746   1.299   4.682   3.755 -0.0835 -0.0421 -0.1948
 9085TIP3    H248747   1.237   4.660   3.891  0.2314  0.2104 -0.0094
 9086TIP3   OH248748   2.616   5.915  15.579  0.3931 -0.2493 -0.7069
 9086TIP3    H148749   2.706   5.889  15.598  0.0182 -0.9289  0.2510
 9086TIP3    H248750   2.587   5.960  15.659 -0.5074 -1.1470 -0.5050
 9087TIP3   OH248751   3.004   2.121   6.667 -0.3475 -0.4816 -0.4170
 9087TIP3    H148752   2.934   2.081   6.616 -1.5006 -0.4039  1.0339
 9087TIP3    H248753   2.989   2.215   6.659  0.5375 -0.4000 -1.3429
 9088TIP3   OH248754   4.556   5.333  16.118  0.0699  0.2623 -0.2029
 9088TIP3    H148755   4.521   5.246  16.097  1.3618 -0.5026  0.6451
 9088TIP3    H248756   4.575   5.372  16.033  2.1000 -1.4414 -0.6238
 9089TIP3   OH248757   4.612   2.794   1.620 -0.3146 -0.2884  0.3176
 9089TIP3    H148758   4.618   2.829   1.531 -0.7607 -0.3630  0.2553
 9089TIP3    H248759   4.544   2.846   1.662  0.8041  0.6332  1.0491
 9090TIP3   OH248760   4.141   4.722  17.435  0.4834 -0.0847 -0.4282
 9090TIP3    H148761   4.152   4.735  17.529  0.4064  0.1308 -0.4481
 9090TIP3    H248762   4.188   4.640  17.416  1.1258  0.2484 -0.3243
 9091TIP3   OH248763   6.417   2.122   3.434 -0.4658 -0.3834 -0.2513
 9091TIP3    H148764   6.466   2.191   3.389 -1.6594  0.2458 -0.6352
 9091TIP3    H248765   6.422   2.047   3.375 -0.4334 -0.1497 -0.5494
 9092TIP3   OH248766   5.533   1.906  13.865 -0.4697  0.1694  0.1260
 9092TIP3    H148767   5.604   1.875  13.921 -0.8462 -0.0294  0.4960
 9092TIP3    H248768   5.511   1.832  13.810 -1.1131 -0.1198  0.7520
 9093TIP3   OH248769   0.463   0.457  14.796  0.2729  0.3033 -0.4649
 9093TIP3    H148770   0.456   0.484  14.888 -1.2734  0.0068 -0.4700
 9093TIP3    H248771   0.551   0.485  14.770  1.4250 -1.1259  1.5868
 9094TIP3   OH248772   6.201   0.292  11.605  0.3013 -0.4102  0.6058
 9094TIP3    H148773   6.197   0.298  11.700 -1.2833  0.4851  0.5162
 9094TIP3    H248774   6.167   0.376  11.574 -0.3362 -1.1260 -0.7495
 9095TIP3   OH248775   3.211   1.248  15.083  0.3455  0.2090  0.0465
 9095TIP3    H148776   3.263   1.242  15.003  1.0889 -1.8336  0.6258
 9095TIP3    H248777   3.179   1.339  15.084  0.2996  0.2888 -2.5311
 9096TIP3   OH248778   5.297   0.538  11.588 -0.1904 -0.2773 -0.2872
 9096TIP3    H148779   5.313   0.610  11.649 -0.3333  0.8975 -1.5876
 9096TIP3    H248780   5.267   0.580  11.508 -0.1516 -1.7847 -1.1442
 9097TIP3   OH248781   1.063   6.567   4.726 -0.1913 -0.2554 -0.2025
 9097TIP3    H148782   1.050   6.478   4.759 -2.4325  0.5999  1.4935
 9097TIP3    H248783   1.109   6.613   4.797  2.5079 -0.3906 -1.7356
 9098TIP3   OH248784   4.773   3.242   4.900  0.1591 -0.0554 -0.2415
 9098TIP3    H148785   4.815   3.209   4.979 -2.4005 -0.5956  1.0042
 9098TIP3    H248786   4.757   3.334   4.917 -3.0915 -0.7540  1.3203
 9099TIP3   OH248787   0.994   1.311  16.071 -0.3397 -0.2928  0.4769
 9099TIP3    H148788   1.003   1.229  16.120 -1.0832 -0.4764  0.3295
 9099TIP3    H248789   0.931   1.290  16.002  1.3566 -0.3133 -1.1618
 9100TIP3   OH248790   6.532   1.123  15.350  0.4740  0.0783  0.3924
 9100TIP3    H148791   6.601   1.188  15.367  2.3065 -1.3104 -1.1446
 9100TIP3    H248792   6.461   1.173  15.310  1.6099  1.2434 -0.2521
 9101TIP3   OH248793   4.142   2.084   1.587  0.0722  0.0301  0.5407
 9101TIP3    H148794   4.119   2.168   1.627  0.2558 -0.6175  2.1095
 9101TIP3    H248795   4.073   2.024   1.615 -0.4913 -0.2028 -1.2255
 9102TIP3   OH248796   5.603   1.595   2.658 -0.3698 -0.0070  0.0369
 9102TIP3    H148797   5.572   1.624   2.743  0.6308  0.0350  0.4061
 9102TIP3    H248798   5.696   1.574   2.672 -0.1287  0.2280 -1.0891
 9103TIP3   OH248799   6.137   1.041   4.947 -0.2799  0.4124  0.3638
 9103TIP3    H148800   6.132   0.946   4.937 -3.7323  0.3533  1.2521
 9103TIP3    H248801   6.050   1.073   4.920 -0.1435  3.0179  2.4986
 9104TIP3   OH248802   0.355   1.252   2.716 -0.0083 -0.0292 -0.7280
 9104TIP3    H148803   0.390   1.185   2.776 -0.8269  0.8154  0.7662
 9104TIP3    H248804   0.345   1.207   2.633 -0.9097 -1.8928  0.3275
 9105TIP3   OH248805   2.522   6.726  12.004  0.4801  0.3226 -0.1378
 9105TIP3    H148806   2.556   6.683  12.083  1.2272  1.0362 -0.0553
 9105TIP3    H248807   2.526   6.819  12.023  0.9824  0.5257 -1.1356
 9106TIP3   OH248808   0.100   6.421  12.347  0.1950  0.2331 -0.1850
 9106TIP3    H148809   0.184   6.466  12.354  0.5757 -0.6685  1.6251
 9106TIP3    H248810   0.122   6.328  12.344 -0.7127  0.0089 -0.4806
 9107TIP3   OH248811   0.334   2.460   5.101 -0.5938 -0.5165  0.0688
 9107TIP3    H148812   0.424   2.478   5.128  0.0461 -2.3855 -0.6780
 9107TIP3    H248813   0.294   2.419   5.178 -0.2035 -1.4416 -0.2018
 9108TIP3   OH248814   5.224   0.012   0.703 -0.3778 -0.1726  0.0090
 9108TIP3    H148815   5.237  -0.027   0.616  2.1340 -0.6470  0.5252
 9108TIP3    H248816   5.289   0.082   0.708 -0.7965  0.1427  1.3458
 9109TIP3   OH248817   6.121   6.165   1.815 -0.2168 -0.1547  0.3765
 9109TIP3    H148818   6.204   6.206   1.790  0.9702 -2.2846  0.5782
 9109TIP3    H248819   6.060   6.190   1.745  0.6893  1.0715 -0.0111
 9110TIP3   OH248820   3.982   5.218   5.739  0.1432  0.1063 -0.2133
 9110TIP3    H148821   4.007   5.265   5.659  0.8487 -2.6236 -1.7293
 9110TIP3    H248822   4.063   5.209   5.788 -0.1281  1.0200  0.4314
 9111TIP3   OH248823   4.710   6.130   1.223  0.5591 -0.3216  0.1592
 9111TIP3    H148824   4.786   6.105   1.170  1.0760 -0.0144  0.7272
 9111TIP3    H248825   4.643   6.066   1.202  0.5593  0.1236 -1.2853
 9112TIP3   OH248826   5.932   5.840   0.915 -0.7040 -0.4008  0.0520
 9112TIP3    H148827   5.925   5.933   0.935 -1.1819 -0.4989  0.3813
 9112TIP3    H248828   5.992   5.806   0.982  0.7401 -0.0633 -1.0251
 9113TIP3   OH248829   4.025   0.398  13.849  0.2430  0.4306  0.4730
 9113TIP3    H148830   3.958   0.415  13.782  0.0726  1.2825  0.8394
 9113TIP3    H248831   3.978   0.401  13.932  0.5677  0.0552  0.6739
 9114TIP3   OH248832   1.563   1.143   4.960 -0.5081  0.2191  0.4492
 9114TIP3    H148833   1.583   1.206   4.891 -0.4535 -1.2962 -0.9839
 9114TIP3    H248834   1.645   1.096   4.975 -0.9284 -0.5745  0.3396
 9115TIP3   OH248835   5.515   0.847  13.745  0.0508  0.0768 -0.1473
 9115TIP3    H148836   5.507   0.804  13.830  0.4550  1.2602  0.5187
 9115TIP3    H248837   5.432   0.829  13.701  0.4986 -1.9936 -0.2231
 9116TIP3   OH248838   3.293   1.389   6.265 -0.2980  0.1274 -0.4516
 9116TIP3    H148839   3.315   1.482   6.260  0.7312 -0.0223  0.8658
 9116TIP3    H248840   3.226   1.385   6.333  2.2722 -0.4486  2.2494
 9117TIP3   OH248841   0.906   2.715   1.316  0.3521 -0.4459 -0.6554
 9117TIP3    H148842   0.984   2.732   1.367 -0.5458 -0.3362  0.7287
 9117TIP3    H248843   0.918   2.626   1.282  0.4753 -0.9714  0.7150
 9118TIP3   OH248844   5.538   6.581   5.591 -0.5475  0.1227  0.2891
 9118TIP3    H148845   5.451   6.619   5.577 -1.7452 -2.4723  0.1818
 9118TIP3    H248846   5.566   6.553   5.504 -0.4516 -0.7041  0.5739
 9119TIP3   OH248847   5.010   1.674   4.778  0.7897  0.2010  0.6457
 9119TIP3    H148848   5.076   1.618   4.818  2.9386  2.2247  0.0982
 9119TIP3    H248849   4.959   1.708   4.853  0.4490 -1.2249  1.0818
 9120TIP3   OH248850   6.369   3.409  12.657 -0.9822 -0.0880 -0.1921
 9120TIP3    H148851   6.297   3.357  12.622 -0.2382 -0.5418 -1.0863
 9120TIP3    H248852   6.404   3.455  12.581  0.0198 -0.3015  0.1272
 9121TIP3   OH248853   1.061   5.909  16.257  0.1560 -0.0811 -0.2610
 9121TIP3    H148854   1.114   5.835  16.287  0.9063  1.2673  2.0378
 9121TIP3    H248855   1.033   5.885  16.169  1.6323 -2.4052 -0.1800
 9122TIP3   OH248856   6.494   1.941  16.076 -0.0912  1.1212  0.1433
 9122TIP3    H148857   6.587   1.955  16.089  0.1817 -0.0831 -0.4433
 9122TIP3    H248858   6.488   1.860  16.026 -1.4519  1.1892  0.1560
 9123TIP3   OH248859   2.967   2.425   4.935  0.4398  0.0129  0.3423
 9123TIP3    H148860   2.973   2.432   5.030  2.0648 -0.8789  0.3569
 9123TIP3    H248861   2.946   2.514   4.905 -2.1869 -0.0985  1.6016
 9124TIP3   OH248862   5.450   3.181  16.392  0.2351 -0.0022  0.4616
 9124TIP3    H148863   5.446   3.160  16.299  0.1061  0.4200  0.3674
 9124TIP3    H248864   5.359   3.177  16.421  0.1605  0.7524  0.3600
 9125TIP3   OH248865   3.999   0.087  14.377 -0.2337 -0.0796 -0.6578
 9125TIP3    H148866   3.924   0.069  14.321 -0.7768  1.5241 -0.4974
 9125TIP3    H248867   3.970   0.157  14.435  0.5707 -1.1615  1.1327
 9126TIP3   OH248868   6.304   5.655   3.049 -0.1624  0.0149 -0.3490
 9126TIP3    H148869   6.231   5.714   3.034 -0.4666  0.0337  1.0516
 9126TIP3    H248870   6.284   5.613   3.133  2.6733  2.0347  1.5267
 9127TIP3   OH248871   4.592   4.965  11.388 -0.2664  0.6372  0.0559
 9127TIP3    H148872   4.573   4.875  11.362 -0.0135  0.8302 -0.7930
 9127TIP3    H248873   4.583   4.964  11.484 -0.8538 -0.1472  0.0017
 9128TIP3   OH248874   1.525   3.118   1.544  0.1282  0.4494  0.9662
 9128TIP3    H148875   1.618   3.102   1.525 -0.6113 -0.1024 -3.2121
 9128TIP3    H248876   1.507   3.202   1.501 -1.6195 -0.3090  0.1047
 9129TIP3   OH248877   0.777   4.162   6.276 -0.7504 -0.3460  0.2356
 9129TIP3    H148878   0.763   4.076   6.315 -0.5410 -1.4701 -1.9759
 9129TIP3    H248879   0.871   4.179   6.289 -0.9559 -0.0422  1.4048
 9130TIP3   OH248880   0.328   0.837  12.133  0.2352 -0.0658  0.4981
 9130TIP3    H148881   0.393   0.828  12.064 -2.1202 -0.0840 -1.9114
 9130TIP3    H248882   0.247   0.858  12.086 -1.7117 -0.9802  3.2145
 9131TIP3   OH248883   3.157   4.173   5.227 -0.1665  0.0215  0.6083
 9131TIP3    H148884   3.150   4.189   5.321 -0.3478 -0.5007  0.6867
 9131TIP3    H248885   3.219   4.239   5.196 -0.6265  0.6470  0.9758
 9132TIP3   OH248886   3.012   3.684   5.790  0.0195  0.3095  0.1158
 9132TIP3    H148887   2.939   3.675   5.851  0.6421 -0.1032  0.8097
 9132TIP3    H248888   3.068   3.608   5.807  0.0005 -0.0492 -1.2589
 9133TIP3   OH248889   5.159   0.136  14.695 -0.2854  0.0458  0.0418
 9133TIP3    H148890   5.179   0.225  14.667  0.3596 -0.0982  0.0267
 9133TIP3    H248891   5.064   0.129  14.687 -0.3064  0.6258 -0.2679
 9134TIP3   OH248892   3.819   1.118  14.154 -0.2943 -0.0937 -0.3286
 9134TIP3    H148893   3.885   1.097  14.220  0.8338  0.3975 -1.2671
 9134TIP3    H248894   3.739   1.076  14.185  0.2864 -0.1280  1.1855
 9135TIP3   OH248895   1.931   2.513   3.706  0.2232  0.3997  0.0579
 9135TIP3    H148896   1.999   2.450   3.730 -0.8562 -0.0682  2.0441
 9135TIP3    H248897   1.927   2.573   3.780 -1.3413  0.5763 -0.1436
 9136TIP3   OH248898   1.485   0.006  11.947 -0.2508 -0.2385 -0.1393
 9136TIP3    H148899   1.535  -0.015  12.026  2.3953 -0.3501 -1.7044
 9136TIP3    H248900   1.468  -0.079  11.906 -0.9965 -0.1319 -0.0670
 9137TIP3   OH248901   1.015   4.696  17.331  0.1535 -0.1301 -0.1649
 9137TIP3    H148902   1.008   4.635  17.405 -0.4180  0.5381  0.3515
 9137TIP3    H248903   1.105   4.727  17.333  0.1022 -0.0011  0.3631
 9138TIP3   OH248904   6.273   4.826   6.208 -0.2580 -0.0088  0.0692
 9138TIP3    H148905   6.319   4.904   6.239  2.3322 -2.1007  1.8816
 9138TIP3    H248906   6.202   4.813   6.270 -1.5708  1.5397 -1.0085
 9139TIP3   OH248907   3.236   4.365  13.696  0.0224  0.1806 -0.1749
 9139TIP3    H148908   3.219   4.393  13.786  0.9486 -1.0783  0.4222
 9139TIP3    H248909   3.164   4.403  13.645 -0.6290  0.7475  1.1208
 9140TIP3   OH248910   0.510   5.989  11.842  0.5306  0.2631  0.0184
 9140TIP3    H148911   0.507   6.037  11.759  1.3968  1.4087  0.6185
 9140TIP3    H248912   0.491   6.055  11.909  1.9502 -0.1536  0.8837
 9141TIP3   OH248913   2.122   3.860   0.718 -0.2037  0.0096  0.1257
 9141TIP3    H148914   2.132   3.926   0.787 -0.6640 -0.3740  0.5691
 9141TIP3    H248915   2.167   3.898   0.642  3.3359 -0.9709  1.5193
 9142TIP3   OH248916   4.626   3.951  14.154 -0.0964  0.2849  0.3276
 9142TIP3    H148917   4.664   4.026  14.200  0.9798  0.2822 -0.5203
 9142TIP3    H248918   4.698   3.916  14.102 -1.4312  0.7244 -1.9450
 9143TIP3   OH248919   4.746   2.385  13.696 -0.3276  0.7283 -0.4400
 9143TIP3    H148920   4.688   2.330  13.750  0.4255  1.3756  1.0728
 9143TIP3    H248921   4.694   2.404  13.618 -0.9261 -1.4260 -0.6388
 9144TIP3   OH248922   4.000   2.568  11.482  0.1182  0.0791  0.0685
 9144TIP3    H148923   4.000   2.661  11.458 -1.0857  0.3249  0.9347
 9144TIP3    H248924   4.018   2.567  11.575 -1.0987 -0.4552  0.3245
 9145TIP3   OH248925   2.070   6.754   5.188 -0.0580 -0.3454  0.0455
 9145TIP3    H148926   2.000   6.690   5.177  0.3746 -0.8090 -0.0226
 9145TIP3    H248927   2.079   6.764   5.283 -0.6264  0.1729  0.0514
 9146TIP3   OH248928   3.168   5.045  16.215  0.4719  0.1266 -0.7573
 9146TIP3    H148929   3.172   5.054  16.310  1.0813 -0.3677 -0.7262
 9146TIP3    H248930   3.100   5.107  16.188 -0.7408 -0.7460  0.1335
 9147TIP3   OH248931   0.344   6.758   0.948 -0.3341 -0.0960  0.3791
 9147TIP3    H148932   0.287   6.816   0.998 -1.1147 -1.2427  0.8671
 9147TIP3    H248933   0.301   6.673   0.952  0.4685 -0.5912 -0.8201
 9148TIP3   OH248934   6.144   0.535   4.147 -0.2658 -0.4860 -0.1294
 9148TIP3    H148935   6.099   0.455   4.122 -2.3193  0.0970  1.4461
 9148TIP3    H248936   6.230   0.505   4.178 -0.1626 -1.8074 -1.5634
 9149TIP3   OH248937   5.152   2.076  14.398  0.1056  0.2188 -0.1626
 9149TIP3    H148938   5.061   2.105  14.402  0.1373  0.2274  1.3512
 9149TIP3    H248939   5.154   2.010  14.329 -0.9455  0.5304 -0.5141
 9150TIP3   OH248940   5.076   4.274   3.952 -0.0212  0.0168  0.0359
 9150TIP3    H148941   5.023   4.345   3.989 -0.4386 -1.0129  1.4944
 9150TIP3    H248942   5.017   4.199   3.948  0.9665 -0.8027  0.4558
 9151TIP3   OH248943   5.014   5.151   5.014 -0.1520  0.0188  0.0283
 9151TIP3    H148944   5.071   5.173   5.087 -1.3057 -1.5930  1.5075
 9151TIP3    H248945   4.945   5.218   5.016 -1.2244 -1.0451  1.7092
 9152TIP3   OH248946   3.791   0.427   1.355 -0.3818 -0.6639 -0.9008
 9152TIP3    H148947   3.879   0.388   1.363 -1.0452 -1.8665  1.3218
 9152TIP3    H248948   3.783   0.447   1.261  3.0762  1.5921 -0.9220
 9153TIP3   OH248949   4.414   4.221   6.204  0.4571 -0.2743  0.5044
 9153TIP3    H148950   4.357   4.152   6.236  0.0579 -0.6054 -0.8583
 9153TIP3    H248951   4.492   4.215   6.259 -0.4639 -0.3530  1.8394
 9154TIP3   OH248952   4.880   0.983   1.368  0.0046  0.0666 -0.0332
 9154TIP3    H148953   4.905   1.066   1.408  2.2709 -0.0354 -1.0714
 9154TIP3    H248954   4.809   1.005   1.308 -0.8676  0.8435  1.2411
 9155TIP3   OH248955   1.569   4.139   5.024 -0.0314 -0.2662  0.0495
 9155TIP3    H148956   1.654   4.105   4.997  1.1754  2.3962  0.1749
 9155TIP3    H248957   1.515   4.061   5.038  2.1886 -2.0188 -0.5798
 9156TIP3   OH248958   0.268   5.622   3.297 -0.2536 -0.8316 -0.5129
 9156TIP3    H148959   0.323   5.577   3.233 -0.1288  0.6639 -1.4982
 9156TIP3    H248960   0.192   5.653   3.247 -0.0345  0.5767 -0.0212
 9157TIP3   OH248961   2.908   5.853  11.327 -0.0431 -0.5921  0.1178
 9157TIP3    H148962   2.834   5.907  11.357  0.8741  0.1635  1.0870
 9157TIP3    H248963   2.879   5.819  11.242 -1.6196 -0.5534  0.6018
 9158TIP3   OH248964   4.371   2.978   6.009 -0.1931  0.0880 -0.5529
 9158TIP3    H148965   4.400   3.065   5.981  0.5876 -0.2843 -0.9419
 9158TIP3    H248966   4.337   2.991   6.097 -1.6993  1.1010 -1.2304
 9159TIP3   OH248967   2.989   5.340  10.911  0.1331 -0.2795  0.2474
 9159TIP3    H148968   3.083   5.360  10.913  0.4795 -1.7696  0.0526
 9159TIP3    H248969   2.948   5.412  10.958  1.5683 -0.5675  2.0522
 9160TIP3   OH248970   4.510   1.311   6.397  0.1775 -0.2284 -0.5487
 9160TIP3    H148971   4.587   1.326   6.453  0.0365 -0.0037 -0.4160
 9160TIP3    H248972   4.475   1.227   6.428  0.5300 -0.4736 -0.7969
 9161TIP3   OH248973   3.734   1.720   2.645  0.3888  0.0888 -0.0958
 9161TIP3    H148974   3.807   1.663   2.621  1.2849  0.0891  2.2830
 9161TIP3    H248975   3.716   1.771   2.567  3.3757  0.5333 -0.6191
 9162TIP3   OH248976   1.011   4.914  11.415  0.1126  0.4797  0.4212
 9162TIP3    H148977   1.032   4.910  11.509  0.3980  1.7386  0.4342
 9162TIP3    H248978   0.926   4.957  11.412 -0.1151  0.0061  0.1247
 9163TIP3   OH248979   1.817   2.346  11.532  0.0076 -0.0251 -0.0244
 9163TIP3    H148980   1.841   2.299  11.453 -0.1447  0.4351 -0.3519
 9163TIP3    H248981   1.782   2.429  11.500  1.5450  0.8960  0.5859
 9164TIP3   OH248982   5.883   2.269  14.022  0.2870 -0.1923 -0.8382
 9164TIP3    H148983   5.883   2.359  13.990 -0.8477 -0.9217 -3.1116
 9164TIP3    H248984   5.902   2.216  13.944  0.2799 -1.9686  0.3020
 9165TIP3   OH248985   1.162   3.286  14.978 -0.4219  0.3568  0.0237
 9165TIP3    H148986   1.191   3.294  14.888  2.2036 -0.0403  0.7551
 9165TIP3    H248987   1.178   3.194  15.001 -0.3208  0.6195  1.0935
 9166TIP3   OH248988   6.525   6.135   0.344 -0.3770 -0.0029  1.0083
 9166TIP3    H148989   6.494   6.045   0.338  1.6928 -0.8444  1.9911
 9166TIP3    H248990   6.470   6.184   0.283 -0.4809 -2.2171 -0.7823
 9167TIP3   OH248991   6.343   2.523  16.909  0.3709 -0.6672  0.8939
 9167TIP3    H148992   6.437   2.526  16.895  0.1121  0.2139 -0.9927
 9167TIP3    H248993   6.309   2.600  16.863 -1.3933 -1.8354  0.1139
 9168TIP3   OH248994   1.808   5.630  12.847 -0.0314 -0.3148 -0.0841
 9168TIP3    H148995   1.898   5.662  12.852  0.5513 -1.3490 -2.4765
 9168TIP3    H248996   1.756   5.708  12.829  0.6218  0.0861 -0.2893
 9169TIP3   OH248997   1.847   3.496  16.813 -0.2578 -0.5014  0.0344
 9169TIP3    H148998   1.938   3.517  16.792 -0.7501 -0.5378 -2.3977
 9169TIP3    H248999   1.839   3.518  16.906  2.4665 -1.4169  0.6019
 9170TIP3   OH249000   2.458   1.584  13.569  0.4319 -0.2176  0.9875
 9170TIP3    H149001   2.424   1.633  13.644  0.9757  0.5377  0.7625
 9170TIP3    H249002   2.436   1.493  13.587 -0.8061  0.1345  1.3125
 9171TIP3   OH249003   1.472   5.499  17.010  0.2864 -0.2004 -0.0743
 9171TIP3    H149004   1.470   5.593  17.022  0.8749  0.4403 -3.7144
 9171TIP3    H249005   1.436   5.463  17.091 -1.1445  3.1706  0.9578
 9172TIP3   OH249006   5.153   0.273   4.224 -0.3501 -0.3351 -0.3298
 9172TIP3    H149007   5.162   0.363   4.191 -0.6279 -1.0573 -2.4883
 9172TIP3    H249008   5.147   0.284   4.319 -0.2089  1.9159 -0.5164
 9173TIP3   OH249009   0.773   5.491   5.879 -0.5495  0.1166 -0.4223
 9173TIP3    H149010   0.748   5.468   5.969 -1.3142  0.6266 -0.4916
 9173TIP3    H249011   0.744   5.582   5.869  0.5093  0.4283 -0.8340
 9174TIP3   OH249012   2.738   1.456   3.181  0.1875 -0.0426  0.3787
 9174TIP3    H149013   2.746   1.541   3.138 -0.3041 -0.7720 -1.2552
 9174TIP3    H249014   2.766   1.394   3.114  1.9516 -1.1010  1.9996
 9175TIP3   OH249015   2.059   1.353  14.595  0.0607 -0.6067  0.4423
 9175TIP3    H149016   2.127   1.356  14.528 -0.3776  0.0525  0.0111
 9175TIP3    H249017   2.060   1.263  14.628  0.1430 -0.9906 -0.5957
 9176TIP3   OH249018   4.226   3.182  14.660  0.6126 -0.2025 -0.1331
 9176TIP3    H149019   4.161   3.195  14.591  0.0882  0.0814  0.4089
 9176TIP3    H249020   4.284   3.114  14.625  0.3001 -0.1342 -0.8113
 9177TIP3   OH249021   5.991   6.302   0.420  0.4429 -0.2924 -0.1650
 9177TIP3    H149022   5.923   6.236   0.411  1.2550 -1.2736  0.7319
 9177TIP3    H249023   6.012   6.303   0.514 -1.3542  3.0880  0.3835
 9178TIP3   OH249024   5.330   2.011  14.028 -0.1272  0.1561  0.3912
 9178TIP3    H149025   5.321   2.075  13.957  2.2111  2.0556  1.6535
 9178TIP3    H249026   5.399   1.952  13.999 -0.9016 -0.5954  0.0612
 9179TIP3   OH249027   3.404   5.519   6.066  0.2215  0.4260  0.3792
 9179TIP3    H149028   3.441   5.435   6.091  1.2417  1.2816  1.9038
 9179TIP3    H249029   3.385   5.511   5.973  2.7566 -0.6026 -0.1051
 9180TIP3   OH249030   3.022   4.791   5.175 -0.3724 -0.0688  0.2344
 9180TIP3    H149031   2.950   4.755   5.225  0.4667 -0.5159  1.1524
 9180TIP3    H249032   3.022   4.742   5.093 -0.2601 -1.0391  0.8001
 9181TIP3   OH249033   6.066   2.346   2.162  0.1209  0.1989  0.0677
 9181TIP3    H149034   6.105   2.393   2.088  0.3031  0.0819  0.0893
 9181TIP3    H249035   5.981   2.317   2.129  0.3785 -0.2276 -0.2461
 9182TIP3   OH249036   4.370   4.101  14.173 -0.5535 -0.3334  0.3983
 9182TIP3    H149037   4.441   4.136  14.118 -1.1049  0.4136  0.1490
 9182TIP3    H249038   4.412   4.082  14.257  0.0613 -0.4402  0.0730
 9183TIP3   OH249039   0.941   4.640   1.152  0.6363 -0.6638  0.1295
 9183TIP3    H149040   0.878   4.685   1.095  0.7437 -0.7206 -0.0344
 9183TIP3    H249041   0.911   4.549   1.154  0.5409 -0.6310  0.2931
 9184TIP3   OH249042   3.950   1.723  14.454 -0.3590 -0.5034 -0.6917
 9184TIP3    H149043   3.891   1.651  14.474 -0.6581 -0.1496 -0.2971
 9184TIP3    H249044   3.895   1.790  14.413 -0.0307 -0.6098 -1.3297
 9185TIP3   OH249045   2.138   2.970  16.391  0.1185  0.5291  0.2522
 9185TIP3    H149046   2.061   2.970  16.336 -1.0841 -1.2692  1.8002
 9185TIP3    H249047   2.109   2.932  16.474  3.0223 -1.9511  0.3190
 9186TIP3   OH249048   1.296   0.312   5.953 -0.9649 -0.6512 -0.3345
 9186TIP3    H149049   1.261   0.269   6.031 -0.3237 -0.7132 -0.0729
 9186TIP3    H249050   1.222   0.361   5.917 -0.9750  0.3408  0.9740
 9187TIP3   OH249051   4.262   3.588   1.565 -0.1979 -0.2725  0.0910
 9187TIP3    H149052   4.314   3.571   1.644  2.0222 -0.0901 -1.2545
 9187TIP3    H249053   4.293   3.523   1.502  0.3507  1.5418 -1.5856
 9188TIP3   OH249054   6.673   5.975   1.566  0.2724  0.2340 -0.1591
 9188TIP3    H149055   6.714   5.898   1.525  2.3043  1.1838 -0.0471
 9188TIP3    H249056   6.654   5.948   1.655 -0.3264 -0.5590 -0.5154
 9189TIP3   OH249057   4.170   4.314   5.603 -0.0974  0.2834  0.3816
 9189TIP3    H149058   4.183   4.286   5.513 -2.2300  2.1736 -0.6065
 9189TIP3    H249059   4.091   4.268   5.631  0.0043  0.4538  0.9602
 9190TIP3   OH249060   3.077   2.831   2.755  0.3816  0.6968 -0.6237
 9190TIP3    H149061   3.116   2.820   2.842 -0.9251 -0.5131 -0.1573
 9190TIP3    H249062   3.093   2.748   2.711 -1.0107  0.4295 -0.6683
 9191TIP3   OH249063   4.650   4.813  15.226 -0.4363 -0.1774  0.0501
 9191TIP3    H149064   4.585   4.784  15.162 -1.1627  0.5184  0.4505
 9191TIP3    H249065   4.647   4.909  15.221 -2.5937  0.0675  3.0623
 9192TIP3   OH249066   4.107   5.929   5.525  0.0656  0.2246  0.0075
 9192TIP3    H149067   4.093   5.929   5.619  1.4944  1.7740  0.2572
 9192TIP3    H249068   4.038   5.987   5.491  0.5797  1.0238  0.3008
 9193TIP3   OH249069   5.804   0.993   2.937 -0.6327 -0.7747 -0.0900
 9193TIP3    H149070   5.798   1.064   2.873 -0.5362 -0.4353  0.2715
 9193TIP3    H249071   5.889   0.953   2.921 -0.9154 -1.1685 -0.6593
 9194TIP3   OH249072   4.608   1.353  13.883  0.0573 -0.1380  0.2576
 9194TIP3    H149073   4.564   1.277  13.845 -0.8155  0.2244  0.4984
 9194TIP3    H249074   4.691   1.320  13.917 -0.2660 -0.9560  0.2608
 9195TIP3   OH249075   1.713   0.976  11.764  0.2354 -0.1411  0.0246
 9195TIP3    H149076   1.747   0.977  11.854  1.4432  0.4841 -0.4181
 9195TIP3    H249077   1.646   1.044  11.763 -0.9332 -1.2120  0.8375
 9196TIP3   OH249078   5.211   6.195   4.577  0.0947  0.0932  0.5170
 9196TIP3    H149079   5.133   6.140   4.567 -0.7503  1.2622  0.3844
 9196TIP3    H249080   5.177   6.278   4.611  1.2804  0.6441  0.4125
 9197TIP3   OH249081   0.675   0.317   3.720 -0.7692  0.2020 -0.0903
 9197TIP3    H149082   0.674   0.396   3.775 -3.0266 -0.7519  1.3807
 9197TIP3    H249083   0.584   0.305   3.694 -0.5442 -2.0901  0.0050
 9198TIP3   OH249084   0.152   5.027  15.244  0.0200 -0.0726  0.5916
 9198TIP3    H149085   0.193   5.113  15.236 -3.1050  1.3738 -1.3716
 9198TIP3    H249086   0.140   5.015  15.338 -1.4516  2.7334  0.8675
 9199TIP3   OH249087   1.750   2.988   4.829  0.0816  0.0575 -0.2205
 9199TIP3    H149088   1.789   2.970   4.914 -0.1358  1.1989  0.1374
 9199TIP3    H249089   1.717   2.903   4.799 -0.6217 -0.2123  1.2295
 9200TIP3   OH249090   5.612   0.987   2.142  0.0715 -0.4540  0.4186
 9200TIP3    H149091   5.646   0.898   2.154 -1.8045 -1.3387 -0.3131
 9200TIP3    H249092   5.588   1.016   2.230  0.7759 -0.6226  0.6709
 9201TIP3   OH249093   4.852   1.932  15.404 -0.4412  0.1968 -0.2490
 9201TIP3    H149094   4.827   1.840  15.405  0.1187  0.0231 -1.3773
 9201TIP3    H249095   4.824   1.964  15.318 -1.4729  1.3322  0.4678
 9202TIP3   OH249096   4.502   4.210  15.058  0.2244  0.4409  0.7190
 9202TIP3    H149097   4.539   4.282  15.108 -1.4683  1.5743  0.4173
 9202TIP3    H249098   4.577   4.169  15.016  1.2503  1.8806  1.0844
 9203TIP3   OH249099   4.565   3.969   2.832  0.2590  0.0444 -0.7424
 9203TIP3    H149100   4.526   3.882   2.816 -0.7015 -0.1764  2.2377
 9203TIP3    H249101   4.507   4.029   2.785  1.4924 -0.8577 -3.7026
 9204TIP3   OH249102   3.643   5.495   5.108 -0.3936  0.2441 -0.0171
 9204TIP3    H149103   3.651   5.416   5.161  1.2659  0.7917  0.6372
 9204TIP3    H249104   3.667   5.466   5.020  0.5996  0.0548  0.2917
 9205TIP3   OH249105   4.128   4.768   2.796 -0.7909 -0.3388  0.6281
 9205TIP3    H149106   4.041   4.730   2.781 -0.8746 -0.6746  1.8770
 9205TIP3    H249107   4.110   4.856   2.828 -0.6309  0.0863 -0.4158
 9206TIP3   OH249108   0.740   2.388  14.061 -0.2692 -0.0234  0.3046
 9206TIP3    H149109   0.768   2.348  13.979 -0.4207 -0.8810  0.6634
 9206TIP3    H249110   0.700   2.316  14.110 -1.6874  0.8301  0.4480
 9207TIP3   OH249111   5.375   2.407   2.841  0.2701 -0.8351 -0.0215
 9207TIP3    H149112   5.421   2.353   2.777  1.6351  0.5316 -0.2330
 9207TIP3    H249113   5.443   2.462   2.880 -0.9239  0.0572  0.8737
 9208TIP3   OH249114   0.560   6.651  12.043 -0.1243 -0.0988  0.0899
 9208TIP3    H149115   0.569   6.732  12.092 -0.2818  0.5143 -0.8700
 9208TIP3    H249116   0.646   6.610  12.048 -0.1716 -0.0941  0.9549
 9209TIP3   OH249117   0.762   3.679  11.898 -0.2076 -0.2719  0.3947
 9209TIP3    H149118   0.790   3.743  11.963  2.5633 -0.3080 -0.6212
 9209TIP3    H249119   0.681   3.715  11.862  1.2209  2.7303 -0.1454
 9210TIP3   OH249120   6.456   5.725  11.388 -0.2708  0.3748  0.3794
 9210TIP3    H149121   6.464   5.650  11.447 -0.5714  0.2799  0.3016
 9210TIP3    H249122   6.510   5.793  11.428 -1.7651  0.8727  1.6578
 9211TIP3   OH249123   1.773   0.684  16.628 -0.1377 -0.1869  0.0090
 9211TIP3    H149124   1.838   0.732  16.578  0.0288 -0.2685  0.1426
 9211TIP3    H249125   1.758   0.604  16.578 -0.8459  0.2588 -0.5116
 9212TIP3   OH249126   3.666   0.441   3.536  0.0035  0.6586  0.0978
 9212TIP3    H149127   3.666   0.467   3.444 -0.9795  2.2393  0.4922
 9212TIP3    H249128   3.573   0.429   3.557  0.3146 -1.5329  0.4428
 9213TIP3   OH249129   3.624   3.527   5.990 -0.2680 -0.2570 -0.0087
 9213TIP3    H149130   3.691   3.563   5.931 -0.4199  0.9253  0.5062
 9213TIP3    H249131   3.549   3.510   5.934 -0.6670  1.5468 -0.0827
 9214TIP3   OH249132   0.322   2.769   0.110  0.5351  0.0540 -0.5453
 9214TIP3    H149133   0.377   2.816   0.048  0.6972  1.5259  0.6800
 9214TIP3    H249134   0.383   2.724   0.168  0.3900 -0.5637 -0.8563
 9215TIP3   OH249135   1.594   4.525   5.763  0.6543  0.6002 -0.1015
 9215TIP3    H149136   1.619   4.434   5.748 -0.9931  0.1711 -0.4516
 9215TIP3    H249137   1.677   4.573   5.764  1.4561 -0.6899 -1.3806
 9216TIP3   OH249138   5.428   0.181   3.523 -0.0171  0.2527 -0.3490
 9216TIP3    H149139   5.345   0.228   3.525  0.3017  0.8970 -1.5371
 9216TIP3    H249140   5.494   0.248   3.506  1.0311  0.0557  2.4251
 9217TIP3   OH249141   0.304   5.667   6.443 -0.0892  0.2431  0.3506
 9217TIP3    H149142   0.245   5.719   6.389 -0.7854  0.3812  1.2204
 9217TIP3    H249143   0.357   5.618   6.380  0.1847  1.5485 -0.4758
 9218TIP3   OH249144   5.320   0.164  11.872  0.3773  0.3465 -0.1374
 9218TIP3    H149145   5.273   0.214  11.939  0.8078 -0.7606  1.0288
 9218TIP3    H249146   5.338   0.228  11.803 -1.3734  1.1783  0.1159
 9219TIP3   OH249147   5.351   3.836   5.615 -0.2495 -0.5086 -0.0739
 9219TIP3    H149148   5.287   3.895   5.654  0.3134 -0.6672  1.1192
 9219TIP3    H249149   5.309   3.750   5.618 -0.0297 -0.5938  0.6008
 9220TIP3   OH249150   0.468   2.758  15.740  0.7339 -0.1792 -0.4682
 9220TIP3    H149151   0.528   2.744  15.813 -1.3830  1.8333  1.8386
 9220TIP3    H249152   0.403   2.688  15.748  0.8173 -0.2908 -0.7704
 9221TIP3   OH249153   4.411   3.759   2.785  0.5399 -0.5765  0.9454
 9221TIP3    H149154   4.376   3.744   2.697 -1.1884 -0.6933  1.6073
 9221TIP3    H249155   4.395   3.676   2.830  0.3086 -0.1263  1.6985
 9222TIP3   OH249156   5.749   5.434   4.368  0.1587 -0.0169 -0.1518
 9222TIP3    H149157   5.843   5.453   4.379 -0.1725  1.8917 -0.2771
 9222TIP3    H249158   5.745   5.382   4.287  1.1590 -0.7670  0.2598
 9223TIP3   OH249159   1.842   1.434  16.790 -0.3599 -0.2423  0.1796
 9223TIP3    H149160   1.837   1.422  16.885 -0.4249  0.0295  0.2118
 9223TIP3    H249161   1.797   1.359  16.753 -0.3886 -0.3164  0.3668
 9224TIP3   OH249162   6.196   1.352  12.714 -0.3157  0.0365 -0.1307
 9224TIP3    H149163   6.152   1.421  12.665  0.0414  0.8260  0.6362
 9224TIP3    H249164   6.193   1.276  12.656 -2.7235  0.0257 -0.0811
 9225TIP3   OH249165   1.351   5.425   0.896  0.0581  0.0572 -0.0328
 9225TIP3    H149166   1.344   5.518   0.874  0.5510  0.3495  1.0028
 9225TIP3    H249167   1.346   5.381   0.811  1.4844  1.1201 -0.7173
 9226TIP3   OH249168   2.267   0.834   0.123  0.2266  0.2775 -0.0483
 9226TIP3    H149169   2.244   0.848   0.215 -1.8297 -1.1112 -0.2720
 9226TIP3    H249170   2.188   0.795   0.085  2.0375 -2.0763 -1.6806
 9227TIP3   OH249171   5.367   1.328  13.804 -0.4868  0.1966 -0.0077
 9227TIP3    H149172   5.402   1.239  13.813  0.4138  0.6094  0.6676
 9227TIP3    H249173   5.335   1.331  13.714  0.5851 -0.4318 -0.4342
 9228TIP3   OH249174   5.921   2.834  17.409 -0.0951 -0.1290 -0.6829
 9228TIP3    H149175   5.916   2.760  17.348  1.9555 -0.0256 -1.0448
 9228TIP3    H249176   5.879   2.801  17.489  1.3014 -1.9565 -0.6189
 9229TIP3   OH249177   2.233   1.953  12.154 -0.0032  0.5924 -1.0536
 9229TIP3    H149178   2.215   1.959  12.060  0.9228  1.7842 -1.1745
 9229TIP3    H249179   2.309   2.009  12.167 -0.1220  0.4362  0.4222
 9230TIP3   OH249180   4.727   1.355  16.032 -0.0182  0.5506  0.6622
 9230TIP3    H149181   4.742   1.447  16.052 -1.7117  0.8982  0.4987
 9230TIP3    H249182   4.685   1.356  15.946 -0.0800 -0.3622  0.6750
 9231TIP3   OH249183   0.194   3.843   5.870  0.0528  0.3450 -0.0605
 9231TIP3    H149184   0.256   3.900   5.915  0.2299  0.2605 -0.2007
 9231TIP3    H249185   0.247   3.791   5.809 -0.0286 -0.3918  0.4833
 9232TIP3   OH249186   3.987   6.739   1.357  0.4738 -0.0972  0.1999
 9232TIP3    H149187   4.028   6.782   1.431 -1.0866 -2.1613  2.4207
 9232TIP3    H249188   4.043   6.664   1.337 -0.1295 -0.6816  0.6476
 9233TIP3   OH249189   3.472   1.647   3.643  0.1108 -0.4060 -0.1254
 9233TIP3    H149190   3.526   1.689   3.709  0.1860  0.1935 -0.5672
 9233TIP3    H249191   3.393   1.701   3.639 -0.8530 -1.6345  0.9909
 9234TIP3   OH249192   1.821   3.074  11.354  1.1634  0.0784 -0.0102
 9234TIP3    H149193   1.760   3.007  11.387  0.2529  2.1563  2.9433
 9234TIP3    H249194   1.771   3.118  11.286  0.3411  0.0359  0.5355
 9235TIP3   OH249195   3.031   2.634   4.023 -0.3363 -0.0691 -0.7472
 9235TIP3    H149196   3.127   2.637   4.017 -0.3202 -2.3696 -3.0320
 9235TIP3    H249197   3.008   2.717   4.066  2.6785  0.1575  0.7420
 9236TIP3   OH249198   0.887   3.557   5.955 -0.1177 -0.0380 -0.0795
 9236TIP3    H149199   0.823   3.628   5.952 -1.0205 -0.8367 -0.4166
 9236TIP3    H249200   0.880   3.521   6.043 -1.2264 -1.0725 -0.5661
 9237TIP3   OH249201   4.079   5.671   3.314 -0.2209  0.0613 -0.8569
 9237TIP3    H149202   4.097   5.753   3.360  0.9419  0.6359 -2.2777
 9237TIP3    H249203   3.985   5.675   3.294 -0.5590  0.2079  0.6211
 9238TIP3   OH249204   2.029   1.938  16.631 -0.0366 -0.5097 -0.1445
 9238TIP3    H149205   2.109   1.909  16.676 -0.2043 -1.2862 -0.3384
 9238TIP3    H249206   1.958   1.894  16.679 -0.3815  0.4208  0.2225
 9239TIP3   OH249207   1.960   3.515   0.744  0.0985  0.6019  0.3076
 9239TIP3    H149208   2.019   3.536   0.817  0.6642 -1.9438  0.6634
 9239TIP3    H249209   2.004   3.446   0.696 -1.4269  0.4757 -1.0050
 9240TIP3   OH249210   4.176   4.959   4.998 -0.2398  0.0329 -0.0241
 9240TIP3    H149211   4.213   4.889   4.944  1.2874  0.7205  0.0876
 9240TIP3    H249212   4.095   4.984   4.953 -0.0681 -0.8280 -0.8379
 9241TIP3   OH249213   6.683   1.341   5.622 -0.4942 -0.1477 -0.4466
 9241TIP3    H149214   6.670   1.434   5.604  1.1748  0.1415 -0.2754
 9241TIP3    H249215   6.605   1.299   5.586 -0.3826  1.1120 -2.3303
 9242TIP3   OH249216   4.025   2.006  11.440 -0.6757 -0.1740  0.9226
 9242TIP3    H149217   3.987   1.986  11.355  0.1421  1.1772  0.2130
 9242TIP3    H249218   3.992   2.093  11.462  1.6964  0.9557  0.3779
 9243TIP3   OH249219   5.428   6.100   3.088  0.1385  0.4142  0.2473
 9243TIP3    H149220   5.502   6.042   3.070  0.5067  0.6634  0.9301
 9243TIP3    H249221   5.365   6.045   3.136 -0.7496 -0.1897 -1.4929
 9244TIP3   OH249222   4.630   4.531   2.634 -0.6759 -0.0684 -0.3251
 9244TIP3    H149223   4.669   4.571   2.557 -2.4192  0.7234 -0.8437
 9244TIP3    H249224   4.704   4.491   2.681  0.5652  0.4420 -1.7833
 9245TIP3   OH249225   4.360   2.246  16.210  0.6062  0.4851  0.5339
 9245TIP3    H149226   4.450   2.249  16.178 -0.3852  0.4094 -2.5866
 9245TIP3    H249227   4.368   2.226  16.303  3.7683 -2.2669 -0.1540
 9246TIP3   OH249228   5.109   0.660   5.587 -0.4213 -0.7997  0.3578
 9246TIP3    H149229   5.090   0.592   5.522 -1.8138 -1.2190  1.1570
 9246TIP3    H249230   5.025   0.677   5.629  0.0445  0.9312  0.6680
 9247TIP3   OH249231   4.623   0.255  17.513  0.3560  0.6535  0.0896
 9247TIP3    H149232   4.619   0.349  17.495 -0.2199  0.6686  0.2790
 9247TIP3    H249233   4.593   0.246  17.603 -1.9088  0.0840 -0.6583
 9248TIP3   OH249234   4.519   1.892   1.489  0.6566  0.1237  0.0823
 9248TIP3    H149235   4.462   1.857   1.558 -0.6732  0.9003 -0.5829
 9248TIP3    H249236   4.573   1.817   1.463  1.3022 -0.1553  2.0399
 9249TIP3   OH249237   3.189   3.541   6.114 -0.2348  1.0551 -0.1229
 9249TIP3    H149238   3.222   3.631   6.110 -0.3046  1.1247  0.5746
 9249TIP3    H249239   3.129   3.542   6.189  0.4327  0.2234  0.4436
 9250TIP3   OH249240   1.884   0.929  15.580  0.8181 -0.1270  0.0358
 9250TIP3    H149241   1.891   0.891  15.667  1.7969  0.7654  0.3775
 9250TIP3    H249242   1.921   1.017  15.590 -2.2404  1.3453 -0.4639
 9251TIP3   OH249243   5.774   4.140   0.078 -0.4216 -0.1611 -0.4260
 9251TIP3    H149244   5.698   4.084   0.060  0.2721 -1.7712  1.3618
 9251TIP3    H249245   5.736   4.222   0.110 -1.4282 -0.0314 -1.8343
 9252TIP3   OH249246   3.846   1.475   3.335  0.5514 -0.3719 -0.3398
 9252TIP3    H149247   3.777   1.430   3.383  0.3613 -0.6366 -0.8566
 9252TIP3    H249248   3.804   1.506   3.255  0.8369  0.1697 -0.2867
 9253TIP3   OH249249   3.925   6.367  13.332 -0.3250  0.1527  0.1476
 9253TIP3    H149250   3.951   6.436  13.393  2.7488 -1.4275  0.8623
 9253TIP3    H249251   3.898   6.294  13.388 -0.5771 -0.2385 -0.4752
 9254TIP3   OH249252   3.151   4.046   3.258 -0.1386 -0.1096  0.5189
 9254TIP3    H149253   3.082   3.979   3.258  1.0714 -1.3898  0.2007
 9254TIP3    H249254   3.165   4.066   3.350 -1.2523  0.5175  0.5693
 9255TIP3   OH249255   0.850   0.502   2.239  0.1149  0.5427  0.2636
 9255TIP3    H149256   0.828   0.508   2.332 -3.1669 -1.1319 -0.2595
 9255TIP3    H249257   0.777   0.546   2.195 -0.2671 -1.7340 -1.5721
 9256TIP3   OH249258   4.910   2.815   1.254 -0.0213  0.2804  0.0707
 9256TIP3    H149259   4.959   2.860   1.323  0.2391  0.2160 -0.0693
 9256TIP3    H249260   4.914   2.723   1.280 -0.9724  0.3845  0.6174
 9257TIP3   OH249261   3.346   0.699   0.645 -0.5768  0.1777 -0.0456
 9257TIP3    H149262   3.382   0.611   0.659 -0.1966  0.1676 -0.9896
 9257TIP3    H249263   3.384   0.751   0.716  0.1021 -0.1771 -0.1332
 9258TIP3   OH249264   0.284   0.239  17.092 -0.5583 -0.6089 -0.7597
 9258TIP3    H149265   0.247   0.158  17.059 -1.0043 -0.7887  0.1366
 9258TIP3    H249266   0.207   0.293  17.113 -0.3040 -0.5218 -0.0073
 9259TIP3   OH249267   3.767   2.902  14.214  0.5304 -0.2436 -0.0507
 9259TIP3    H149268   3.692   2.855  14.249  0.2657  1.1217  1.3075
 9259TIP3    H249269   3.732   2.951  14.140  0.4798 -0.9142 -0.4884
 9260TIP3   OH249270   5.701   4.885  10.991  0.2141  0.0128 -0.5657
 9260TIP3    H149271   5.623   4.921  11.032  0.5258  0.6171 -0.4936
 9260TIP3    H249272   5.669   4.841  10.912 -0.3599 -0.9642  0.1948
 9261TIP3   OH249273   5.733   1.409   2.209 -0.7099  0.3818 -1.1099
 9261TIP3    H149274   5.792   1.333   2.210  0.1584  1.0355  0.4361
 9261TIP3    H249275   5.705   1.419   2.300 -0.5937  2.0737 -1.2283
 9262TIP3   OH249276   5.507   0.779  14.504  0.2494 -0.2160 -0.4200
 9262TIP3    H149277   5.464   0.864  14.505  0.4479 -0.1187  0.0222
 9262TIP3    H249278   5.599   0.799  14.488  0.3817 -0.3068  0.1994
 9263TIP3   OH249279   0.671   1.505  12.034  0.3754 -0.2458 -0.4407
 9263TIP3    H149280   0.744   1.465  11.988  0.6635  1.2014 -1.3068
 9263TIP3    H249281   0.710   1.544  12.113  0.3425 -0.4177 -0.3389
 9264TIP3   OH249282   0.701   4.352  13.591 -0.2749  0.0819 -0.0992
 9264TIP3    H149283   0.778   4.335  13.537 -1.5429 -1.2736 -1.5978
 9264TIP3    H249284   0.735   4.360  13.680  1.6294  0.0186 -0.7856
 9265TIP3   OH249285   3.922   1.115  14.410  0.0382  0.4963  0.3295
 9265TIP3    H149286   3.913   1.030  14.365  0.8293  1.0357 -0.9158
 9265TIP3    H249287   3.976   1.096  14.487  0.4877 -0.0888 -0.1182
 9266TIP3   OH249288   3.028   0.704  11.128 -0.7266 -0.1183 -0.3029
 9266TIP3    H149289   2.936   0.708  11.101 -1.0470  1.1188  0.8639
 9266TIP3    H249290   3.075   0.756  11.063 -0.9086 -0.3816 -0.6487
 9267TIP3   OH249291   0.675   1.579   5.770 -0.2587 -0.1966  0.5223
 9267TIP3    H149292   0.709   1.594   5.858  0.6673  0.4612  0.0590
 9267TIP3    H249293   0.746   1.536   5.723  0.0238  1.2838 -0.4858
 9268TIP3   OH249294   5.165   3.012  15.887 -0.3303 -0.1463  0.1315
 9268TIP3    H149295   5.216   3.091  15.869 -0.8413  0.2466  0.3984
 9268TIP3    H249296   5.161   3.007  15.982  1.8294 -1.8720  0.2161
 9269TIP3   OH249297   4.403   6.133   5.153  0.2054 -0.2804 -0.3058
 9269TIP3    H149298   4.461   6.150   5.079 -0.0277  0.1686 -0.3899
 9269TIP3    H249299   4.384   6.039   5.148  2.1125 -0.7634  0.5932
 9270TIP3   OH249300   4.694   5.257  15.531  0.3588  0.0495  0.1963
 9270TIP3    H149301   4.716   5.325  15.595  0.7665 -0.6525  0.8182
 9270TIP3    H249302   4.612   5.287  15.491  0.0304  0.4353  1.1305
 9271TIP3   OH249303   5.446   3.561   2.256  0.7884  0.0421 -0.1324
 9271TIP3    H149304   5.460   3.607   2.338 -1.4280 -2.3594  1.7338
 9271TIP3    H249305   5.523   3.505   2.246  0.8900  0.0675  0.5134
 9272TIP3   OH249306   3.175   6.207  13.110 -0.1621  0.4868 -0.2359
 9272TIP3    H149307   3.128   6.131  13.144  0.8386 -0.4515 -0.8771
 9272TIP3    H249308   3.109   6.276  13.105 -1.4143 -0.7051 -0.8771
 9273TIP3   OH249309   0.070   4.145  16.074  0.1369 -0.0560 -0.1452
 9273TIP3    H149310   0.115   4.148  15.990  0.0242  1.5027 -0.1786
 9273TIP3    H249311   0.115   4.076  16.123 -0.5258 -1.8207 -1.8611
 9274TIP3   OH249312   4.022   0.540   0.961  0.0690 -0.0729  0.2627
 9274TIP3    H149313   4.095   0.580   1.008 -0.6220  0.4846  0.8883
 9274TIP3    H249314   4.019   0.587   0.878  1.6306 -1.4184 -0.6194
 9275TIP3   OH249315   6.426   4.138   1.058  0.3729  0.1662 -0.6500
 9275TIP3    H149316   6.389   4.050   1.048 -2.7539  1.1328  1.1414
 9275TIP3    H249317   6.473   4.153   0.975 -0.2666 -2.5654 -1.6390
 9276TIP3   OH249318   1.774   2.234   4.481  0.3488  0.4625  0.1330
 9276TIP3    H149319   1.702   2.184   4.444 -0.7217  1.7400  0.4301
 9276TIP3    H249320   1.777   2.315   4.430  2.0979  0.1012 -0.3920
 9277TIP3   OH249321   6.716   6.196   2.024 -0.1319 -0.1604 -0.2352
 9277TIP3    H149322   6.776   6.135   1.982  1.1876  1.3114 -0.5405
 9277TIP3    H249323   6.644   6.205   1.961 -0.1223 -1.0288 -0.3876
 9278TIP3   OH249324   3.431   0.233  15.233 -0.0254  0.2207 -0.5142
 9278TIP3    H149325   3.467   0.178  15.302 -0.1476  0.2331 -0.4402
 9278TIP3    H249326   3.388   0.172  15.173  2.1321 -0.0644 -1.8775
 9279TIP3   OH249327   4.199   1.710   2.504  0.5205  0.8261 -0.1585
 9279TIP3    H149328   4.283   1.712   2.551  0.5448 -0.7425 -0.1016
 9279TIP3    H249329   4.223   1.717   2.412  0.7518  0.0393 -0.1653
 9280TIP3   OH249330   5.424   6.640   2.807 -0.0451  0.4407 -0.5768
 9280TIP3    H149331   5.423   6.688   2.724 -0.9400 -0.0544 -0.8561
 9280TIP3    H249332   5.371   6.562   2.791  1.0193 -0.4338  0.0105
 9281TIP3   OH249333   1.198   3.884  15.685  0.1437  0.1958 -1.1897
 9281TIP3    H149334   1.143   3.952  15.725 -0.5549 -1.1966  0.3355
 9281TIP3    H249335   1.222   3.828  15.759  2.7253  0.1274 -1.9944
 9282TIP3   OH249336   2.477   4.919  10.942  0.2118 -0.1957 -0.0471
 9282TIP3    H149337   2.571   4.924  10.959  0.1836  0.0490  0.0411
 9282TIP3    H249338   2.463   4.832  10.905  0.6100  0.1135 -0.9444
 9283TIP3   OH249339   0.892   3.628   3.431  0.5016 -0.2560 -0.0731
 9283TIP3    H149340   0.952   3.637   3.357 -1.0423 -1.0749 -1.5283
 9283TIP3    H249341   0.847   3.712   3.436  1.0572  0.0192  0.3696
 9284TIP3   OH249342   2.283   5.376  16.702  0.6052 -0.1118  0.6181
 9284TIP3    H149343   2.342   5.432  16.752  0.7024  0.4271 -0.0968
 9284TIP3    H249344   2.263   5.426  16.623 -1.2180 -0.0633  1.0776
 9285TIP3   OH249345   6.211   3.833   5.563 -0.0442 -0.0904 -0.5815
 9285TIP3    H149346   6.272   3.886   5.511 -0.4933  1.2240  0.1832
 9285TIP3    H249347   6.256   3.821   5.647 -0.9094  1.1040  0.0786
 9286TIP3   OH249348   5.758   5.785  11.073  0.0054 -0.1303 -0.2701
 9286TIP3    H149349   5.683   5.781  11.131  0.6033 -2.0098  0.4396
 9286TIP3    H249350   5.735   5.852  11.009 -1.5961  0.4288  0.8283
 9287TIP3   OH249351   4.621   5.722   1.864  0.4960 -0.5319  0.3195
 9287TIP3    H149352   4.557   5.790   1.886  0.2693 -0.2195 -1.1930
 9287TIP3    H249353   4.592   5.645   1.912  0.6341  0.3481  1.8984
 9288TIP3   OH249354   3.377   4.069  12.110 -0.3722  0.1127  0.0185
 9288TIP3    H149355   3.363   4.108  12.023 -1.3404  0.8403  0.4755
 9288TIP3    H249356   3.472   4.067  12.120 -0.2625  2.0949 -0.1791
 9289TIP3   OH249357   6.595   5.503  13.821 -0.4123 -0.4980  0.2201
 9289TIP3    H149358   6.610   5.589  13.860 -1.8775 -0.0868 -0.0679
 9289TIP3    H249359   6.598   5.442  13.895  0.6198 -0.2154  0.4259
 9290TIP3   OH249360   2.045   3.747  14.104  0.5116  0.0550 -0.4633
 9290TIP3    H149361   2.061   3.829  14.058 -0.0129 -0.0978 -0.9254
 9290TIP3    H249362   2.117   3.741  14.168 -0.1486  1.5166  0.4749
 9291TIP3   OH249363   0.816   2.064   0.088  0.8025 -0.0297  0.1642
 9291TIP3    H149364   0.809   2.132   0.156 -0.3058 -0.3343  0.3729
 9291TIP3    H249365   0.779   1.986   0.129  1.1020 -0.4924 -0.4397
 9292TIP3   OH249366   4.803   5.526   0.838 -0.3741 -0.1130  0.1136
 9292TIP3    H149367   4.761   5.487   0.762 -1.7466  0.0385  0.7655
 9292TIP3    H249368   4.832   5.452   0.891 -1.3162 -0.2591  0.4502
 9293TIP3   OH249369   1.429   6.210  16.246 -0.5044 -0.6833  0.0234
 9293TIP3    H149370   1.460   6.198  16.157 -1.4516 -1.0300 -0.2645
 9293TIP3    H249371   1.375   6.133  16.264 -0.2142 -0.6867  0.9445
 9294TIP3   OH249372   2.058   0.307  15.475 -0.0767  0.0074  0.0461
 9294TIP3    H149373   2.082   0.248  15.404 -2.1980  0.2005 -0.9093
 9294TIP3    H249374   2.131   0.301  15.537  0.5619 -2.2983 -0.8184
 9295TIP3   OH249375   3.041   2.050   4.476 -0.2053  0.0584  0.4456
 9295TIP3    H149376   3.125   2.040   4.431 -0.7349 -0.8348 -0.3739
 9295TIP3    H249377   3.015   2.140   4.459  1.6396  1.1294  2.6282
 9296TIP3   OH249378   2.270   5.080  16.188 -0.3601  0.5022 -0.5815
 9296TIP3    H149379   2.190   5.030  16.202 -0.7369  1.6117  1.7077
 9296TIP3    H249380   2.324   5.060  16.264  1.8520 -0.6699 -2.3438
 9297TIP3   OH249381   4.341   1.283   1.133  0.3204  0.8645 -0.4555
 9297TIP3    H149382   4.294   1.366   1.121  2.1125  1.8247 -1.2901
 9297TIP3    H249383   4.430   1.310   1.158  1.4364 -0.7112 -2.4324
 9298TIP3   OH249384   6.418   0.894   3.883 -0.6054  0.0859  0.8252
 9298TIP3    H149385   6.498   0.860   3.841  0.0676  1.0869  1.2497
 9298TIP3    H249386   6.359   0.912   3.810 -0.6070 -1.0452  0.5308
 9299TIP3   OH249387   0.275   0.069   4.554 -0.1400  0.0135  0.1364
 9299TIP3    H149388   0.338   0.134   4.585 -0.7180  0.8263 -0.3631
 9299TIP3    H249389   0.302   0.051   4.464  2.4286 -3.4104  1.3411
 9300TIP3   OH249390   6.572   0.541  15.264  0.2677  0.2258  0.0285
 9300TIP3    H149391   6.608   0.581  15.344 -0.2653 -0.0142  0.3926
 9300TIP3    H249392   6.619   0.458  15.256 -1.8122 -1.2425  1.8439
 9301TIP3   OH249393   0.255   4.657  15.270  0.2889 -0.8518 -0.1119
 9301TIP3    H149394   0.314   4.583  15.257  1.5487 -0.0693  0.8730
 9301TIP3    H249395   0.199   4.631  15.343  0.7614 -0.8218  0.2640
 9302TIP3   OH249396   0.797   0.731   5.376  0.5845  0.3440  0.4235
 9302TIP3    H149397   0.878   0.705   5.333 -1.3603 -1.0248 -2.7914
 9302TIP3    H249398   0.754   0.790   5.314 -1.9942 -0.9983  0.7979
 9303TIP3   OH249399   5.530   6.307  12.586  0.0259  0.1362  0.4829
 9303TIP3    H149400   5.476   6.374  12.628 -1.5108  0.4542 -1.8054
 9303TIP3    H249401   5.483   6.225  12.600 -0.9465  0.3582 -1.1738
 9304TIP3   OH249402   6.072   0.948   2.899 -0.8535  0.3052 -0.4341
 9304TIP3    H149403   6.086   1.010   2.828 -0.9038  0.4115 -0.3525
 9304TIP3    H249404   6.103   0.865   2.865 -0.2290  0.4941 -0.3277
 9305TIP3   OH249405   3.013   0.724   3.243 -0.1104 -0.9695 -0.5634
 9305TIP3    H149406   2.977   0.812   3.256  2.4804 -0.0205  0.7049
 9305TIP3    H249407   3.000   0.707   3.149  1.1624  1.6604 -1.2990
 9306TIP3   OH249408   2.321   2.075  14.131  0.2070 -0.0389  0.2359
 9306TIP3    H149409   2.366   2.113  14.207 -0.6806  2.0489 -0.2204
 9306TIP3    H249410   2.388   2.022  14.088  1.8858  1.9222  0.3032
 9307TIP3   OH249411   1.863   4.245   2.945 -0.7314 -0.1752  0.0836
 9307TIP3    H149412   1.909   4.163   2.925 -0.1636  0.1542  0.0312
 9307TIP3    H249413   1.921   4.314   2.913 -1.0172  0.2684  0.5024
 9308TIP3   OH249414   6.034   3.524   4.865 -0.1972  0.0389  0.2545
 9308TIP3    H149415   5.985   3.442   4.859  0.9072 -0.6923  0.9223
 9308TIP3    H249416   6.077   3.532   4.779  0.1396 -0.3844  0.3784
 9309TIP3   OH249417   4.036   2.836  14.509 -0.1770  0.5062 -0.3289
 9309TIP3    H149418   3.969   2.795  14.454  0.1997  0.5027 -0.7917
 9309TIP3    H249419   4.010   2.814  14.599  0.5969 -1.7170 -0.5912
 9310TIP3   OH249420   1.206   1.912   1.737  0.4111  0.4040  0.0858
 9310TIP3    H149421   1.165   1.997   1.755 -1.7619 -0.5241 -0.1317
 9310TIP3    H249422   1.134   1.849   1.742  1.7244 -1.2880 -1.0353
 9311TIP3   OH249423   2.779   6.267   3.986  0.1929  0.0574 -0.4747
 9311TIP3    H149424   2.844   6.333   4.011  0.6018 -0.7950  0.8157
 9311TIP3    H249425   2.759   6.286   3.894  0.0999  2.1212 -0.0651
 9312TIP3   OH249426   2.258   3.424  16.207 -0.1194 -0.6150 -0.3195
 9312TIP3    H149427   2.204   3.367  16.152 -1.1527 -0.8049  0.8401
 9312TIP3    H249428   2.264   3.377  16.291  0.3888  0.2247  0.1278
 9313TIP3   OH249429   2.825   5.640  13.571 -0.5374  0.2398  0.3447
 9313TIP3    H149430   2.808   5.581  13.498 -0.0277  0.2941  0.1814
 9313TIP3    H249431   2.787   5.724  13.544  0.0550  0.3812 -0.0512
 9314TIP3   OH249432   5.246   5.195   3.903  0.3091  0.0876  0.3788
 9314TIP3    H149433   5.318   5.136   3.925 -0.5824 -1.4322 -0.5475
 9314TIP3    H249434   5.287   5.279   3.887  1.8612 -0.6897  0.0935
 9315TIP3   OH249435   1.758   5.954  15.852  0.3847  0.4170 -0.2447
 9315TIP3    H149436   1.806   5.911  15.782  0.8780 -1.8148  1.3692
 9315TIP3    H249437   1.669   5.919  15.845  0.4605  0.1074  0.2783
 9316TIP3   OH249438   5.274   4.377   1.033 -0.3032 -0.2812 -0.3327
 9316TIP3    H149439   5.369   4.371   1.022 -0.4051 -2.4836 -0.6059
 9316TIP3    H249440   5.250   4.460   0.992  1.6677  1.2232  1.3422
 9317TIP3   OH249441   5.542   4.680  10.844  0.5808  0.2729  0.1050
 9317TIP3    H149442   5.539   4.767  10.804  1.4682  0.1542 -0.2509
 9317TIP3    H249443   5.460   4.638  10.817 -1.0261  1.8028  2.2272
 9318TIP3   OH249444   3.991   3.465  14.110  0.4609  0.2197  0.8340
 9318TIP3    H149445   3.995   3.388  14.053  0.9072 -0.2924  1.5414
 9318TIP3    H249446   4.077   3.469  14.151  1.1002  2.2202 -0.6105
 9319TIP3   OH249447   5.086   6.692   1.580 -0.2128  0.3445  0.2650
 9319TIP3    H149448   5.019   6.741   1.531  0.3806  1.4609  0.5390
 9319TIP3    H249449   5.057   6.697   1.671 -0.1023  0.2508  0.3046
 9320TIP3   OH249450   1.115   2.279   4.693  0.4631 -0.0909 -0.2427
 9320TIP3    H149451   1.178   2.336   4.736 -0.5274 -0.6077  2.0579
 9320TIP3    H249452   1.076   2.334   4.624  0.9952  1.3419  0.5498
 9321TIP3   OH249453   5.070   1.496  12.546  0.1490  0.2680 -0.4652
 9321TIP3    H149454   5.126   1.440  12.492 -0.1600  0.2046 -0.7284
 9321TIP3    H249455   5.131   1.552  12.595  0.4416  0.1234 -0.6619
 9322TIP3   OH249456   1.017   6.314   0.632 -0.0750 -0.5138 -0.3294
 9322TIP3    H149457   0.976   6.369   0.565  0.7332 -1.3253 -1.5263
 9322TIP3    H249458   0.946   6.257   0.662 -0.8079  0.8332  0.6016
 9323TIP3   OH249459   6.740   2.958  10.768  0.0781  0.1987 -0.7127
 9323TIP3    H149460   6.686   3.009  10.708  1.5283  1.0783 -1.3340
 9323TIP3    H249461   6.816   2.931  10.715  0.3266 -0.8840  0.1520
 9324TIP3   OH249462   0.626   5.187  16.234 -0.5249  0.0179 -0.5193
 9324TIP3    H149463   0.571   5.163  16.308  0.5863  1.6030  0.8921
 9324TIP3    H249464   0.658   5.275  16.255  0.3474  0.2531 -2.5812
 9325TIP3   OH249465   0.674   2.233   2.537  0.0501  0.0749  0.4523
 9325TIP3    H149466   0.745   2.243   2.473 -0.5578 -0.4034 -0.3071
 9325TIP3    H249467   0.676   2.141   2.562  0.3512  0.2755  1.2263
 9326TIP3   OH249468   2.335   6.445   3.210  0.0670  0.0919 -0.0111
 9326TIP3    H149469   2.287   6.363   3.221  1.3821 -0.5729  1.0128
 9326TIP3    H249470   2.316   6.495   3.289 -0.5611  0.7258 -0.5383
 9327TIP3   OH249471   6.578   6.649   1.482  0.0571  0.1257 -0.0839
 9327TIP3    H149472   6.640   6.576   1.495  0.4138 -0.1078 -2.6328
 9327TIP3    H249473   6.493   6.607   1.477  0.1827 -0.0509 -0.8270
 9328TIP3   OH249474   5.324   3.892   6.078  0.2429  0.6787 -0.6770
 9328TIP3    H149475   5.237   3.864   6.106  1.5121 -0.9714  2.0719
 9328TIP3    H249476   5.361   3.817   6.032  1.7713 -0.5534  2.2335
 9329TIP3   OH249477   4.466   2.024   0.967  0.6411  0.4333 -0.3652
 9329TIP3    H149478   4.448   2.028   1.061  1.5110  0.7706 -0.2001
 9329TIP3    H249479   4.508   2.107   0.947  2.9274 -0.6663 -0.4884
 9330TIP3   OH249480   3.770   3.692   0.118 -0.0575  0.1695  0.4137
 9330TIP3    H149481   3.701   3.643   0.164 -1.0720  0.8531 -0.3238
 9330TIP3    H249482   3.722   3.749   0.058  1.1462  1.1549  0.3597
 9331TIP3   OH249483   3.672   4.812   1.743 -0.7186  0.2497  0.4294
 9331TIP3    H149484   3.693   4.767   1.825  0.7650  0.0006 -0.0518
 9331TIP3    H249485   3.629   4.893   1.770 -1.7899 -0.6122  1.3734
 9332TIP3   OH249486   0.256   6.731   2.391 -0.3312  0.5325  0.1394
 9332TIP3    H149487   0.287   6.641   2.400  1.2210  0.9913 -0.2363
 9332TIP3    H249488   0.170   6.732   2.433 -0.2118 -1.0319  0.4671
 9333TIP3   OH249489   6.524   0.470   4.542  0.5440 -0.0011 -0.0944
 9333TIP3    H149490   6.476   0.552   4.549  0.2892 -0.0520 -1.0678
 9333TIP3    H249491   6.465   0.410   4.496  1.3773 -0.1719 -0.9972
 9334TIP3   OH249492   2.937   6.324  11.963 -0.0408 -0.4624 -0.0328
 9334TIP3    H149493   2.892   6.388  11.909 -0.2614 -0.0019  0.6914
 9334TIP3    H249494   2.935   6.243  11.911  1.8441  0.5142 -1.7900
 9335TIP3   OH249495   6.691   6.497  16.161  0.0674 -0.1541  0.3814
 9335TIP3    H149496   6.784   6.489  16.183 -0.0669 -1.9641  0.4482
 9335TIP3    H249497   6.646   6.500  16.246 -0.0460 -1.0428  0.3559
 9336TIP3   OH249498   1.853   1.458  13.505 -0.1283  0.1597 -0.3440
 9336TIP3    H149499   1.888   1.507  13.580 -0.1308 -0.1365 -0.1469
 9336TIP3    H249500   1.780   1.511  13.473 -0.5038 -0.0002  0.2331
 9337TIP3   OH249501   5.678   5.949  14.268 -0.0504 -0.1736  0.3667
 9337TIP3    H149502   5.617   5.908  14.329 -0.3021 -0.2568  0.0608
 9337TIP3    H249503   5.655   5.912  14.183  0.5497 -0.3529  0.2754
 9338TIP3   OH249504   5.504   0.835   3.813  0.1533 -0.1083 -0.2020
 9338TIP3    H149505   5.588   0.872   3.841 -0.6430  1.1892  0.5287
 9338TIP3    H249506   5.496   0.860   3.721  1.7438 -2.4936 -1.1017
 9339TIP3   OH249507   1.660   2.751  12.308  0.2163 -0.0198 -0.1393
 9339TIP3    H149508   1.716   2.735  12.232  0.9948  0.0654  0.3963
 9339TIP3    H249509   1.720   2.744  12.383 -0.4836  0.1490  0.4441
 9340TIP3   OH249510   4.090   6.094  16.426  0.2362 -0.3033  0.0832
 9340TIP3    H149511   4.105   6.074  16.519  1.1218  0.8099  0.1993
 9340TIP3    H249512   4.164   6.054  16.381  0.1899 -0.2189 -0.0661
 9341TIP3   OH249513   3.165   4.485   4.872  0.1105 -0.1786  0.3111
 9341TIP3    H149514   3.183   4.445   4.957  0.4247  0.0263  0.3437
 9341TIP3    H249515   3.130   4.572   4.894  1.5527  0.4520  0.2292
 9342TIP3   OH249516   4.755   3.250   4.034  0.1629 -0.7759 -0.6244
 9342TIP3    H149517   4.775   3.343   4.040 -0.0462 -0.7703  0.0049
 9342TIP3    H249518   4.789   3.224   3.948  0.4227 -0.1721 -0.7091
 9343TIP3   OH249519   3.036   1.168  13.955 -0.3245  0.1700  0.8498
 9343TIP3    H149520   2.991   1.196  13.875 -0.6276 -0.2804  0.8606
 9343TIP3    H249521   3.114   1.223  13.959  0.1948 -0.4644 -0.2734
 9344TIP3   OH249522   6.614   3.200   0.330  0.2555  0.4015  0.0768
 9344TIP3    H149523   6.540   3.145   0.303  1.6565 -1.4988 -0.1018
 9344TIP3    H249524   6.574   3.277   0.369 -1.8161 -0.1038 -0.9358
 9345TIP3   OH249525   6.745   3.657   4.525  0.1663 -0.2039  0.3555
 9345TIP3    H149526   6.776   3.688   4.439  0.1807 -0.5035  0.2528
 9345TIP3    H249527   6.657   3.625   4.508 -0.8033  1.9708  0.9117
 9346TIP3   OH249528   3.069   4.362   0.069 -0.0668  0.2774 -0.2247
 9346TIP3    H149529   2.996   4.303   0.092 -0.8522  0.7256 -1.4936
 9346TIP3    H249530   3.145   4.304   0.061 -0.0393 -0.0861  2.0100
 9347TIP3   OH249531   0.799   1.265   4.863 -0.1090  0.1104 -0.2407
 9347TIP3    H149532   0.746   1.278   4.785  1.0417  0.0169 -1.0571
 9347TIP3    H249533   0.823   1.172   4.861  0.6086  0.2923 -0.2310
 9348TIP3   OH249534   1.511   1.501  12.978  0.0839 -0.3542 -0.1861
 9348TIP3    H149535   1.451   1.430  12.955 -1.3843  0.5714  0.6518
 9348TIP3    H249536   1.543   1.533  12.893  0.8939 -2.0947 -0.5639
 9349TIP3   OH249537   1.689   0.313   3.239 -0.2915 -0.5350 -0.0646
 9349TIP3    H149538   1.726   0.225   3.251  0.5519 -0.0711  0.8438
 9349TIP3    H249539   1.598   0.305   3.269 -0.7597 -1.4883 -1.5841
 9350TIP3   OH249540   6.405   5.897   2.707  0.6648  0.3532 -0.3775
 9350TIP3    H149541   6.479   5.897   2.768 -0.0718 -2.6874  0.7142
 9350TIP3    H249542   6.442   5.867   2.624  0.8204 -0.3837 -0.0481
 9351TIP3   OH249543   3.609   4.445  10.669 -0.2565  0.1507  0.4777
 9351TIP3    H149544   3.647   4.490  10.744 -0.1752 -0.0279  0.5430
 9351TIP3    H249545   3.527   4.493  10.652 -0.5194 -0.1104  0.9831
 9352TIP3   OH249546   0.258   1.738   6.267  0.3236 -0.4647  0.7264
 9352TIP3    H149547   0.262   1.718   6.361  0.5492  1.5857  1.2151
 9352TIP3    H249548   0.300   1.664   6.225  2.2474 -0.4481  2.4480
 9353TIP3   OH249549   0.456   4.896  13.727 -0.1227 -0.5309  0.0169
 9353TIP3    H149550   0.457   4.926  13.818  0.8224  2.3355 -0.8356
 9353TIP3    H249551   0.420   4.807  13.731 -2.7870  0.5295  2.8604
 9354TIP3   OH249552   5.129   2.753  12.806  0.2309 -0.1088 -0.0608
 9354TIP3    H149553   5.151   2.846  12.812 -2.4521  0.5826  0.1938
 9354TIP3    H249554   5.141   2.719  12.895 -0.2307  0.3479  0.1743
 9355TIP3   OH249555   6.196   2.439  13.513 -0.0166 -0.0242 -0.5567
 9355TIP3    H149556   6.256   2.428  13.439  1.6990  0.4112  0.6966
 9355TIP3    H249557   6.183   2.534  13.518  1.5001  0.1408  0.8774
 9356TIP3   OH249558   2.530   0.908   5.436 -0.0708 -0.7064  0.1620
 9356TIP3    H149559   2.493   0.834   5.387  1.2300 -1.2041 -0.1199
 9356TIP3    H249560   2.535   0.877   5.527 -2.4996  0.2226  0.6624
 9357TIP3   OH249561   5.603   6.182  16.727  0.2841 -0.0815 -0.1405
 9357TIP3    H149562   5.563   6.264  16.699 -0.0970 -1.0068 -2.5034
 9357TIP3    H249563   5.697   6.199  16.724  0.2093  0.8093  1.3139
 9358TIP3   OH249564   6.285   3.330   5.631 -0.4722 -0.0199 -0.8175
 9358TIP3    H149565   6.258   3.391   5.700 -1.2078  0.9956 -1.9587
 9358TIP3    H249566   6.240   3.248   5.653 -0.3274  0.1457  0.1510
 9359TIP3   OH249567   6.678   3.785  15.123  0.0883  0.5352 -0.4064
 9359TIP3    H149568   6.699   3.868  15.164 -1.1923  0.9827 -0.6091
 9359TIP3    H249569   6.729   3.784  15.042 -0.9697  1.8075 -1.1322
 9360TIP3   OH249570   3.235   5.336  14.676  0.4415  0.0982 -0.1063
 9360TIP3    H149571   3.238   5.407  14.740 -3.2714  2.4701 -2.1987
 9360TIP3    H249572   3.324   5.330  14.643  1.5319  1.6945  2.2587
 9361TIP3   OH249573   4.892   0.481  12.414 -0.1869  0.9832  0.2630
 9361TIP3    H149574   4.855   0.430  12.342  1.5270 -2.4405  1.6111
 9361TIP3    H249575   4.977   0.510  12.382  0.0350  0.5558  0.4627
 9362TIP3   OH249576   4.522   2.281  13.803  0.0686 -0.1781  0.3174
 9362TIP3    H149577   4.473   2.356  13.769  1.3757 -0.3880 -2.2953
 9362TIP3    H249578   4.497   2.208  13.747 -0.0085 -1.3715  1.8472
 9363TIP3   OH249579   2.836   5.437   3.258 -0.1268  0.3649 -0.3365
 9363TIP3    H149580   2.862   5.509   3.201  1.3990  0.5353  0.5399
 9363TIP3    H249581   2.846   5.359   3.204  1.9697  0.4575 -0.1470
 9364TIP3   OH249582   1.075   2.886   4.764  0.0598  0.3070 -0.5623
 9364TIP3    H149583   0.995   2.932   4.739 -0.4785 -0.1901  0.2031
 9364TIP3    H249584   1.045   2.811   4.815  1.0577  0.7669  0.7613
 9365TIP3   OH249585   3.102   4.467  17.243  0.4150 -0.0767 -0.2058
 9365TIP3    H149586   3.144   4.411  17.177  0.8698 -0.8141  0.6849
 9365TIP3    H249587   3.027   4.416  17.273  1.9045 -1.1515  2.0011
 9366TIP3   OH249588   2.648   4.851   3.570  1.2908  0.4621 -0.2171
 9366TIP3    H149589   2.625   4.932   3.525  1.1579  0.6138  0.1172
 9366TIP3    H249590   2.609   4.860   3.657  0.5596 -0.3141 -0.4378
 9367TIP3   OH249591   3.146   4.694   5.779 -0.6180  0.3843 -0.7085
 9367TIP3    H149592   3.237   4.696   5.748 -0.8804  0.6550 -1.4895
 9367TIP3    H249593   3.145   4.754   5.853 -0.2560  0.7443 -0.9883
 9368TIP3   OH249594   6.498   1.005   2.967  0.1666 -0.0917  0.2631
 9368TIP3    H149595   6.467   0.979   2.880  0.8383  1.1871 -0.3946
 9368TIP3    H249596   6.429   0.978   3.027 -0.7976 -0.0462 -0.8038
 9369TIP3   OH249597   1.775   1.372   3.235 -0.2274  0.2362  0.3682
 9369TIP3    H149598   1.691   1.329   3.220 -0.4485  0.5332  0.7561
 9369TIP3    H249599   1.793   1.419   3.153  0.4096 -1.2278 -0.3741
 9370TIP3   OH249600   0.397   4.631   3.597 -0.4695 -0.3055 -0.3333
 9370TIP3    H149601   0.394   4.657   3.689  0.1767  2.1211 -0.9227
 9370TIP3    H249602   0.414   4.537   3.599  1.9930  0.0722  2.0414
 9371TIP3   OH249603   4.398   1.302  15.440 -0.2516  0.1171  0.1444
 9371TIP3    H149604   4.408   1.349  15.358  1.0787 -0.5609 -0.0988
 9371TIP3    H249605   4.317   1.251  15.429  0.4340 -0.7319 -1.1411
 9372TIP3   OH249606   2.473   5.719   2.955 -0.1236 -0.2153 -0.2163
 9372TIP3    H149607   2.447   5.745   3.044 -1.4325  0.5056 -0.7909
 9372TIP3    H249608   2.489   5.625   2.962 -0.4204 -0.2097  0.7464
 9373TIP3   OH249609   2.341   3.707  16.375 -0.4736  0.2741 -0.7839
 9373TIP3    H149610   2.333   3.622  16.332 -3.6699 -0.7507  1.4622
 9373TIP3    H249611   2.408   3.695  16.442 -1.7350 -0.9339  0.3102
 9374TIP3   OH249612   3.173   0.966   0.791  0.4172  0.0096  0.2565
 9374TIP3    H149613   3.177   0.991   0.698 -0.1211 -0.4987  0.0890
 9374TIP3    H249614   3.265   0.951   0.815  0.3954 -3.0537 -1.1262
 9375TIP3   OH249615   0.881   6.061   4.676  0.3649 -0.0671  0.2325
 9375TIP3    H149616   0.794   6.020   4.669 -0.1288  0.8698  0.6369
 9375TIP3    H249617   0.939   5.990   4.701 -0.2027 -0.8090 -0.5056
 9376TIP3   OH249618   3.051   3.618  16.712 -0.3288  0.8734 -0.3874
 9376TIP3    H149619   3.080   3.645  16.799 -0.3126 -0.5059  0.0620
 9376TIP3    H249620   2.961   3.590  16.724 -0.5622  1.3613 -0.9687
 9377TIP3   OH249621   0.242   3.909   6.250  0.0196 -0.1946 -0.5306
 9377TIP3    H149622   0.316   3.959   6.215  0.3358  0.0784  0.5053
 9377TIP3    H249623   0.165   3.963   6.231  0.1866 -0.0586 -0.8198
 9378TIP3   OH249624   6.093   3.621  11.979 -0.8823  0.4242 -0.6602
 9378TIP3    H149625   6.108   3.644  11.887 -1.4567 -2.5272 -1.6027
 9378TIP3    H249626   6.173   3.578  12.007 -1.1029  0.3516 -0.1274
 9379TIP3   OH249627   4.441   1.791  14.233  0.5279 -0.2696  0.6768
 9379TIP3    H149628   4.477   1.721  14.178 -1.1605 -2.2461  1.9629
 9379TIP3    H249629   4.364   1.822  14.185  0.4078 -0.3323  0.8320
 9380TIP3   OH249630   3.567   2.582  13.736 -0.3614 -0.2591 -0.6142
 9380TIP3    H149631   3.523   2.609  13.816 -0.9384  1.1196 -1.3612
 9380TIP3    H249632   3.502   2.529  13.689 -0.3808 -0.2076 -0.6448
 9381TIP3   OH249633   6.005   5.254   2.963 -0.6962  0.7757 -0.2666
 9381TIP3    H149634   5.979   5.225   2.876 -1.2323  0.5068 -0.0186
 9381TIP3    H249635   6.101   5.258   2.959 -0.6606 -0.1420 -0.5932
 9382TIP3   OH249636   5.950   6.363  11.299 -0.0766  0.5742 -0.2209
 9382TIP3    H149637   5.980   6.312  11.224 -0.9413 -0.6350  0.2195
 9382TIP3    H249638   6.025   6.418  11.322  0.5110  0.3053 -1.3925
 9383TIP3   OH249639   6.019   1.789  15.853  0.4487  0.2517 -0.0881
 9383TIP3    H149640   6.011   1.732  15.930  1.7250 -1.6622 -1.2987
 9383TIP3    H249641   6.044   1.730  15.782 -0.2908  2.0362 -1.9058
 9384TIP3   OH249642   6.518   4.982   0.690 -0.0974  0.4640 -0.2134
 9384TIP3    H149643   6.612   4.991   0.709 -0.1841  0.9904 -0.0239
 9384TIP3    H249644   6.489   5.071   0.674 -1.0191  0.5714  1.8004
 9385TIP3   OH249645   1.729   6.285   3.662  0.1031 -0.4696  0.2070
 9385TIP3    H149646   1.718   6.202   3.707  1.4762  0.1287  1.7982
 9385TIP3    H249647   1.821   6.308   3.677 -0.1350  1.1261 -0.5340
 9386TIP3   OH249648   2.123   0.165   2.192 -0.0650  0.3543  0.5615
 9386TIP3    H149649   2.068   0.217   2.250  0.4546  1.2596  0.2577
 9386TIP3    H249650   2.062   0.118   2.135 -0.5465  0.2666  1.1526
 9387TIP3   OH249651   6.208   3.949  16.699  0.1010 -0.7215  0.3562
 9387TIP3    H149652   6.220   3.855  16.683 -0.5138 -0.6743 -0.4160
 9387TIP3    H249653   6.292   3.978  16.734  1.2704 -1.0359 -1.9689
 9388TIP3   OH249654   2.475   5.577  16.471  0.3590  0.6587  0.0168
 9388TIP3    H149655   2.494   5.647  16.409  1.7529  0.2533 -0.0512
 9388TIP3    H249656   2.552   5.520  16.467  0.5198  0.6381  2.1436
 9389TIP3   OH249657   0.784   2.088   5.942  0.4230  0.1646 -0.1966
 9389TIP3    H149658   0.720   2.122   6.003  0.3475  2.2863 -1.3809
 9389TIP3    H249659   0.762   2.129   5.858  2.6179  0.0627 -0.8814
 9390TIP3   OH249660   3.828   3.266  10.813 -0.1227 -0.0739 -0.7589
 9390TIP3    H149661   3.813   3.293  10.722  0.9324  1.5785 -0.4855
 9390TIP3    H249662   3.867   3.343  10.854  1.9518 -1.6541  0.4145
 9391TIP3   OH249663   0.854   6.421  10.809  0.2945  0.1855 -0.2833
 9391TIP3    H149664   0.918   6.366  10.764  2.0722  2.5741 -0.8699
 9391TIP3    H249665   0.903   6.500  10.833 -1.8733  1.1260  1.3894
 9392TIP3   OH249666   0.450   3.112  13.546  0.5949 -0.4653  0.4328
 9392TIP3    H149667   0.418   3.022  13.557  0.4305 -0.4773 -0.1160
 9392TIP3    H249668   0.522   3.104  13.484 -1.6428  0.1752 -2.4867
 9393TIP3   OH249669   3.010   5.502   1.934  0.0203  0.0901  0.0682
 9393TIP3    H149670   2.925   5.544   1.924 -0.1371 -0.2906 -0.2237
 9393TIP3    H249671   2.989   5.409   1.945  0.4961 -0.4473 -2.8732
 9394TIP3   OH249672   0.744   2.335   4.909  0.1105  0.3290  0.1478
 9394TIP3    H149673   0.690   2.355   4.832 -0.9726 -1.2766  0.4499
 9394TIP3    H249674   0.811   2.404   4.909  0.0438  0.4799 -2.1210
 9395TIP3   OH249675   1.584   5.303  15.534 -0.0055  0.2674  0.0005
 9395TIP3    H149676   1.498   5.263  15.520  0.4563 -0.8966  0.3946
 9395TIP3    H249677   1.641   5.230  15.558  1.0200  1.0761  0.0918
 9396TIP3   OH249678   1.112   3.639   0.592 -0.2127  0.8730  0.3971
 9396TIP3    H149679   1.040   3.583   0.621  0.4004 -0.8999 -1.3380
 9396TIP3    H249680   1.070   3.703   0.535 -0.3264 -1.0929 -1.8798
 9397TIP3   OH249681   2.509   2.572   5.131  0.1555 -0.3030 -0.0256
 9397TIP3    H149682   2.421   2.535   5.123 -0.8234  1.0162  3.1479
 9397TIP3    H249683   2.495   2.667   5.134  1.9048  0.0280 -1.1171
 9398TIP3   OH249684   3.940   5.491  14.389 -0.4258 -0.4326  0.5067
 9398TIP3    H149685   4.026   5.531  14.402 -0.6087  0.0096  0.3599
 9398TIP3    H249686   3.938   5.467  14.296 -0.6599  0.0289  0.3911
 9399TIP3   OH249687   1.510   3.731  14.965  0.2719 -0.1460 -0.0559
 9399TIP3    H149688   1.584   3.755  15.021  0.2960 -1.5775  0.5613
 9399TIP3    H249689   1.549   3.676  14.897 -0.3467 -1.7685  0.8609
 9400TIP3   OH249690   5.557   5.533   3.100 -0.1283  0.3138  0.1878
 9400TIP3    H149691   5.576   5.619   3.139 -2.0578  0.5451  0.7409
 9400TIP3    H249692   5.461   5.528   3.099 -0.0651 -1.7888  0.0483
 9401TIP3   OH249693   3.355   3.422   5.394 -0.2386  0.0664 -0.4070
 9401TIP3    H149694   3.384   3.491   5.335 -0.0617 -0.0818 -0.4945
 9401TIP3    H249695   3.303   3.467   5.461 -0.1058  0.2851 -0.4530
 9402TIP3   OH249696   2.337   5.378   6.768 -0.4240  0.3933  0.4376
 9402TIP3    H149697   2.254   5.417   6.742  0.1142  1.1747 -0.1189
 9402TIP3    H249698   2.387   5.450   6.807  0.4776  0.2169 -0.3628
 9403TIP3   OH249699   6.159   5.948   3.185  0.2278 -0.2947  0.0073
 9403TIP3    H149700   6.166   6.043   3.175 -1.0918 -0.1800  0.0023
 9403TIP3    H249701   6.195   5.930   3.272  1.2105  0.1046 -0.3100
 9404TIP3   OH249702   2.150   6.316   3.840  0.2606 -0.5261 -0.3915
 9404TIP3    H149703   2.073   6.369   3.857 -0.9632 -2.0132 -0.9973
 9404TIP3    H249704   2.180   6.287   3.926  0.3873  0.3637 -0.1297
 9405TIP3   OH249705   2.412   5.176  14.227  0.1178 -0.6676 -0.4580
 9405TIP3    H149706   2.478   5.223  14.277  0.3514  0.2385 -1.6029
 9405TIP3    H249707   2.440   5.084  14.231 -0.5404 -0.8483  2.1045
 9406TIP3   OH249708   1.206   3.262   0.089 -0.2036 -0.1376  0.7007
 9406TIP3    H149709   1.231   3.169   0.085 -1.7058 -0.6284  1.7910
 9406TIP3    H249710   1.277   3.303   0.138  0.7619 -0.5647 -0.2656
 9407TIP3   OH249711   5.520   3.223  15.348 -0.5101  0.1012  0.4390
 9407TIP3    H149712   5.568   3.206  15.267 -0.6987 -1.1448  0.5629
 9407TIP3    H249713   5.588   3.233  15.414 -0.3786 -0.1352  0.3424
 9408TIP3   OH249714   4.757   3.581   3.245  0.2619  0.4400 -0.3687
 9408TIP3    H149715   4.844   3.555   3.215  0.4797  1.4898 -0.6684
 9408TIP3    H249716   4.755   3.676   3.234 -0.5009  0.5661  0.7577
 9409TIP3   OH249717   2.199   0.852  11.359  0.3528 -0.1739  0.5544
 9409TIP3    H149718   2.167   0.920  11.418  0.1933 -1.5591  2.1535
 9409TIP3    H249719   2.261   0.897  11.301  0.2828  1.3081  1.5804
 9410TIP3   OH249720   2.708   5.317   6.641 -0.2655  0.0233 -0.3811
 9410TIP3    H149721   2.766   5.356   6.575  1.8943 -2.6838 -0.2480
 9410TIP3    H249722   2.726   5.366   6.721  1.5902 -0.4782 -0.4475
 9411TIP3   OH249723   6.681   5.886   0.938  0.7783  0.2929 -0.0478
 9411TIP3    H149724   6.745   5.816   0.947  1.0087  0.4472 -0.4623
 9411TIP3    H249725   6.727   5.965   0.965  1.2328  0.6362 -1.7243
 9412TIP3   OH249726   3.114   6.097  15.105 -0.2130 -0.3442 -0.4643
 9412TIP3    H149727   3.108   6.169  15.042 -0.3546 -0.1356 -0.2162
 9412TIP3    H249728   3.207   6.088  15.123 -0.0606 -1.2221 -1.6360
 9413TIP3   OH249729   6.543   2.946   2.156 -0.1468  0.1266 -0.4028
 9413TIP3    H149730   6.507   2.857   2.163 -1.9313  0.7819 -0.5379
 9413TIP3    H249731   6.593   2.958   2.237  0.4308 -1.1158 -0.5550
 9414TIP3   OH249732   3.361   1.740   0.979  0.2250  0.2976 -0.1636
 9414TIP3    H149733   3.454   1.737   1.002  0.0456 -1.0723  0.4588
 9414TIP3    H249734   3.317   1.763   1.060 -0.0791 -0.4380 -0.1092
 9415TIP3   OH249735   4.778   2.756  15.784 -0.0915  0.1217  0.0843
 9415TIP3    H149736   4.754   2.814  15.712  1.9943  1.4269  0.3341
 9415TIP3    H249737   4.755   2.805  15.863 -1.1484 -0.7378  0.3309
 9416TIP3   OH249738   5.769   3.157   1.205 -0.3120  0.4974  0.0359
 9416TIP3    H149739   5.689   3.203   1.231 -0.4423  0.5586 -0.4620
 9416TIP3    H249740   5.775   3.171   1.110 -0.0710 -0.0676 -0.0367
 9417TIP3   OH249741   2.002   3.904  15.265 -0.6265  0.1894 -0.5326
 9417TIP3    H149742   1.961   3.878  15.348  3.3578  0.3469  1.7562
 9417TIP3    H249743   2.086   3.858  15.264  0.1261  1.3357 -3.8424
 9418TIP3   OH249744   3.025   0.650   3.856  0.2729  0.2143 -0.1312
 9418TIP3    H149745   3.042   0.681   3.767 -0.2181  0.1307 -0.2577
 9418TIP3    H249746   3.085   0.701   3.911 -1.3285  2.3051 -0.1754
 9419TIP3   OH249747   0.283   3.656   4.848  0.0469 -0.0514 -0.2851
 9419TIP3    H149748   0.233   3.602   4.787 -0.4000 -1.5624  1.3356
 9419TIP3    H249749   0.220   3.718   4.882 -0.2915 -0.7308  0.3537
 9420TIP3   OH249750   3.346   4.025  10.530  0.1346  0.0477  0.2776
 9420TIP3    H149751   3.266   3.973  10.516 -0.6764  1.4236 -0.3717
 9420TIP3    H249752   3.336   4.061  10.618  0.0454  0.2120  0.2008
 9421TIP3   OH249753   0.931   5.227  12.442  0.1384 -0.2917  0.0722
 9421TIP3    H149754   0.923   5.184  12.528 -1.6739  2.4430  1.4298
 9421TIP3    H249755   0.852   5.282  12.436  0.7901  0.4658 -2.8766
 9422TIP3   OH249756   2.318   0.087  15.494  0.2686  0.3345 -0.6862
 9422TIP3    H149757   2.314   0.164  15.551  1.0561  0.4822 -0.8143
 9422TIP3    H249758   2.247   0.100  15.431  0.2008  0.8048 -0.5200
 9423TIP3   OH249759   0.413   3.735   2.624 -0.6020 -0.5405  0.6820
 9423TIP3    H149760   0.356   3.659   2.627  0.7574 -1.6509 -0.1898
 9423TIP3    H249761   0.486   3.713   2.682  0.0877 -0.1407 -0.0203
 9424TIP3   OH249762   1.371   5.107  10.416 -0.2022 -0.2633 -0.4705
 9424TIP3    H149763   1.427   5.107  10.494  1.6677 -1.3958 -1.7350
 9424TIP3    H249764   1.300   5.167  10.438  2.0490  2.1280  0.8654
 9425TIP3   OH249765   4.156   1.949   4.866 -0.5156  0.0357 -0.1616
 9425TIP3    H149766   4.096   1.877   4.886  0.7722 -0.6553  1.3481
 9425TIP3    H249767   4.121   1.986   4.784 -2.0203 -1.3818 -0.2227
 9426TIP3   OH249768   3.772   3.779  14.070  0.1288 -0.0473 -0.0062
 9426TIP3    H149769   3.834   3.719  14.027 -0.9859 -1.4654  0.3055
 9426TIP3    H249770   3.733   3.727  14.140 -1.9540  0.5681 -0.6422
 9427TIP3   OH249771   1.863   1.761  17.086 -0.0949  0.0976  0.6511
 9427TIP3    H149772   1.781   1.720  17.058  0.4524  0.1326 -1.1152
 9427TIP3    H249773   1.877   1.728  17.175 -1.2009 -1.1530  0.3880
 9428TIP3   OH249774   5.362   4.976  15.963  0.0085 -0.3016  0.5347
 9428TIP3    H149775   5.408   4.966  16.047 -0.1219  0.9147  0.7676
 9428TIP3    H249776   5.323   4.891  15.947 -0.0167 -0.5355  1.7474
 9429TIP3   OH249777   5.043   0.683  15.158  0.2742  0.1015 -0.2446
 9429TIP3    H149778   5.055   0.601  15.110 -0.0090 -0.0454 -0.0665
 9429TIP3    H249779   4.948   0.695  15.163  0.3134  0.4624 -0.3031
 9430TIP3   OH249780   3.174   1.194   3.510  0.1830  0.1009 -0.3474
 9430TIP3    H149781   3.116   1.218   3.438  2.0962  1.8400 -1.4343
 9430TIP3    H249782   3.225   1.274   3.527  1.7235 -1.1030  1.0266
 9431TIP3   OH249783   6.574   2.378  17.227  0.6442 -0.9367  0.2985
 9431TIP3    H149784   6.562   2.356  17.134 -1.0748  1.6891 -0.1988
 9431TIP3    H249785   6.661   2.418  17.230  0.8537 -1.3433 -0.0936
 9432TIP3   OH249786   0.229   3.444   4.113  0.0713 -0.2047  1.0526
 9432TIP3    H149787   0.268   3.448   4.201 -0.2010  1.6200  1.1166
 9432TIP3    H249788   0.182   3.527   4.103  0.4087 -0.2052 -0.9715
 9433TIP3   OH249789   1.680   5.266  12.736 -0.1641 -0.4268  0.0952
 9433TIP3    H149790   1.728   5.261  12.653 -1.7547 -2.4922 -0.7654
 9433TIP3    H249791   1.660   5.176  12.759 -0.7899  0.1712  2.1526
 9434TIP3   OH249792   5.532   4.717   3.871 -0.2233  0.0826 -0.4979
 9434TIP3    H149793   5.518   4.624   3.893 -2.3009  0.4880  0.1285
 9434TIP3    H249794   5.446   4.757   3.881  0.9704  2.4920  1.0598
 9435TIP3   OH249795   2.773   3.775  14.149  0.3973  0.1045 -0.0372
 9435TIP3    H149796   2.736   3.862  14.133 -0.3319  0.0548  1.2273
 9435TIP3    H249797   2.776   3.734  14.063 -0.4116  0.9412 -0.4792
 9436TIP3   OH249798   5.893   6.754  14.103  0.1906  0.9171 -0.2093
 9436TIP3    H149799   5.907   6.753  14.008 -1.4564  0.2205 -0.4694
 9436TIP3    H249800   5.981   6.762  14.139  0.9787 -0.0013 -1.7815
 9437TIP3   OH249801   0.759   2.156   4.420 -0.3838  0.6186  0.1877
 9437TIP3    H149802   0.823   2.114   4.478 -0.1719  0.0972 -0.4182
 9437TIP3    H249803   0.710   2.215   4.478 -0.7980 -0.5588  1.0954
 9438TIP3   OH249804   0.045   2.373  15.243  0.2399 -0.2445  0.0653
 9438TIP3    H149805   0.034   2.405  15.333 -0.8101  0.9881 -0.4696
 9438TIP3    H249806  -0.022   2.306  15.233 -0.8267  0.8226 -0.2954
 9439TIP3   OH249807   4.329   5.513  15.270 -0.2830  1.0067  0.5212
 9439TIP3    H149808   4.245   5.558  15.284 -0.9994 -0.2605  0.5346
 9439TIP3    H249809   4.310   5.450  15.200  0.7118  0.8158  0.4165
 9440TIP3   OH249810   6.435   1.712   1.669  0.3998 -0.6564 -0.0517
 9440TIP3    H149811   6.411   1.783   1.728 -0.5140 -1.3597  0.4579
 9440TIP3    H249812   6.509   1.746   1.619  0.8307  0.1674  1.1004
 9441TIP3   OH249813   1.466   3.194   5.581  0.1339 -0.2821 -0.1969
 9441TIP3    H149814   1.447   3.104   5.554  1.1097 -0.5238 -0.1058
 9441TIP3    H249815   1.380   3.235   5.589 -0.2836 -0.4621 -2.7370
 9442TIP3   OH249816   5.976   5.700   1.716 -0.1380 -0.1353 -0.0256
 9442TIP3    H149817   6.040   5.764   1.685 -0.2267 -0.2289 -0.4099
 9442TIP3    H249818   5.972   5.634   1.647 -1.7538  0.6417 -0.7357
 9443TIP3   OH249819   1.071   2.746   4.409  0.2253  0.1211  0.5548
 9443TIP3    H149820   0.976   2.738   4.400  0.3645 -0.6202 -0.3697
 9443TIP3    H249821   1.106   2.670   4.363  1.2370 -0.2049  1.8092
 9444TIP3   OH249822   4.736   2.699  14.090 -0.0801  0.0774 -0.0814
 9444TIP3    H149823   4.679   2.637  14.137  0.5954 -0.9115 -0.5391
 9444TIP3    H249824   4.683   2.727  14.015  0.6880 -2.4118 -1.6740
 9445TIP3   OH249825   3.602   0.157   2.787 -0.4612 -0.7282  0.7515
 9445TIP3    H149826   3.513   0.191   2.780  0.0220  0.6108  0.6995
 9445TIP3    H249827   3.624   0.130   2.698 -0.3410  0.2364  0.4764
 9446TIP3   OH249828   4.157   0.773  12.501 -0.0574 -0.0479 -0.0842
 9446TIP3    H149829   4.110   0.847  12.462 -2.4204 -1.0894  0.5797
 9446TIP3    H249830   4.192   0.725  12.426 -1.0643  0.1508 -0.7001
 9447TIP3   OH249831   1.809   1.062   4.486  0.1913  0.6799 -0.3711
 9447TIP3    H149832   1.877   1.096   4.428 -0.1951  0.0562 -1.2152
 9447TIP3    H249833   1.855   1.040   4.567  1.0472  0.0703 -1.0044
 9448TIP3   OH249834   5.523   5.248   0.316  0.6608 -0.0545  0.2084
 9448TIP3    H149835   5.526   5.250   0.411  2.5837 -0.7895  0.2051
 9448TIP3    H249836   5.587   5.181   0.291 -1.1345 -1.2350 -1.5604
 9449TIP3   OH249837   3.859   3.703  11.328 -0.0703 -0.4384  0.3438
 9449TIP3    H149838   3.931   3.647  11.297 -0.9744 -2.0500  1.0518
 9449TIP3    H249839   3.848   3.679  11.419 -1.5337 -0.2260  0.2394
 9450TIP3   OH249840   1.229   4.690  17.517  0.1362  0.7837  0.6857
 9450TIP3    H149841   1.293   4.759  17.535  1.5640 -0.3576  0.2360
 9450TIP3    H249842   1.273   4.609  17.544 -0.8420 -0.1146 -0.3035
 9451TIP3   OH249843   1.535   5.605  12.423  0.0599  0.1542 -0.2856
 9451TIP3    H149844   1.497   5.538  12.367  0.0302 -0.9669  1.0423
 9451TIP3    H249845   1.608   5.641  12.372 -1.4209  0.8653 -2.0003
 9452TIP3   OH249846   4.915   5.904   6.475 -0.2615 -0.2451  0.0239
 9452TIP3    H149847   4.930   5.838   6.542 -0.2624 -1.0255 -0.7356
 9452TIP3    H249848   4.909   5.987   6.524 -0.7185 -0.8516  1.0175
 9453TIP3   OH249849   0.994   1.949   5.767  0.2331  0.1381  0.2105
 9453TIP3    H149850   0.932   1.990   5.827  0.0830  0.9897 -0.5060
 9453TIP3    H249851   1.074   2.001   5.776  0.5356 -0.3453  0.3961
 9454TIP3   OH249852   3.520   0.433   2.665 -0.1152 -0.2229  0.2302
 9454TIP3    H149853   3.492   0.525   2.659  1.9704  0.4017 -0.7535
 9454TIP3    H249854   3.462   0.396   2.731 -2.3591  1.2520 -0.7698
 9455TIP3   OH249855   0.969   0.566  10.697  0.8752  0.0163  0.2889
 9455TIP3    H149856   0.875   0.577  10.712  0.8868 -0.4764  0.7552
 9455TIP3    H249857   0.987   0.617  10.618  0.1077 -0.3599 -0.1374
 9456TIP3   OH249858   3.247   4.200   1.805  0.4750 -0.6824 -0.4658
 9456TIP3    H149859   3.282   4.149   1.731  0.2155  0.9807 -1.7995
 9456TIP3    H249860   3.285   4.287   1.793 -1.8245  0.3939 -0.3050
 9457TIP3   OH249861   4.897   6.655   3.837 -0.2602  0.3352  0.3551
 9457TIP3    H149862   4.854   6.673   3.921 -1.2343  1.7793 -0.4143
 9457TIP3    H249863   4.882   6.734   3.785  1.1143 -0.1770 -0.8714
 9458TIP3   OH249864   5.960   6.079  13.072 -0.6404  0.4113 -0.1690
 9458TIP3    H149865   6.048   6.044  13.059 -0.4981  0.3666  0.8141
 9458TIP3    H249866   5.974   6.167  13.108 -0.9868  1.7744 -3.0977
 9459TIP3   OH249867   5.173   5.716   4.358 -0.4348 -0.1324 -0.0189
 9459TIP3    H149868   5.245   5.675   4.311 -0.8219  1.8441 -2.6193
 9459TIP3    H249869   5.098   5.658   4.343  0.2296 -1.4188  1.4167
 9460TIP3   OH249870   1.150   0.249  13.987  0.0793  0.6865 -0.1967
 9460TIP3    H149871   1.107   0.206  14.061  2.0073 -0.7048  0.1898
 9460TIP3    H249872   1.179   0.177  13.931  2.1657  1.5037 -0.2507
 9461TIP3   OH249873   6.611   4.421   5.366 -0.1741 -0.6415 -0.3816
 9461TIP3    H149874   6.546   4.362   5.328  0.6345 -1.6394 -0.2417
 9461TIP3    H249875   6.692   4.370   5.368 -0.1870 -0.7306  2.8159
 9462TIP3   OH249876   1.363   4.580   2.959 -0.1254 -0.0107 -0.0862
 9462TIP3    H149877   1.348   4.485   2.962 -0.9243  0.1415  1.1445
 9462TIP3    H249878   1.454   4.591   2.988 -0.1551 -0.3704  0.1447
 9463TIP3   OH249879   0.794   5.229  15.075  0.7653 -0.4650  0.2971
 9463TIP3    H149880   0.828   5.180  15.001 -0.7794 -0.0971 -0.6948
 9463TIP3    H249881   0.702   5.245  15.054  0.7954  1.4219  1.3285
 9464TIP3   OH249882   5.150   1.024   3.042  0.2930  0.7800  0.4241
 9464TIP3    H149883   5.128   0.933   3.065  0.7164  0.6701  0.3937
 9464TIP3    H249884   5.120   1.075   3.117 -1.4033  0.7989 -0.2320
 9465TIP3   OH249885   2.603   1.799   2.251  0.0486  0.0664 -0.2582
 9465TIP3    H149886   2.569   1.807   2.162 -0.7163 -1.5418 -0.1548
 9465TIP3    H249887   2.528   1.767   2.302  0.9771 -0.8953  0.5565
 9466TIP3   OH249888   5.655   0.213   4.633 -0.0203 -0.1226 -0.1741
 9466TIP3    H149889   5.689   0.194   4.545  1.6001 -0.6210  0.5281
 9466TIP3    H249890   5.646   0.128   4.674 -1.5545  0.0504 -0.1048
 9467TIP3   OH249891   6.283   0.434   2.908 -0.1223 -0.0868  0.1314
 9467TIP3    H149892   6.241   0.395   2.985  0.8124  1.0931  1.3158
 9467TIP3    H249893   6.376   0.414   2.919 -0.2634 -3.0427 -2.6641
 9468TIP3   OH249894   3.853   1.677  15.136  0.1045 -0.1312  0.3481
 9468TIP3    H149895   3.849   1.758  15.187 -0.6460  0.1260 -0.1105
 9468TIP3    H249896   3.919   1.624  15.181  0.2053  0.5087  0.9746
 9469TIP3   OH249897   1.116   2.553  17.238 -0.0898  0.0417  0.2504
 9469TIP3    H149898   1.190   2.553  17.300  0.7744  0.8818 -0.7348
 9469TIP3    H249899   1.063   2.628  17.265  1.5895  1.9804 -1.4190
 9470TIP3   OH249900   1.528   6.338  13.827 -0.1793 -0.1560  0.5061
 9470TIP3    H149901   1.597   6.401  13.807 -0.0404 -0.3506  0.3653
 9470TIP3    H249902   1.473   6.335  13.749  0.0492 -0.5097  0.3549
 9471TIP3   OH249903   6.711   5.163  11.662 -0.0150 -0.4984  0.0985
 9471TIP3    H149904   6.622   5.165  11.699  0.2508 -0.6899  0.7588
 9471TIP3    H249905   6.759   5.228  11.712 -0.4699  1.6801 -2.1259
 9472TIP3   OH249906   3.386   1.573   2.157  0.2935  0.4959 -0.2050
 9472TIP3    H149907   3.420   1.661   2.139  0.7768  0.3030 -0.2665
 9472TIP3    H249908   3.293   1.586   2.172  0.3089  0.9829 -0.4895
 9473TIP3   OH249909   3.910   2.530  13.146 -0.3518 -0.5070  0.0812
 9473TIP3    H149910   3.825   2.516  13.104 -0.8727 -1.5094  1.3845
 9473TIP3    H249911   3.889   2.543  13.239  0.8521  0.2748  0.2719
 9474TIP3   OH249912   6.583   0.805   4.176 -0.9902  0.2299  0.3331
 9474TIP3    H149913   6.596   0.727   4.230 -1.5928  0.4756  0.8370
 9474TIP3    H249914   6.489   0.822   4.179 -0.8395  1.1064  0.4053
 9475TIP3   OH249915   4.838   4.794   2.697 -0.2284  0.0947 -0.1541
 9475TIP3    H149916   4.750   4.762   2.718  0.3390 -1.7705 -0.4511
 9475TIP3    H249917   4.876   4.724   2.643  2.0877  0.0121  1.4869
 9476TIP3   OH249918   3.558   1.407  17.274  0.0214 -0.2434 -1.0561
 9476TIP3    H149919   3.543   1.458  17.353 -2.0884 -0.4591 -1.2462
 9476TIP3    H249920   3.649   1.379  17.279 -0.3012 -1.0789  1.7779
 9477TIP3   OH249921   6.250   0.685   0.342  0.5764  0.2851 -0.6353
 9477TIP3    H149922   6.303   0.628   0.397  0.8129 -0.2392 -1.3846
 9477TIP3    H249923   6.174   0.707   0.396  0.7120 -0.3661 -0.1653
 9478TIP3   OH249924   0.667   6.474   2.439  0.1142 -0.4024  0.1587
 9478TIP3    H149925   0.734   6.410   2.460  1.5021  0.4632 -1.4301
 9478TIP3    H249926   0.693   6.553   2.488 -0.0472 -0.2253 -0.0391
 9479TIP3   OH249927   2.679   6.295  11.308  0.2373 -0.2864  0.2657
 9479TIP3    H149928   2.744   6.338  11.253 -0.6687  2.2308  1.0468
 9479TIP3    H249929   2.681   6.343  11.391 -2.1732 -0.5346  0.5313
 9480TIP3   OH249930   1.955   3.206  16.863 -0.3577  0.8182 -0.1643
 9480TIP3    H149931   1.969   3.301  16.860 -0.3235  0.9079  1.7379
 9480TIP3    H249932   1.915   3.190  16.948 -0.2933 -0.9084 -0.4138
 9481TIP3   OH249933   6.197   6.462  12.306  0.3732  0.0098 -0.3038
 9481TIP3    H149934   6.232   6.407  12.236  3.1351 -0.0375  1.0005
 9481TIP3    H249935   6.114   6.419  12.330  1.6447 -2.6954 -0.4065
 9482TIP3   OH249936   4.199   4.015  12.898  0.4501 -0.3116  0.2491
 9482TIP3    H149937   4.228   3.987  12.985  0.5492  0.5244  0.4975
 9482TIP3    H249938   4.174   3.934  12.853 -0.2736 -0.6928  1.2995
 9483TIP3   OH249939   5.582   1.607  16.122 -0.3893  0.0899  0.6709
 9483TIP3    H149940   5.639   1.556  16.179 -0.3967  1.4437  1.9644
 9483TIP3    H249941   5.500   1.559  16.119  0.6101 -1.6325 -0.8088
 9484TIP3   OH249942   0.017   4.410   4.299  0.1152 -0.2602  0.4849
 9484TIP3    H149943   0.002   4.317   4.285  0.0809 -0.3799  1.2366
 9484TIP3    H249944  -0.068   4.451   4.283  0.3602 -0.2321 -0.7884
 9485TIP3   OH249945   3.869   4.792   3.302 -0.1195  0.2533 -0.1317
 9485TIP3    H149946   3.957   4.831   3.298  0.5380 -1.0343  1.0157
 9485TIP3    H249947   3.841   4.807   3.393 -0.5856 -0.3934 -0.1643
 9486TIP3   OH249948   4.506   6.070  16.060 -0.0335 -0.1536 -0.0505
 9486TIP3    H149949   4.521   6.129  15.986 -1.3370  3.4700  2.3042
 9486TIP3    H249950   4.591   6.064  16.103  0.3539 -0.9461 -0.8962
 9487TIP3   OH249951   2.579   0.711  12.094 -0.2161  0.9819  0.4064
 9487TIP3    H149952   2.567   0.638  12.034 -0.6130  2.3294 -1.2291
 9487TIP3    H249953   2.654   0.759  12.059  0.3963  1.0737  1.7814
 9488TIP3   OH249954   0.022   5.324  14.796 -0.1628 -0.4810 -0.1543
 9488TIP3    H149955   0.104   5.294  14.834  0.4672 -0.5621 -1.5464
 9488TIP3    H249956   0.002   5.405  14.844 -0.9626 -2.0593  2.3947
 9489TIP3   OH249957   1.492   5.769  17.035  0.2499  0.0664  0.0717
 9489TIP3    H149958   1.484   5.779  17.130 -0.2783 -1.1250  0.1728
 9489TIP3    H249959   1.577   5.807  17.014  1.2574 -1.4064  1.3095
 9490TIP3   OH249960   1.249   2.016  12.507 -0.2815  0.1918  0.3643
 9490TIP3    H149961   1.220   2.105  12.484 -1.0244 -0.2451 -0.4435
 9490TIP3    H249962   1.289   2.026  12.594 -3.1152  0.8015  1.7163
 9491TIP3   OH249963   1.784   1.873   3.639  0.0252  0.0645 -0.3672
 9491TIP3    H149964   1.704   1.822   3.628  1.2790 -2.1841  0.3612
 9491TIP3    H249965   1.753   1.961   3.660 -2.2792 -0.9744  1.0281
 9492TIP3   OH249966   2.147   6.497  15.377 -0.4329  0.3546  0.0558
 9492TIP3    H149967   2.075   6.529  15.432 -0.5271  0.9350 -0.3927
 9492TIP3    H249968   2.225   6.539  15.414 -0.1941 -0.8435  1.0022
 9493TIP3   OH249969   0.646   1.428  16.896  0.0946  0.3017 -0.3484
 9493TIP3    H149970   0.573   1.440  16.956 -1.2104  1.6164 -2.1098
 9493TIP3    H249971   0.613   1.369  16.829  0.7023  0.7153 -1.0324
 9494TIP3   OH249972   3.678   0.699  11.526 -0.7145  0.9740  0.4146
 9494TIP3    H149973   3.674   0.794  11.511  0.6289  1.3180  2.0082
 9494TIP3    H249974   3.756   0.670  11.478 -2.0138  0.3385 -1.4357
 9495TIP3   OH249975   3.104   1.835   6.866  0.1283 -0.0742 -0.1970
 9495TIP3    H149976   3.195   1.828   6.893  0.0133  0.3714  0.3169
 9495TIP3    H249977   3.108   1.877   6.780  0.3070  2.1218  0.8286
 9496TIP3   OH249978   1.897   1.712   0.287 -0.0299  0.8161  0.2219
 9496TIP3    H149979   1.838   1.653   0.333  0.0016  0.2451 -0.4511
 9496TIP3    H249980   1.968   1.728   0.349 -0.6716  1.1776  0.8796
 9497TIP3   OH249981   3.479   5.233  16.947 -0.7108  0.0613  0.5380
 9497TIP3    H149982   3.538   5.209  16.875  0.3682  0.9483  1.0804
 9497TIP3    H249983   3.477   5.328  16.944  0.0886  0.1582  2.2232
 9498TIP3   OH249984   6.579   5.666   2.399 -0.3930 -0.2416 -0.6014
 9498TIP3    H149985   6.568   5.573   2.376 -1.0216  0.3124 -2.8237
 9498TIP3    H249986   6.600   5.666   2.492 -0.5755 -2.6028 -0.5086
 9499TIP3   OH249987   2.964   4.577  12.800  0.4147  0.5027  0.1498
 9499TIP3    H149988   3.031   4.559  12.733 -0.4540  0.0659 -0.6247
 9499TIP3    H249989   2.913   4.496  12.805 -0.3937  1.0131  0.3211
 9500TIP3   OH249990   3.538   0.536   1.379  0.1643  0.2941  0.3092
 9500TIP3    H149991   3.625   0.507   1.405 -0.2014 -1.3245 -0.1878
 9500TIP3    H249992   3.516   0.482   1.303 -1.6111  0.0855  0.9327
 9501TIP3   OH249993   5.458   0.592  17.461 -0.6424  0.2997  0.2644
 9501TIP3    H149994   5.403   0.647  17.517 -1.4342 -1.5375  1.3810
 9501TIP3    H249995   5.491   0.524  17.520 -0.0724 -0.6948 -1.1651
 9502TIP3   OH249996   6.208   6.697   3.387 -0.0943 -0.1415  0.2214
 9502TIP3    H149997   6.227   6.702   3.480 -1.4753  0.5151  0.4997
 9502TIP3    H249998   6.117   6.727   3.379  0.3616  0.9531 -1.4656
 9503TIP3   OH249999   2.641   4.741  14.923  0.0190 -0.5622  0.3755
 9503TIP3    H150000   2.585   4.664  14.915  1.3366 -1.5139 -0.0546
 9503TIP3    H250001   2.672   4.759  14.834  0.1123  0.1722  0.5444
 9504TIP3   OH250002   0.176   3.923   5.464 -0.7416  0.4902 -0.0513
 9504TIP3    H150003   0.189   3.996   5.525  1.5653  1.0839 -1.1391
 9504TIP3    H250004   0.213   3.955   5.381  3.0534 -2.8014  0.0910
 9505TIP3   OH250005   0.793   2.829  12.821  0.2623  0.2863 -0.5541
 9505TIP3    H150006   0.770   2.829  12.727  1.3678  0.0960 -0.8338
 9505TIP3    H250007   0.785   2.738  12.847  2.6591 -0.1526 -1.1713
 9506TIP3   OH250008   5.455   6.350   0.171 -0.3017  0.1560  0.3135
 9506TIP3    H150009   5.533   6.297   0.154 -1.0063 -0.8482  0.1324
 9506TIP3    H250010   5.476   6.436   0.133  0.4853 -0.2779 -0.2715
 9507TIP3   OH250011   0.246   5.267   4.467  0.6715 -0.0925  0.0393
 9507TIP3    H150012   0.271   5.185   4.510  0.4273 -0.6045 -0.7870
 9507TIP3    H250013   0.153   5.258   4.448  0.6992  0.2738 -0.2885
 9508TIP3   OH250014   6.185   5.380  14.289 -0.6680  0.1950  0.3963
 9508TIP3    H150015   6.189   5.319  14.216 -1.2733  0.0131  0.5111
 9508TIP3    H250016   6.155   5.462  14.250  1.1238  0.7376  0.0551
 9509TIP3   OH250017   6.598   6.678   3.221  0.2401 -0.4963 -0.1597
 9509TIP3    H150018   6.581   6.593   3.261 -0.6026 -0.2199  0.0814
 9509TIP3    H250019   6.688   6.699   3.248 -0.4956 -0.0469  2.1387
 9510TIP3   OH250020   5.626   4.198   0.762  0.7032 -0.2193  0.1769
 9510TIP3    H150021   5.634   4.252   0.684  0.8185  0.1242  0.4259
 9510TIP3    H250022   5.714   4.197   0.799  0.4949  0.1984  0.6877
 9511TIP3   OH250023   2.477   4.209   0.727  0.2205  0.4186  0.6502
 9511TIP3    H150024   2.386   4.182   0.734 -0.0521  1.4149  1.0636
 9511TIP3    H250025   2.523   4.156   0.792  0.1349 -0.8645 -0.3027
 9512TIP3   OH250026   5.595   3.544  17.120  0.4600 -0.1528  0.0799
 9512TIP3    H150027   5.606   3.566  17.028 -2.5451 -2.2789 -0.9400
 9512TIP3    H250028   5.501   3.531  17.131  0.8370 -1.1917  3.1527
 9513TIP3   OH250029   5.966   3.661   1.554  0.0116 -0.1498  0.2233
 9513TIP3    H150030   5.940   3.628   1.468  1.9403 -2.1822  0.3206
 9513TIP3    H250031   6.048   3.616   1.573  0.6127  1.6512  2.3430
 9514TIP3   OH250032   1.315   5.697  16.567  0.4186  0.4589 -0.0584
 9514TIP3    H150033   1.276   5.738  16.644 -1.2481 -0.9187 -0.1120
 9514TIP3    H250034   1.250   5.711  16.498 -0.6370 -2.8529  0.1167
 9515TIP3   OH250035   1.362   4.902   0.550  0.2560 -0.6877  0.2184
 9515TIP3    H150036   1.323   4.819   0.520 -0.3890 -0.6948  1.0327
 9515TIP3    H250037   1.307   4.970   0.510 -0.7415 -0.6995  1.5011
 9516TIP3   OH250038   4.019   3.815   1.854  0.1302  0.2440 -0.5602
 9516TIP3    H150039   3.954   3.880   1.882 -1.4204 -0.7922 -1.5967
 9516TIP3    H250040   4.081   3.865   1.801 -0.7443  0.9946 -0.9032
 9517TIP3   OH250041   3.939   2.755  10.871 -0.4704 -0.0527  0.1598
 9517TIP3    H150042   3.988   2.827  10.831 -0.7108 -0.1025 -0.2218
 9517TIP3    H250043   4.007   2.697  10.905 -0.2736  0.3984  0.5529
 9518TIP3   OH250044   0.370   3.627  12.162 -0.2613  0.0014  0.0979
 9518TIP3    H150045   0.418   3.620  12.245  0.1208 -0.0079 -0.1212
 9518TIP3    H250046   0.305   3.695  12.178 -0.7493 -0.5951  0.6743
 9519TIP3   OH250047   5.514   4.989   0.077  0.1380  0.4708 -0.1705
 9519TIP3    H150048   5.498   5.066   0.023 -2.6829 -0.4689 -0.8411
 9519TIP3    H250049   5.587   4.944   0.033  1.1982  2.2274 -0.2948
 9520TIP3   OH250050   2.951   1.123   0.874 -0.9100 -0.2663 -0.0138
 9520TIP3    H150051   2.945   1.154   0.783 -0.5419  0.1438  0.0946
 9520TIP3    H250052   3.032   1.072   0.876  0.3901  1.6785  0.6145
 9521TIP3   OH250053   4.720   5.897   5.275 -0.9214 -0.1204  0.5955
 9521TIP3    H150054   4.789   5.861   5.331 -0.2799  0.2211  0.0323
 9521TIP3    H250055   4.676   5.961   5.331  0.0557  0.5983  0.5634
 9522TIP3   OH250056   2.681   0.586   5.315 -0.0827  0.3861 -0.1554
 9522TIP3    H150057   2.740   0.531   5.263  1.6340  0.4012  1.6943
 9522TIP3    H250058   2.736   0.623   5.383 -1.7327  2.4947  0.1117
 9523TIP3   OH250059   5.390   0.944  12.152  0.0775  0.9106 -0.6223
 9523TIP3    H150060   5.368   0.861  12.109 -0.6862 -0.1854  1.7191
 9523TIP3    H250061   5.484   0.955  12.136  0.6365 -1.4521  0.5777
 9524TIP3   OH250062   5.931   3.897  11.846 -0.4670 -0.0090  0.0719
 9524TIP3    H150063   5.842   3.864  11.853 -1.1125  1.7078  0.3575
 9524TIP3    H250064   5.982   3.840  11.903 -0.9484 -2.2979 -1.6225
 9525TIP3   OH250065   1.327   0.809  14.140 -0.5747  0.0022 -0.0468
 9525TIP3    H150066   1.258   0.766  14.090  1.1204 -0.4514 -2.1485
 9525TIP3    H250067   1.318   0.902  14.118 -1.2877  0.1305  0.7291
 9526TIP3   OH250068   6.182   2.835   4.224 -0.9418 -0.2821  0.4620
 9526TIP3    H150069   6.191   2.789   4.141  2.5524  0.9223  0.0323
 9526TIP3    H250070   6.130   2.776   4.278 -0.2288 -2.7937 -1.4020
 9527TIP3   OH250071   3.662   2.765  11.711 -0.9977  0.4030  0.6321
 9527TIP3    H150072   3.707   2.694  11.755 -1.5589  0.3048  1.0605
 9527TIP3    H250073   3.727   2.835  11.706 -0.4714 -0.1005  0.2903
 9528TIP3   OH250074   0.982   1.897   4.186  0.2520 -0.4089 -0.0217
 9528TIP3    H150075   1.062   1.886   4.135  0.1467  0.5186 -0.3938
 9528TIP3    H250076   0.933   1.965   4.141 -0.9469 -1.2435 -0.0334
 9529TIP3   OH250077   4.843   2.459   5.141  0.0326 -0.3655  0.1790
 9529TIP3    H150078   4.835   2.534   5.082  0.3580  0.0939  0.7041
 9529TIP3    H250079   4.858   2.384   5.083  2.1049  0.3289 -0.2908
 9530TIP3   OH250080   0.809   5.689  16.934  0.6294 -0.7338  0.4572
 9530TIP3    H150081   0.895   5.724  16.910  0.0730  0.9566  0.7519
 9530TIP3    H250082   0.808   5.690  17.030  0.6169 -1.6654  0.4796
 9531TIP3   OH250083   4.312   0.746   6.133 -0.2050  0.2899  0.4668
 9531TIP3    H150084   4.266   0.820   6.093 -0.5983 -0.1924  0.0183
 9531TIP3    H250085   4.326   0.773   6.224  0.9924  1.5284 -0.0537
 9532TIP3   OH250086   5.749   2.901   4.650  0.4486 -0.1795 -0.0519
 9532TIP3    H150087   5.675   2.849   4.620  0.4422  0.0093 -0.3602
 9532TIP3    H250088   5.813   2.837   4.679 -0.0796 -0.3406  0.8151
 9533TIP3   OH250089   2.553   3.134   3.872 -0.0740  0.4137 -0.2346
 9533TIP3    H150090   2.647   3.116   3.869 -0.1034  0.1777  0.1714
 9533TIP3    H250091   2.513   3.049   3.892 -0.4328  0.3532 -1.1747
 9534TIP3   OH250092   5.101   3.194   5.477 -0.7923  0.0732 -0.3240
 9534TIP3    H150093   5.176   3.180   5.534  0.1303  1.5224 -1.1261
 9534TIP3    H250094   5.113   3.283   5.442 -1.2901 -0.7288 -2.7513
 9535TIP3   OH250095   1.133   2.332   5.134 -0.1590  0.2713  0.4666
 9535TIP3    H150096   1.134   2.237   5.140 -0.9627  0.3165  1.9380
 9535TIP3    H250097   1.051   2.357   5.177 -0.4813  1.5836 -0.8283
 9536TIP3   OH250098   1.256   5.887  11.720 -0.1919 -0.3566  0.5130
 9536TIP3    H150099   1.269   5.954  11.653 -2.7832 -1.1268 -0.8747
 9536TIP3    H250100   1.192   5.924  11.780  0.8400 -0.3489  1.6503
 9537TIP3   OH250101   6.699   5.468  13.281 -0.3036  0.6579 -0.1488
 9537TIP3    H150102   6.754   5.535  13.241 -1.8994  1.1469 -1.6937
 9537TIP3    H250103   6.668   5.415  13.207 -1.2096 -0.1083  0.7408
 9538TIP3   OH250104   3.286   5.122   0.014  0.0971  0.2823  0.1041
 9538TIP3    H150105   3.333   5.154  -0.063 -1.1435  1.4363 -0.2152
 9538TIP3    H250106   3.351   5.122   0.084  0.6283  1.6771 -0.3465
 9539TIP3   OH250107   5.507   6.173   0.394  0.4885 -0.0146  0.0565
 9539TIP3    H150108   5.506   6.219   0.309  0.0210 -1.2447 -0.6201
 9539TIP3    H250109   5.467   6.235   0.455  0.6695  0.8212 -0.6535
 9540TIP3   OH250110   6.740   6.335  17.174  0.4025 -0.7961 -0.3724
 9540TIP3    H150111   6.810   6.309  17.114  0.9422 -1.2259  0.4210
 9540TIP3    H250112   6.770   6.305  17.260  0.2062  0.8621  0.3033
 9541TIP3   OH250113   1.137   1.687   0.488 -0.1577  0.2151  0.0681
 9541TIP3    H150114   1.103   1.598   0.496 -1.5163  0.8098  1.4739
 9541TIP3    H250115   1.081   1.739   0.546 -0.6997  2.3542 -2.2237
 9542TIP3   OH250116   3.518   1.774   5.388 -0.3976 -0.1781 -0.0688
 9542TIP3    H150117   3.592   1.751   5.332 -0.9328  0.6513 -1.1640
 9542TIP3    H250118   3.533   1.865   5.413  0.4451 -0.8862  2.1849
 9543TIP3   OH250119   2.784   0.187   2.459 -0.3601  0.4266  0.0069
 9543TIP3    H150120   2.737   0.108   2.485  0.0305  0.1471 -0.1499
 9543TIP3    H250121   2.785   0.184   2.364  2.8213 -1.2595 -0.0272
 9544TIP3   OH250122   0.577   4.132  15.359  0.4584  0.1924  0.8353
 9544TIP3    H150123   0.614   4.210  15.319  0.7509 -1.0120 -1.3713
 9544TIP3    H250124   0.483   4.139  15.343  0.4228  0.3067  1.0789
 9545TIP3   OH250125   3.095   0.524  16.430  0.2334  0.4366  0.3601
 9545TIP3    H150126   3.046   0.442  16.432 -0.3203  0.6847 -1.1233
 9545TIP3    H250127   3.094   0.555  16.520 -1.4972 -0.0840  0.5544
 9546TIP3   OH250128   6.506   6.187  17.229  0.0397  0.1598 -0.2838
 9546TIP3    H150129   6.563   6.239  17.173  1.2823 -0.3376  0.4792
 9546TIP3    H250130   6.465   6.250  17.288 -0.1411  0.5175 -0.7911
 9547TIP3   OH250131   2.439   5.499  11.264  0.0407  0.1213  0.4432
 9547TIP3    H150132   2.403   5.568  11.208  1.0867 -0.2982 -0.7908
 9547TIP3    H250133   2.524   5.533  11.293 -0.8945  0.7389  2.6183
 9548TIP3   OH250134   3.740   6.573   1.997 -0.0741  0.1161  0.5644
 9548TIP3    H150135   3.659   6.526   2.017 -0.4518 -0.0092 -1.1073
 9548TIP3    H250136   3.748   6.639   2.066 -2.5818  1.3362 -0.2080
 9549TIP3   OH250137   6.038   0.532   5.894 -0.1173  0.5371 -0.3790
 9549TIP3    H150138   5.992   0.520   5.977 -0.5451  0.0699 -0.6748
 9549TIP3    H250139   6.043   0.627   5.882  0.9124  0.6444  0.7054
 9550TIP3   OH250140   2.038   4.876  12.403  0.3269 -0.4647  0.3109
 9550TIP3    H150141   1.955   4.919  12.424 -0.0144  0.2430 -2.1639
 9550TIP3    H250142   2.101   4.914  12.464 -1.1730 -1.2689  2.4740
 9551TIP3   OH250143   5.341   4.867   3.522 -0.1312 -0.3046  0.0637
 9551TIP3    H150144   5.340   4.959   3.496  0.4221 -0.3853 -0.2459
 9551TIP3    H250145   5.408   4.862   3.590 -0.8676 -0.2924  0.8121
 9552TIP3   OH250146   2.600   3.989   4.930  0.0365 -0.1046  0.4777
 9552TIP3    H150147   2.524   3.978   4.872 -0.2449  0.3779  0.7477
 9552TIP3    H250148   2.622   3.900   4.958  1.0859 -0.5113 -1.5100
 9553TIP3   OH250149   5.058   2.591   1.632 -0.0859  0.1476 -0.5333
 9553TIP3    H150150   4.993   2.638   1.684  0.1029  2.2388 -2.0598
 9553TIP3    H250151   5.017   2.579   1.547  1.1724  0.7633 -1.2672
 9554TIP3   OH250152   2.290   1.341  16.655 -0.2613 -0.3317  0.2474
 9554TIP3    H150153   2.212   1.397  16.654  0.0568  0.2169 -2.3861
 9554TIP3    H250154   2.348   1.381  16.719 -0.5389  1.7176 -0.6992
 9555TIP3   OH250155   5.342   6.325  14.343  0.4013  0.6770 -0.2523
 9555TIP3    H150156   5.378   6.327  14.254  0.3202  1.4976 -0.2779
 9555TIP3    H250157   5.278   6.396  14.344  1.0929  1.3045  0.7454
 9556TIP3   OH250158   4.645   4.012  15.518  0.0372 -0.1344 -0.5746
 9556TIP3    H150159   4.577   3.988  15.581  2.0523  0.1947  1.9069
 9556TIP3    H250160   4.697   3.932  15.508 -0.3883 -0.2509 -2.0785
 9557TIP3   OH250161   0.144   5.649  15.765 -0.7628  0.2727  0.0039
 9557TIP3    H150162   0.112   5.559  15.758 -0.9218  0.3741 -0.6203
 9557TIP3    H250163   0.160   5.662  15.858 -1.3883 -0.1793  0.1787
 9558TIP3   OH250164   1.556   0.127   4.289 -0.4682 -0.1628  0.1952
 9558TIP3    H150165   1.520   0.181   4.218 -2.7710 -1.7967 -0.0137
 9558TIP3    H250166   1.638   0.170   4.313 -1.0032  2.0321 -1.5406
 9559TIP3   OH250167   5.608   4.493   6.537 -0.2089  0.0447  0.2938
 9559TIP3    H150168   5.537   4.444   6.496  1.3791 -0.4611 -2.0450
 9559TIP3    H250169   5.629   4.563   6.476 -0.0922  1.5350  1.9582
 9560TIP3   OH250170   6.188   2.518   1.960 -0.3133  0.3744  0.3082
 9560TIP3    H150171   6.179   2.612   1.973 -1.2110  0.0015  2.8669
 9560TIP3    H250172   6.275   2.497   1.995 -1.4680 -0.1830  3.0270
 9561TIP3   OH250173   1.857   2.428  13.474  0.1316  0.4619 -0.0711
 9561TIP3    H150174   1.788   2.369  13.445  0.5928 -0.8267  1.3123
 9561TIP3    H250175   1.811   2.507  13.503 -0.8739 -0.6382  1.5052
 9562TIP3   OH250176   4.307   3.307   4.539  0.2863  0.0246 -0.0312
 9562TIP3    H150177   4.316   3.231   4.481  0.6311  1.2152 -1.6024
 9562TIP3    H250178   4.397   3.332   4.558  0.1790  0.5024 -0.1553
 9563TIP3   OH250179   3.971   4.367  11.602 -0.0557 -0.7180  0.2250
 9563TIP3    H150180   4.026   4.301  11.644  0.8073  0.0391  0.3236
 9563TIP3    H250181   3.897   4.318  11.567  0.9962 -1.8860 -0.4705
 9564TIP3   OH250182   1.864   0.043   2.599  0.7184  0.4014 -0.4636
 9564TIP3    H150183   1.827  -0.041   2.573  0.3088  0.3413  0.2921
 9564TIP3    H250184   1.936   0.057   2.538  1.7714 -1.2253  0.3172
 9565TIP3   OH250185   6.743   1.068  13.025 -0.2357 -0.1853  0.0096
 9565TIP3    H150186   6.673   1.062  13.091 -0.8008  1.7649 -0.3639
 9565TIP3    H250187   6.809   1.124  13.065 -0.1849  0.3047 -0.7480
 9566TIP3   OH250188   6.492   2.964   5.293  0.3285 -0.2774 -0.2302
 9566TIP3    H150189   6.452   2.985   5.377  0.4897  0.2955 -0.2927
 9566TIP3    H250190   6.441   2.890   5.260 -0.5207  0.2823 -0.1949
 9567TIP3   OH250191   2.650   2.130  12.429 -0.2942 -0.1116  0.2825
 9567TIP3    H150192   2.705   2.200  12.394 -0.0799 -0.8482 -0.8994
 9567TIP3    H250193   2.696   2.102  12.508  0.1848  0.3622  0.1795
 9568TIP3   OH250194   4.930   5.238   1.311 -0.4777  0.1691  0.9404
 9568TIP3    H150195   4.868   5.307   1.286  0.0319  0.3657  0.1740
 9568TIP3    H250196   4.876   5.171   1.353 -1.3965 -0.1424 -0.6423
 9569TIP3   OH250197   4.853   3.310   2.529  0.5303 -0.4628  0.0061
 9569TIP3    H150198   4.829   3.392   2.486  0.7641 -0.9234 -1.0356
 9569TIP3    H250199   4.933   3.283   2.485  0.4491 -1.2558  0.3387
 9570TIP3   OH250200   5.645   6.726   4.710 -0.1527 -0.1909 -0.0104
 9570TIP3    H150201   5.625   6.668   4.637  1.4632 -1.0185  0.1505
 9570TIP3    H250202   5.713   6.680   4.759 -0.4300  0.8380  1.4084
 9571TIP3   OH250203   2.599   4.299   2.495  0.9816 -0.1363 -0.1455
 9571TIP3    H150204   2.632   4.289   2.584  1.5917 -0.0776 -0.3565
 9571TIP3    H250205   2.660   4.361   2.455 -0.1519  1.0010 -0.1625
 9572TIP3   OH250206   1.244   0.284  16.451  0.0883  0.6352 -0.2605
 9572TIP3    H150207   1.319   0.322  16.496 -0.0573  1.3053 -0.5695
 9572TIP3    H250208   1.283   0.227  16.384  0.3093  0.3895  0.0738
 9573TIP3   OH250209   1.186   1.313  11.670 -0.2155 -0.3008  0.3524
 9573TIP3    H150210   1.189   1.369  11.747  0.2651 -0.4195  0.4238
 9573TIP3    H250211   1.100   1.330  11.631 -0.1232  0.3950  0.4362
 9574TIP3   OH250212   3.979   5.182  15.190 -0.0057  0.1693  0.3096
 9574TIP3    H150213   3.949   5.093  15.174  1.0406 -0.2844  0.8117
 9574TIP3    H250214   3.905   5.237  15.164 -1.4638 -0.9228  1.9091
 9575TIP3   OH250215   6.661   4.081   2.909 -0.0332 -0.3039  0.6668
 9575TIP3    H150216   6.614   4.075   2.992 -1.2644  2.6153  0.3126
 9575TIP3    H250217   6.737   4.136   2.928  1.0735 -1.6724  0.3538
 9576TIP3   OH250218   0.456   3.304   2.025  0.1030  0.0933  1.0649
 9576TIP3    H150219   0.422   3.332   2.110  0.5470 -2.4155  2.1648
 9576TIP3    H250220   0.418   3.217   2.011  2.6182 -0.9896  0.3280
 9577TIP3   OH250221   1.181   3.688  16.486  0.0466 -0.1053  0.1594
 9577TIP3    H150222   1.211   3.664  16.398  0.5003 -0.9303  0.5345
 9577TIP3    H250223   1.085   3.683  16.481  0.0906 -0.7367 -0.1264
 9578TIP3   OH250224   2.391   0.312   1.160  0.4931 -0.3568  0.1672
 9578TIP3    H150225   2.337   0.345   1.088  1.2560  0.3189 -0.1148
 9578TIP3    H250226   2.332   0.306   1.234  0.1306  0.8234 -0.0151
 9579TIP3   OH250227   1.563   3.019  13.409 -0.6381  0.2055  0.1018
 9579TIP3    H150228   1.607   2.937  13.388 -0.6338  0.6526 -1.7819
 9579TIP3    H250229   1.469   2.997  13.406 -0.6622 -0.3237  2.3579
 9580TIP3   OH250230   2.373   4.225   5.742 -0.2539  0.1952 -0.1136
 9580TIP3    H150231   2.329   4.235   5.826  0.9051  1.4026  0.3920
 9580TIP3    H250232   2.319   4.163   5.693 -0.9958 -0.4535  1.4813
 9581TIP3   OH250233   2.390   1.458  16.408  0.0043 -0.5541  0.2798
 9581TIP3    H150234   2.376   1.421  16.495 -0.3590  1.9870  1.3989
 9581TIP3    H250235   2.481   1.437  16.388  0.5118 -0.1047  1.8996
 9582TIP3   OH250236   3.027   5.494   5.401 -0.3253  0.0232 -0.2283
 9582TIP3    H150237   3.060   5.424   5.345  1.2428  0.4992  0.0666
 9582TIP3    H250238   3.066   5.574   5.367  1.2156  0.2514  1.8892
 9583TIP3   OH250239   1.683   1.970   3.236  0.4453  0.1192  0.4275
 9583TIP3    H150240   1.673   1.953   3.329 -1.9997 -1.0492  0.0484
 9583TIP3    H250241   1.678   1.883   3.195 -0.4037  0.7411 -0.8676
 9584TIP3   OH250242   4.379   3.985  15.654  0.7590  0.0531  0.7246
 9584TIP3    H150243   4.395   3.891  15.667  0.6013  0.1418  1.6022
 9584TIP3    H250244   4.286   3.991  15.633  1.0278 -0.0973 -0.5686
 9585TIP3   OH250245   2.484   4.487  14.633  0.4899  0.3819 -0.3123
 9585TIP3    H150246   2.562   4.444  14.669 -1.5309 -1.8985  1.7506
 9585TIP3    H250247   2.434   4.513  14.710 -0.4806  2.5142 -1.5925
 9586TIP3   OH250248   0.723   0.879   0.123  0.0901 -0.1359 -0.2959
 9586TIP3    H150249   0.816   0.900   0.117  0.2304 -0.7794 -0.4818
 9586TIP3    H250250   0.682   0.960   0.153  0.6567  0.2719 -0.5965
 9587TIP3   OH250251   2.111   2.666   4.471 -0.5495  0.2846 -0.2890
 9587TIP3    H150252   2.102   2.713   4.554 -0.1183  1.5893 -0.9582
 9587TIP3    H250253   2.164   2.724   4.416 -1.0762 -0.4174 -1.5819
 9588TIP3   OH250254   1.682   5.822   4.842  0.7107  0.7726 -0.1748
 9588TIP3    H150255   1.773   5.847   4.858  1.2581 -0.6484 -0.8935
 9588TIP3    H250256   1.673   5.820   4.747 -0.4830  2.2069 -0.1254
 9589TIP3   OH250257   4.626   6.184   6.261  0.1260  0.2143 -0.3519
 9589TIP3    H150258   4.552   6.241   6.281 -0.2456 -0.4901  0.3091
 9589TIP3    H250259   4.589   6.114   6.208  0.5489  0.4806 -1.0082
 9590TIP3   OH250260   6.669   3.598   4.276 -0.0753  0.5473 -0.2078
 9590TIP3    H150261   6.628   3.517   4.304 -1.1288  1.3829  0.7409
 9590TIP3    H250262   6.710   3.577   4.192 -1.6706 -0.5525 -0.7465
 9591TIP3   OH250263   0.704   3.586   0.075 -0.0302  0.2741  0.0836
 9591TIP3    H150264   0.609   3.582   0.088  0.0149 -0.8067  0.1985
 9591TIP3    H250265   0.720   3.530  -0.001  0.4549  0.9689 -0.3389
 9592TIP3   OH250266   6.306   4.340  14.581 -0.1635  0.2933 -0.4784
 9592TIP3    H150267   6.327   4.256  14.540 -0.5731 -1.4201  2.5516
 9592TIP3    H250268   6.221   4.365  14.544 -0.5543 -1.2142 -0.6351
 9593TIP3   OH250269   3.104   1.400  14.767  0.1452 -0.5991 -0.6604
 9593TIP3    H150270   3.118   1.462  14.696 -0.7621 -0.2685 -0.5544
 9593TIP3    H250271   3.192   1.383  14.801  0.4803  0.0150 -1.2006
 9594TIP3   OH250272   5.056   0.142  16.828  0.1464 -0.7080  0.0373
 9594TIP3    H150273   5.077   0.098  16.910 -0.2035 -1.0696 -0.0675
 9594TIP3    H250274   5.140   0.150  16.783  0.4743  0.2189  0.7765
 9595TIP3   OH250275   6.251   0.757  11.262 -0.6252  0.6350  0.4551
 9595TIP3    H150276   6.297   0.840  11.264 -2.5762  1.7694  1.0131
 9595TIP3    H250277   6.205   0.756  11.178  1.8358 -1.3774 -1.0086
 9596TIP3   OH250278   5.347   3.674  14.188  0.3928 -0.1582  0.1095
 9596TIP3    H150279   5.258   3.711  14.192  1.1195  1.6192  2.9766
 9596TIP3    H250280   5.399   3.743  14.147  0.5933 -0.9810 -1.0635
 9597TIP3   OH250281   2.924   0.330  16.946  0.2608  0.0572 -0.3114
 9597TIP3    H150282   2.847   0.282  16.977  0.2178  0.2825 -0.0626
 9597TIP3    H250283   2.896   0.421  16.944  0.1327  0.0084 -1.4171
 9598TIP3   OH250284   2.860   5.191   3.160  0.1298  0.1709  0.0833
 9598TIP3    H150285   2.788   5.130   3.175 -1.0439  1.7844  1.3624
 9598TIP3    H250286   2.921   5.176   3.232  0.4295 -0.2831 -0.2604
 9599TIP3   OH250287   1.361   6.181  15.661  0.1912 -0.3815  0.1429
 9599TIP3    H150288   1.385   6.101  15.614  0.3097 -0.4530  0.3263
 9599TIP3    H250289   1.431   6.194  15.725 -0.1336 -0.4596  0.5169
 9600TIP3   OH250290   1.983   4.204  13.581  0.6409  0.8136 -0.5427
 9600TIP3    H150291   1.900   4.232  13.543  1.2247  1.3156 -1.5020
 9600TIP3    H250292   2.049   4.253  13.532  1.5125  0.2428  0.0347
 9601TIP3   OH250293   4.427   1.029  12.787 -0.1038  0.0528  0.0653
 9601TIP3    H150294   4.462   1.119  12.783  0.9665 -0.3737 -0.8507
 9601TIP3    H250295   4.501   0.974  12.760 -0.9702 -1.0534 -0.1010
 9602TIP3   OH250296   6.272   4.212  13.613 -0.3120  0.1569 -0.3191
 9602TIP3    H150297   6.232   4.284  13.564  1.0650  0.6590 -0.7628
 9602TIP3    H250298   6.322   4.255  13.683  1.4056 -0.2611 -1.2291
 9603TIP3   OH250299   2.988   1.818   4.634 -0.5781  0.7882  0.5857
 9603TIP3    H150300   3.054   1.837   4.701  0.2267  1.0653 -0.2682
 9603TIP3    H250301   2.984   1.897   4.581 -1.4718  0.7045  0.5121
 9604TIP3   OH250302   2.671   1.782  13.364 -0.3765  0.4985 -0.2557
 9604TIP3    H150303   2.640   1.701  13.322 -0.3975 -0.0778  0.8463
 9604TIP3    H250304   2.762   1.763  13.387 -0.7237  0.3578  1.0432
 9605TIP3   OH250305   5.146   1.113  11.330  0.0587 -0.3218  0.2943
 9605TIP3    H150306   5.129   1.207  11.338 -2.9158 -0.6233 -1.0112
 9605TIP3    H250307   5.241   1.107  11.322  0.3592  2.5804  0.3934
 9606TIP3   OH250308   5.568   0.391   2.480 -0.4447 -0.0623  0.0488
 9606TIP3    H150309   5.551   0.384   2.386  1.4337  2.7798 -0.6646
 9606TIP3    H250310   5.663   0.395   2.486 -0.5726  2.0874  1.7653
 9607TIP3   OH250311   1.850   2.012  15.614  0.0928  0.2922  0.1996
 9607TIP3    H150312   1.934   1.976  15.585 -0.2865  0.2530 -0.9028
 9607TIP3    H250313   1.786   1.945  15.590 -0.4020  0.8854 -0.1561
 9608TIP3   OH250314   4.917   1.973   4.732 -0.1467  0.0563  0.2444
 9608TIP3    H150315   4.984   1.905   4.733  0.7693  0.9181  1.8464
 9608TIP3    H250316   4.867   1.960   4.813 -1.2192  0.1096 -0.3868
 9609TIP3   OH250317   6.015   2.511  13.903  0.1123  0.1855 -0.3086
 9609TIP3    H150318   5.981   2.464  13.828 -0.8067  0.1947  0.0923
 9609TIP3    H250319   6.103   2.475  13.917  0.2890  0.1870 -1.3702
 9610TIP3   OH250320   2.585   4.346   5.887 -0.1626  0.0253  0.5275
 9610TIP3    H150321   2.500   4.308   5.865 -0.5154 -0.8421  3.1068
 9610TIP3    H250322   2.576   4.439   5.869 -1.8549  0.0242  1.2705
 9611TIP3   OH250323   5.820   0.303  16.152 -0.3243 -0.3460 -0.1268
 9611TIP3    H150324   5.810   0.211  16.176  2.2375 -1.8528 -3.9219
 9611TIP3    H250325   5.911   0.324  16.175 -0.3005  0.6227 -1.0473
 9612TIP3   OH250326   6.048   5.922  15.384 -0.3569  0.2514  0.5478
 9612TIP3    H150327   6.009   5.890  15.303  1.1525  0.7922 -0.4359
 9612TIP3    H250328   6.046   6.017  15.376 -1.0458  0.3360  1.5790
 9613TIP3   OH250329   1.826   5.841   3.417 -0.6826 -0.2074 -0.2681
 9613TIP3    H150330   1.891   5.784   3.377  0.7597  0.2473  1.3014
 9613TIP3    H250331   1.809   5.908   3.351 -0.9379 -1.3109 -1.3766
 9614TIP3   OH250332   0.727   5.289   4.034  0.0876  0.3601  0.1074
 9614TIP3    H150333   0.762   5.324   4.116  1.1024 -0.4017  0.0130
 9614TIP3    H250334   0.726   5.194   4.046  0.3674  0.2304 -0.8119
 9615TIP3   OH250335   4.928   5.447   4.703 -0.0876 -0.0766 -0.2945
 9615TIP3    H150336   4.902   5.495   4.782  0.3341  0.9189 -0.7475
 9615TIP3    H250337   5.022   5.431   4.715  0.1447  0.7575 -0.9333
 9616TIP3   OH250338   4.596   4.377  16.853 -0.0366 -0.2999 -0.7448
 9616TIP3    H150339   4.615   4.300  16.907 -0.2227 -0.5097 -0.9687
 9616TIP3    H250340   4.681   4.402  16.817  0.1283 -0.0010 -0.1585
 9617TIP3   OH250341   3.607   3.588  14.230  0.4539  0.2269 -0.1223
 9617TIP3    H150342   3.515   3.600  14.256  0.3194 -0.8563 -0.0543
 9617TIP3    H250343   3.635   3.510  14.278  1.1093 -0.0489 -0.9319
 9618TIP3   OH250344   0.786   2.841   1.808 -0.2161  0.1913  0.2898
 9618TIP3    H150345   0.849   2.911   1.792 -0.3137  0.6694  1.8529
 9618TIP3    H250346   0.744   2.826   1.723  0.9965  0.8438 -0.4463
 9619TIP3   OH250347   4.724   4.591   0.604  0.0729 -0.2701 -0.6154
 9619TIP3    H150348   4.767   4.534   0.668 -2.3525  1.3378  2.8027
 9619TIP3    H250349   4.647   4.542   0.576 -0.0958 -0.0902 -0.4721
 9620TIP3   OH250350   3.942   5.944   2.226  0.9040 -0.0443  0.2046
 9620TIP3    H150351   3.951   5.875   2.161 -2.3815 -1.7283  1.3137
 9620TIP3    H250352   3.946   6.025   2.175  2.8956 -1.0645 -1.4055
 9621TIP3   OH250353   5.495   0.040   0.330 -0.1486  0.1532 -0.2580
 9621TIP3    H150354   5.561  -0.015   0.372  0.1713  0.9088  0.2516
 9621TIP3    H250355   5.524   0.129   0.348 -1.2791  0.4926 -0.0705
 9622TIP3   OH250356   2.697   0.625   1.086 -0.6578  0.1196  0.7001
 9622TIP3    H150357   2.782   0.625   1.130 -0.4875  1.1300  0.4035
 9622TIP3    H250358   2.642   0.567   1.138  0.1595 -0.3891  1.0051
 9623TIP3   OH250359   5.884   3.333  15.845 -0.2095 -0.4249  0.4579
 9623TIP3    H150360   5.888   3.283  15.764  1.7363 -0.0006  0.2459
 9623TIP3    H250361   5.868   3.268  15.913 -1.3224 -0.8514 -0.1795
 9624TIP3   OH250362   0.645   1.290   5.851  0.0029 -0.2352 -0.4222
 9624TIP3    H150363   0.558   1.316   5.879  0.5975  1.3422  0.0357
 9624TIP3    H250364   0.635   1.272   5.757 -0.3546  2.2382 -0.9115
 9625TIP3   OH250365   0.385   3.888  12.416 -0.0102  0.7989 -0.2440
 9625TIP3    H150366   0.372   3.799  12.449 -1.1472 -0.7895 -4.3337
 9625TIP3    H250367   0.478   3.890  12.392 -0.0235  0.6357 -0.3138
 9626TIP3   OH250368   2.754   0.262  15.838 -0.9336 -0.7607  0.6171
 9626TIP3    H150369   2.723   0.259  15.748  1.5760 -0.1389 -0.3730
 9626TIP3    H250370   2.694   0.321  15.883  0.1605  2.5323 -1.8126
 9627TIP3   OH250371   6.266   1.432   2.503  0.2531  0.1340  0.5200
 9627TIP3    H150372   6.331   1.499   2.482  0.4226  0.2434  1.3572
 9627TIP3    H250373   6.208   1.429   2.426  1.0912  0.2109 -0.1218
 9628TIP3   OH250374   4.594   4.933   4.577 -1.0018 -0.5575  0.0774
 9628TIP3    H150375   4.533   4.885   4.521 -0.9748 -0.5749  0.0628
 9628TIP3    H250376   4.544   4.950   4.657 -1.5972  0.9152 -0.5770
 9629TIP3   OH250377   3.337   5.056   4.771  0.0405  0.2119 -0.1841
 9629TIP3    H150378   3.332   5.078   4.678 -1.0420  2.3717  0.3098
 9629TIP3    H250379   3.331   5.141   4.816 -0.3864 -0.8368  1.8726
 9630TIP3   OH250380   0.740   1.525   2.504 -0.0447  0.1485  0.1805
 9630TIP3    H150381   0.820   1.505   2.552  0.3675  1.6775  0.1622
 9630TIP3    H250382   0.735   1.458   2.436  2.1826  1.0502 -0.9610
 9631TIP3   OH250383   4.421   2.988   4.594  0.2049 -0.1953  0.1412
 9631TIP3    H150384   4.455   2.922   4.655 -0.5987 -2.2982 -1.5791
 9631TIP3    H250385   4.458   3.071   4.626  2.1951 -1.5943  1.7241
 9632TIP3   OH250386   6.445   3.395  15.680  0.0911 -0.0340 -0.5186
 9632TIP3    H150387   6.434   3.365  15.589 -0.8699 -0.0885 -0.3963
 9632TIP3    H250388   6.369   3.361  15.726  1.1104 -0.9465  0.5758
 9633TIP3   OH250389   2.604   0.895  15.816  0.0468 -0.0398  0.0627
 9633TIP3    H150390   2.527   0.868  15.865  0.4719 -1.3621  0.0582
 9633TIP3    H250391   2.570   0.930  15.734 -0.5871  0.6016  0.5834
 9634TIP3   OH250392   1.665   0.941  16.305 -0.1494  0.1479  0.1085
 9634TIP3    H150393   1.687   0.925  16.213 -0.1377 -0.9115  0.2877
 9634TIP3    H250394   1.748   0.928  16.351 -0.4328 -0.6061  0.4110
 9635TIP3   OH250395   1.332   0.839  16.486  0.6086  0.4498 -0.0340
 9635TIP3    H150396   1.379   0.763  16.452  1.2167  0.7173  0.1970
 9635TIP3    H250397   1.243   0.807  16.502  0.9957 -0.3559  0.5560
 9636TIP3   OH250398   3.469   5.145  13.020 -0.3606  0.2254  0.2150
 9636TIP3    H150399   3.477   5.057  12.982 -1.8582  0.1470  0.0196
 9636TIP3    H250400   3.411   5.133  13.095 -0.7658  1.0894  0.0492
 9637TIP3   OH250401   2.860   6.419  13.662  0.3468  0.1491 -0.0370
 9637TIP3    H150402   2.945   6.379  13.682 -0.4254 -0.6237  2.0240
 9637TIP3    H250403   2.807   6.348  13.626  0.2414  0.3629 -0.3090
 9638TIP3   OH250404   2.240   3.918   4.186  0.0215 -0.4758 -0.3442
 9638TIP3    H150405   2.251   3.993   4.128  0.2169 -1.0088 -1.0125
 9638TIP3    H250406   2.167   3.869   4.149 -0.4048 -0.3837  0.3487
 9639TIP3   OH250407   2.802   0.367  15.365  0.8258 -0.1153 -0.0247
 9639TIP3    H150408   2.791   0.445  15.419  0.7773 -0.8033  1.0012
 9639TIP3    H250409   2.892   0.371  15.334  0.5704  0.7676 -0.6720
 9640TIP3   OH250410   2.553   2.366   4.588 -0.3393 -0.0291  0.1980
 9640TIP3    H150411   2.551   2.350   4.682 -1.4071  1.0497  0.3767
 9640TIP3    H250412   2.526   2.458   4.578 -1.3613 -0.4464 -1.2202
 9641TIP3   OH250413   5.241   3.832  16.668  0.5338  0.3498 -0.1757
 9641TIP3    H150414   5.191   3.817  16.588  1.0026 -0.7649 -0.2816
 9641TIP3    H250415   5.179   3.813  16.738  0.0766  1.4818 -0.2532
 9642TIP3   OH250416   6.548   4.782  15.908  0.9679 -0.1260 -0.0836
 9642TIP3    H150417   6.603   4.772  15.986  2.8230 -1.1633 -1.4298
 9642TIP3    H250418   6.475   4.721  15.922  1.5296 -0.6544  0.6468
 9643TIP3   OH250419   1.823   0.216  12.988  0.1042  0.1300  0.1975
 9643TIP3    H150420   1.791   0.136  12.947  1.1644 -0.5771  0.7011
 9643TIP3    H250421   1.919   0.211  12.979  0.2566  0.7622  1.2796
 9644TIP3   OH250422   5.058   6.263  13.134 -0.3593  0.2242 -0.1577
 9644TIP3    H150423   5.018   6.178  13.113  2.5873 -1.8742  1.9607
 9644TIP3    H250424   4.984   6.323  13.140 -3.0368 -2.9174  1.5462
 9645TIP3   OH250425   4.583   0.967   6.097 -0.2985  0.3227  0.1501
 9645TIP3    H150426   4.496   0.967   6.058  0.0600  1.1986 -0.6995
 9645TIP3    H250427   4.642   0.993   6.026  0.6195  0.0930  0.7946
 9646TIP3   OH250428   2.806   0.723  17.508  0.4552 -0.0778 -0.6474
 9646TIP3    H150429   2.829   0.637  17.542  0.6369  0.7709  1.4754
 9646TIP3    H250430   2.710   0.721  17.500  0.5048 -0.6546 -1.1843
 9647TIP3   OH250431   2.752   4.229  15.120  0.7579 -0.5648  0.8909
 9647TIP3    H150432   2.840   4.258  15.143 -0.2699  1.4803  2.6402
 9647TIP3    H250433   2.729   4.165  15.188  0.5853 -0.4680  0.9236
 9648TIP3   OH250434   1.121   2.152   1.662 -0.2905 -0.1311 -0.4627
 9648TIP3    H150435   1.074   2.208   1.725 -3.3936 -3.8247  0.8810
 9648TIP3    H250436   1.052   2.102   1.618  2.2042 -3.0062 -1.4733
 9649TIP3   OH250437   1.028   0.143  14.222  0.1030 -0.4482 -0.1776
 9649TIP3    H150438   1.118   0.123  14.250  0.7479 -0.9940 -2.4213
 9649TIP3    H250439   1.000   0.213  14.280  1.9097 -0.3756  0.6953
 9650TIP3   OH250440   1.251   4.152   5.157 -0.0241 -0.3816 -0.5276
 9650TIP3    H150441   1.220   4.208   5.086 -0.3329 -1.5518 -1.3395
 9650TIP3    H250442   1.305   4.086   5.115  0.0237 -0.9279  0.3591
 9651TIP3   OH250443   5.785   3.861   0.720  0.1508 -0.0560  0.2763
 9651TIP3    H150444   5.834   3.916   0.658  0.1409 -0.2047  0.1355
 9651TIP3    H250445   5.699   3.850   0.680  1.0579 -2.6658 -1.2133
 9652TIP3   OH250446   0.138   5.632  10.957  0.0010  0.0979 -0.1520
 9652TIP3    H150447   0.183   5.658  10.877  0.8570 -2.1718 -0.4800
 9652TIP3    H250448   0.207   5.597  11.014 -0.9683 -0.8991  0.4519
 9653TIP3   OH250449   1.641   3.050  17.317 -0.2693  0.2743 -0.1662
 9653TIP3    H150450   1.562   3.010  17.354  0.6519 -0.1568  1.4058
 9653TIP3    H250451   1.608   3.108  17.249 -1.9230 -0.1747  0.2034
 9654TIP3   OH250452   2.588   6.095   1.390 -0.2693 -0.5953  0.2827
 9654TIP3    H150453   2.683   6.096   1.406 -0.0388 -0.7211 -0.9886
 9654TIP3    H250454   2.559   6.011   1.424  0.0170 -0.4378  0.9447
 9655TIP3   OH250455   3.027   1.348   2.126  0.0269  0.0151  0.3011
 9655TIP3    H150456   3.010   1.425   2.072  0.4124 -0.2511 -0.2216
 9655TIP3    H250457   3.050   1.280   2.062  1.2160 -0.1150  0.8411
 9656TIP3   OH250458   1.437   3.924   5.114  0.1866  0.6052  0.1515
 9656TIP3    H150459   1.377   3.890   5.048 -0.4729  0.0088  1.0308
 9656TIP3    H250460   1.425   3.866   5.189  5.0647 -2.4148 -0.9588
 9657TIP3   OH250461   2.915   2.129   0.549  0.5808  0.1679 -0.2539
 9657TIP3    H150462   2.866   2.205   0.519  2.4952  0.7006 -2.2480
 9657TIP3    H250463   2.993   2.165   0.591  0.1797 -0.6841  1.2973
 9658TIP3   OH250464   1.562   1.850  17.072  0.3447 -0.2757  0.7713
 9658TIP3    H150465   1.599   1.871  16.987  3.5578  0.8453  2.2796
 9658TIP3    H250466   1.484   1.905  17.079 -0.1667 -0.6456 -1.5077
 9659TIP3   OH250467   1.254   4.018   4.853 -0.0635  0.1455 -0.1845
 9659TIP3    H150468   1.225   4.109   4.843 -1.0975 -0.1686 -0.0874
 9659TIP3    H250469   1.186   3.966   4.811  0.8801 -0.5607 -0.8858
 9660TIP3   OH250470   3.887   4.208   0.859 -0.0204  0.2082  0.2516
 9660TIP3    H150471   3.873   4.129   0.913 -2.9384  2.4852  3.2333
 9660TIP3    H250472   3.806   4.218   0.810  0.4317  1.2508 -0.3071
 9661TIP3   OH250473   0.251   2.259   6.000  0.4239  0.2889 -0.6008
 9661TIP3    H150474   0.232   2.254   6.094  0.7609  3.9907 -0.1733
 9661TIP3    H250475   0.307   2.183   5.983  0.8814 -0.1830  2.3558
 9662TIP3   OH250476   3.504   5.593  17.240 -0.1947 -0.2385  0.0195
 9662TIP3    H150477   3.512   5.547  17.323 -1.4612  1.2536  1.0198
 9662TIP3    H250478   3.485   5.684  17.264 -0.8358  0.1917 -1.9018
 9663TIP3   OH250479   4.266   3.463  15.870 -0.1831 -0.5161  0.8228
 9663TIP3    H150480   4.283   3.369  15.860 -0.0288 -0.3673 -0.4239
 9663TIP3    H250481   4.245   3.494  15.782 -0.1435  0.6457  1.2000
 9664TIP3   OH250482   2.724   5.642  10.634  0.3560  0.2614  0.4217
 9664TIP3    H150483   2.810   5.661  10.598  0.8589 -1.0023  0.9070
 9664TIP3    H250484   2.663   5.656  10.561  1.0162  0.6567 -0.0598
 9665TIP3   OH250485   3.307   5.477   0.463 -0.1031 -0.3545 -0.3723
 9665TIP3    H150486   3.222   5.509   0.491  0.0533 -0.1030 -0.1784
 9665TIP3    H250487   3.342   5.547   0.408  0.7724  0.3849  1.0520
 9666TIP3   OH250488   3.873   4.627  15.111  0.4275  0.0197 -0.1623
 9666TIP3    H150489   3.803   4.567  15.136  0.0993  0.5571  0.1937
 9666TIP3    H250490   3.939   4.617  15.180  1.0914 -1.1028 -0.9207
 9667TIP3   OH250491   2.857   2.604  12.962 -0.1334 -0.8901  0.3086
 9667TIP3    H150492   2.805   2.643  12.892 -1.2314 -0.3045  1.4119
 9667TIP3    H250493   2.909   2.677  12.996 -1.6272 -0.5025  1.8733
 9668TIP3   OH250494   6.463   3.980  12.399 -0.7623 -0.1966 -0.3231
 9668TIP3    H150495   6.456   3.885  12.402  1.4252 -0.4002  1.4067
 9668TIP3    H250496   6.480   4.006  12.490 -1.9210  1.9377 -0.6427
 9669TIP3   OH250497   4.124   5.413  14.874  0.2754 -0.7261  0.3174
 9669TIP3    H150498   4.095   5.504  14.885  1.1926 -0.5270  1.1514
 9669TIP3    H250499   4.131   5.379  14.963 -0.7473 -1.8505 -0.0039
 9670TIP3   OH250500   2.036   4.329   6.728 -0.5381  0.5066 -0.0158
 9670TIP3    H150501   2.099   4.401   6.729 -0.2881  0.3544 -1.6663
 9670TIP3    H250502   2.081   4.259   6.679 -1.5256 -0.0495 -0.1466
 9671TIP3   OH250503   1.965   6.118  15.735 -0.0389 -0.1203  0.4103
 9671TIP3    H150504   1.886   6.080  15.772 -0.8290  0.1827 -0.8750
 9671TIP3    H250505   1.936   6.158  15.653  1.0039  2.0451  1.0078
 9672TIP3   OH250506   6.053   3.567  14.543  0.3033 -0.3462  0.0673
 9672TIP3    H150507   6.100   3.604  14.468  1.5505 -0.1641  0.8961
 9672TIP3    H250508   6.026   3.643  14.594 -0.3377 -0.4747 -0.0771
 9673TIP3   OH250509   0.870   5.327   0.254  0.0550  0.2133 -0.0326
 9673TIP3    H150510   0.796   5.266   0.248 -0.1008  0.1583  1.8620
 9673TIP3    H250511   0.901   5.336   0.164 -1.9761 -0.1124 -0.8153
 9674TIP3   OH250512   5.715   5.385  13.727  0.6277 -0.0483 -0.6296
 9674TIP3    H150513   5.751   5.300  13.750  0.8142 -0.0044 -0.7602
 9674TIP3    H250514   5.634   5.392  13.779  0.1354 -0.6858 -1.2938
 9675TIP3   OH250515   2.046   6.630   0.867  0.4323  0.1050 -0.6320
 9675TIP3    H150516   2.132   6.670   0.876  1.1655 -1.4015 -0.7275
 9675TIP3    H250517   2.035   6.576   0.945  0.2446 -0.9023 -1.3272
 9676TIP3   OH250518   2.309   6.445  12.764  0.0909 -0.1967  0.1441
 9676TIP3    H150519   2.225   6.443  12.810 -0.0027 -0.6678 -0.0413
 9676TIP3    H250520   2.374   6.443  12.834 -0.0226  2.2083  0.3880
 9677TIP3   OH250521   5.878   0.695   3.400  0.1164 -0.5508 -0.5241
 9677TIP3    H150522   5.944   0.718   3.465  0.9399 -0.2777 -1.4206
 9677TIP3    H250523   5.891   0.758   3.329  0.8908 -2.2780 -2.0149
 9678TIP3   OH250524   5.672   5.127   2.965 -0.1568 -0.2420  0.0022
 9678TIP3    H150525   5.653   5.219   2.949  0.7067  1.0293  4.8685
 9678TIP3    H250526   5.763   5.116   2.936  0.4298  1.0639  1.2534
 9679TIP3   OH250527   3.150   6.750  13.303 -0.0986  0.5514  0.3396
 9679TIP3    H150528   3.233   6.778  13.342  1.1315 -0.6397 -1.2412
 9679TIP3    H250529   3.091   6.824  13.316  1.2285  1.4735  1.4534
 9680TIP3   OH250530   5.279   2.222   0.298  0.2020 -0.2551 -1.0409
 9680TIP3    H150531   5.220   2.245   0.370 -0.4205 -2.1185 -0.9011
 9680TIP3    H250532   5.355   2.183   0.342  1.3693  1.6471 -1.2518
 9681TIP3   OH250533   6.552   3.733   3.902 -0.1533  0.1838 -0.1155
 9681TIP3    H150534   6.546   3.671   3.829  0.3571  0.0488 -0.0415
 9681TIP3    H250535   6.600   3.808   3.866 -0.9540  0.6374 -0.2677
 9682TIP3   OH250536   3.154   4.140   0.496 -0.2390  0.4522 -0.0967
 9682TIP3    H150537   3.168   4.218   0.441 -0.1270  1.3807  1.2018
 9682TIP3    H250538   3.148   4.175   0.585  0.8331 -1.1282  0.6296
 9683TIP3   OH250539   1.336   5.766   5.163 -0.0273  0.2654  0.4666
 9683TIP3    H150540   1.376   5.816   5.093 -0.0817 -0.0985  0.1754
 9683TIP3    H250541   1.360   5.675   5.146 -1.4480 -0.0448 -0.0606
 9684TIP3   OH250542   3.545   0.846  16.517  0.3300 -0.1602  0.6011
 9684TIP3    H150543   3.632   0.811  16.539  0.2293 -0.7535  0.0624
 9684TIP3    H250544   3.530   0.818  16.427  0.7372  2.2387 -0.2826
 9685TIP3   OH250545   5.102   5.671  15.375  0.0253 -0.3419  0.1930
 9685TIP3    H150546   5.084   5.587  15.417  1.2184 -0.4666  0.4724
 9685TIP3    H250547   5.154   5.720  15.438  0.0891  0.2696 -0.3207
 9686TIP3   OH250548   0.969   2.602  12.513 -0.1866  0.1112 -0.3170
 9686TIP3    H150549   0.938   2.523  12.558 -0.0328  0.0591 -0.3027
 9686TIP3    H250550   1.047   2.574  12.466  0.0221  0.3201 -0.0941
 9687TIP3   OH250551   3.411   1.516   3.222  0.0156  0.9293 -0.2172
 9687TIP3    H150552   3.466   1.451   3.178 -0.2870  0.0566  0.6479
 9687TIP3    H250553   3.467   1.593   3.231  0.2739  0.9289 -1.5715
 9688TIP3   OH250554   1.665   2.472  12.878  0.4668  0.4777 -0.3464
 9688TIP3    H150555   1.702   2.506  12.797 -1.3767  0.7151 -1.1387
 9688TIP3    H250556   1.641   2.550  12.928  1.5202  0.3318  0.4219
 9689TIP3   OH250557   4.060   4.894  11.336 -0.3148 -0.3086  0.5382
 9689TIP3    H150558   4.152   4.866  11.341  0.1571  1.1964  0.9172
 9689TIP3    H250559   4.035   4.908  11.427 -0.5276  0.4853  0.3604
 9690TIP3   OH250560   5.794   1.753   1.927  0.7118 -0.2206 -0.5799
 9690TIP3    H150561   5.882   1.744   1.963  0.7552 -0.0550 -0.6418
 9690TIP3    H250562   5.801   1.824   1.863  0.4231  0.1599 -0.2044
 9691TIP3   OH250563   6.765   6.063  17.294 -0.1802 -0.7132  0.4397
 9691TIP3    H150564   6.681   6.110  17.295 -0.4512 -1.1883  0.5596
 9691TIP3    H250565   6.821   6.112  17.354  0.0827  0.4047 -0.6795
 9692TIP3   OH250566   1.272   5.987  11.223  0.5053  0.4974  0.4571
 9692TIP3    H150567   1.213   5.950  11.158  0.5345  1.5824 -0.2160
 9692TIP3    H250568   1.238   6.075  11.239 -0.0357 -0.0347  2.5955
 9693TIP3   OH250569   6.146   3.136  15.517  0.3390  0.1665  0.2891
 9693TIP3    H150570   6.161   3.042  15.510 -1.3789 -0.2111  1.1391
 9693TIP3    H250571   6.212   3.176  15.461 -0.8405 -1.6739 -2.5832
 9694TIP3   OH250572   0.552   2.930  10.657 -0.7308 -0.5579 -0.5057
 9694TIP3    H150573   0.630   2.969  10.617 -0.6542 -0.3275 -0.1360
 9694TIP3    H250574   0.524   2.863  10.594 -0.9965  0.2470 -1.2710
 9695TIP3   OH250575   4.807   6.507   1.578  0.5236 -0.0419  0.1562
 9695TIP3    H150576   4.872   6.493   1.646 -0.3298 -0.3020  0.9400
 9695TIP3    H250577   4.808   6.602   1.563  0.9665 -0.0277  0.2636
 9696TIP3   OH250578   3.768   1.317   2.635  0.5733  0.2650  0.1126
 9696TIP3    H150579   3.723   1.319   2.551  1.5730  0.1643 -0.4524
 9696TIP3    H250580   3.852   1.359   2.618  1.0545 -0.3314  0.9037
 9697TIP3   OH250581   5.554   1.615   3.691  0.4938 -0.5978  0.0197
 9697TIP3    H150582   5.541   1.681   3.759  0.2278 -1.0661  0.4232
 9697TIP3    H250583   5.646   1.625   3.665  0.4954 -0.1708  0.1849
 9698TIP3   OH250584   0.117   4.522  17.458  0.4241 -0.4469 -0.6226
 9698TIP3    H150585   0.030   4.554  17.482  1.2398  1.0206  0.4851
 9698TIP3    H250586   0.135   4.451  17.520 -0.1890 -1.1450 -1.2202
 9699TIP3   OH250587   1.052   5.783   5.586 -0.3657 -0.2380  0.1732
 9699TIP3    H150588   0.977   5.808   5.532  0.9106  1.6299 -0.8558
 9699TIP3    H250589   1.023   5.795   5.676 -1.4806 -0.1492 -0.1868
 9700TIP3   OH250590   3.121   1.308  12.612 -0.2604  0.1164 -0.7195
 9700TIP3    H150591   3.056   1.239  12.605  1.5227 -1.9904  1.6961
 9700TIP3    H250592   3.172   1.301  12.531  0.9966 -2.7500  0.1864
 9701TIP3   OH250593   0.271   3.492   4.367 -0.0567  0.8800 -0.3213
 9701TIP3    H150594   0.362   3.463   4.359 -0.5557 -0.4396 -1.5323
 9701TIP3    H250595   0.236   3.442   4.440  0.1978  1.4401  0.1904
 9702TIP3   OH250596   2.096   2.741  12.002  0.5495  0.2005 -0.4355
 9702TIP3    H150597   2.134   2.747  11.914 -1.2294 -0.3646 -1.2900
 9702TIP3    H250598   2.141   2.668  12.043  1.8667  0.8883 -0.6177
 9703TIP3   OH250599   1.722   0.845  16.871  0.0041  0.2378  0.4045
 9703TIP3    H150600   1.628   0.835  16.887  0.2742 -1.4024  1.1147
 9703TIP3    H250601   1.739   0.788  16.795  0.4537  0.3846  0.3938
 9704TIP3   OH250602   0.899   0.911  12.699  0.2868  0.0908  0.5208
 9704TIP3    H150603   0.872   0.997  12.730 -0.0485 -0.3062  1.3758
 9704TIP3    H250604   0.958   0.929  12.626 -0.0076  1.0325  0.4994
 9705TIP3   OH250605   3.993   0.962  13.824 -0.3187 -0.3006  0.3469
 9705TIP3    H150606   4.022   1.018  13.896 -1.6545  0.5974  0.2313
 9705TIP3    H250607   3.983   0.875  13.864  1.0756 -0.3227  0.7013
 9706TIP3   OH250608   1.409   5.207  13.676  0.1974  0.3090 -0.0295
 9706TIP3    H150609   1.423   5.298  13.703  1.0626  0.3439 -0.5802
 9706TIP3    H250610   1.399   5.159  13.759 -0.6931  0.9597  0.2548
 9707TIP3   OH250611   4.184   0.811  13.572  0.1501 -0.9936  0.0688
 9707TIP3    H150612   4.112   0.754  13.599 -0.0273 -0.7146  0.1928
 9707TIP3    H250613   4.257   0.787  13.628 -0.5888  0.5005  1.7645
 9708TIP3   OH250614   4.839   5.834   2.057  0.5715 -0.4896  0.6324
 9708TIP3    H150615   4.759   5.810   2.009  0.5128 -1.1294  1.0500
 9708TIP3    H250616   4.906   5.777   2.020  0.7423 -0.2659  0.5991
 9709TIP3   OH250617   1.780   0.344   1.873  0.5463 -0.0374 -0.0956
 9709TIP3    H150618   1.801   0.435   1.849  1.6990 -0.1658  0.3478
 9709TIP3    H250619   1.844   0.291   1.826  0.7311 -0.5199  0.6774
 9710TIP3   OH250620   1.533   2.377   5.899  0.0478  0.0294 -0.0122
 9710TIP3    H150621   1.485   2.455   5.925 -1.2704 -0.1134 -1.8257
 9710TIP3    H250622   1.598   2.364   5.968 -0.8788  1.6838  1.2271
 9711TIP3   OH250623   1.025   5.258  16.633 -0.4670  0.4581 -0.3520
 9711TIP3    H150624   1.020   5.340  16.682  0.2125 -0.4142  1.2590
 9711TIP3    H250625   0.989   5.192  16.693  0.0790 -0.6069 -1.1574
 9712TIP3   OH250626   4.579   3.833   0.552  0.1468 -0.1561 -0.0821
 9712TIP3    H150627   4.593   3.833   0.458 -1.2187 -0.1274 -0.2975
 9712TIP3    H250628   4.623   3.913   0.583  0.3889 -0.0387 -0.7141
 9713TIP3   OH250629   4.637   2.455   2.695  0.1324 -0.2764 -0.1123
 9713TIP3    H150630   4.544   2.463   2.718  0.3492 -0.7432  1.0449
 9713TIP3    H250631   4.679   2.529   2.739  0.3230 -0.1324 -0.5360
 9714TIP3   OH250632   6.743   0.168  13.838  0.2478  0.1183  0.5773
 9714TIP3    H150633   6.827   0.129  13.813  0.1500 -1.0564  1.9558
 9714TIP3    H250634   6.765   0.259  13.861  0.5477  0.8510 -2.2460
 9715TIP3   OH250635   2.317   5.672  15.934  0.0925  0.3355  0.1280
 9715TIP3    H150636   2.257   5.733  15.890 -0.2361 -0.3091 -0.3277
 9715TIP3    H250637   2.311   5.591  15.884 -0.3617 -0.4526  1.4063
 9716TIP3   OH250638   0.837   4.374   5.147  0.6792 -0.4353 -0.6812
 9716TIP3    H150639   0.767   4.344   5.206  1.0110 -0.2615 -0.1919
 9716TIP3    H250640   0.881   4.295   5.118  0.3063 -0.5440 -0.9598
 9717TIP3   OH250641   2.132   5.124  15.044 -0.1546  0.5682 -0.5739
 9717TIP3    H150642   2.050   5.075  15.047 -0.8890  1.7458 -0.9368
 9717TIP3    H250643   2.114   5.197  14.985  0.3257  2.3502  1.3836
 9718TIP3   OH250644   5.476   3.805   3.141 -0.6485 -0.2398 -0.1711
 9718TIP3    H150645   5.381   3.800   3.152 -0.7304 -0.7301 -1.0204
 9718TIP3    H250646   5.509   3.721   3.173 -0.2735  0.6681  2.0234
 9719TIP3   OH250647   0.538   0.522   5.825  0.1122 -0.3765 -0.1364
 9719TIP3    H150648   0.585   0.601   5.850  0.7500 -0.6907 -0.3345
 9719TIP3    H250649   0.460   0.554   5.778  0.3793  0.1284 -0.2366
 9720TIP3   OH250650   0.841   5.089   1.276  0.0383  0.5853  0.3619
 9720TIP3    H150651   0.769   5.066   1.336  0.9927  0.6003  1.5588
 9720TIP3    H250652   0.885   5.005   1.260 -1.2287  0.2663 -1.7635
 9721TIP3   OH250653   0.999   1.216  14.055  0.1554  0.1870  0.2944
 9721TIP3    H150654   0.914   1.176  14.037  0.7801 -1.0534 -0.0436
 9721TIP3    H250655   0.982   1.310  14.055 -1.0454 -0.0035 -0.7149
 9722TIP3   OH250656   5.979   2.037   5.011 -0.1761 -0.1880 -0.3371
 9722TIP3    H150657   6.015   1.949   5.022 -0.9573 -0.5447 -0.5575
 9722TIP3    H250658   5.976   2.073   5.099  0.0638 -0.4121 -0.2346
 9723TIP3   OH250659   6.316   0.289  12.530  0.3484  0.2021  0.5452
 9723TIP3    H150660   6.222   0.299  12.540  0.1990  0.6448 -0.9805
 9723TIP3    H250661   6.331   0.195  12.537 -0.1373  0.1737  1.2543
 9724TIP3   OH250662   0.996   3.944  13.636 -0.0982 -0.5244  0.1089
 9724TIP3    H150663   1.088   3.933  13.613  0.0447  1.7696 -0.6713
 9724TIP3    H250664   0.949   3.888  13.574  0.7378 -1.1951  0.0689
 9725TIP3   OH250665   0.941   6.534  15.429 -0.4417  0.0670 -0.0095
 9725TIP3    H150666   0.902   6.451  15.457 -1.9022  0.9661  0.7783
 9725TIP3    H250667   1.003   6.556  15.499 -1.4945  0.5609  0.8126
 9726TIP3   OH250668   3.960   2.602   1.931  0.4393  0.0509  0.2482
 9726TIP3    H150669   3.872   2.569   1.915 -0.2849  1.7599  0.5023
 9726TIP3    H250670   3.974   2.590   2.025 -0.0491  0.9455  0.4448
 9727TIP3   OH250671   1.190   2.052  13.591  0.1318  0.6029 -1.1023
 9727TIP3    H150672   1.162   2.130  13.639  0.4885  0.2201 -0.2484
 9727TIP3    H250673   1.109   2.012  13.560 -0.0719  1.1337 -1.2589
 9728TIP3   OH250674   3.811   0.598   4.970  0.0169  0.3756 -0.2914
 9728TIP3    H150675   3.744   0.652   5.011  0.0316  1.3886 -1.5268
 9728TIP3    H250676   3.865   0.567   5.042 -1.2207  0.2964  0.6371
 9729TIP3   OH250677   2.190   4.263  11.801  0.1791 -0.2998 -0.0735
 9729TIP3    H150678   2.143   4.316  11.737  1.0728  0.6774  0.0578
 9729TIP3    H250679   2.229   4.192  11.751 -2.4462 -1.9078 -0.0245
 9730TIP3   OH250680   3.038   6.301  15.506 -0.6620 -0.4383  0.3647
 9730TIP3    H150681   3.098   6.323  15.578 -0.4132  0.2535 -0.0433
 9730TIP3    H250682   3.018   6.209  15.519 -0.1751 -0.4643  0.9999
 9731TIP3   OH250683   2.833   0.505   0.644  0.1082  0.4880 -0.0475
 9731TIP3    H150684   2.899   0.477   0.708  0.7839 -0.9045 -1.2907
 9731TIP3    H250685   2.751   0.508   0.694  0.2333 -2.5217  0.5240
 9732TIP3   OH250686   1.136   5.394  15.126  0.5474 -0.1739  0.6532
 9732TIP3    H150687   1.228   5.420  15.118  0.5729 -0.3845  0.2477
 9732TIP3    H250688   1.121   5.336  15.052 -0.9341  2.8043 -1.6109
 9733TIP3   OH250689   5.999   6.285  12.324 -0.7392 -0.3083 -0.0236
 9733TIP3    H150690   5.921   6.302  12.376 -1.0028  0.1518 -0.5693
 9733TIP3    H250691   5.990   6.193  12.297 -2.0235  0.2417 -1.6193
 9734TIP3   OH250692   4.187   1.285  13.773 -0.1226 -0.2507 -0.1109
 9734TIP3    H150693   4.132   1.363  13.765 -0.3169 -0.4203 -0.4620
 9734TIP3    H250694   4.168   1.251  13.861 -0.0681  0.0750  0.0253
 9735TIP3   OH250695   0.296   0.039   2.117 -0.0931 -0.6288 -0.5791
 9735TIP3    H150696   0.287  -0.002   2.203 -1.0351  0.1109 -0.3077
 9735TIP3    H250697   0.345   0.119   2.134 -0.2663 -0.4905 -0.7253
 9736TIP3   OH250698   3.694   1.435  11.603 -0.2415  0.5118 -0.0844
 9736TIP3    H150699   3.693   1.519  11.649 -1.4220  1.4116 -1.6496
 9736TIP3    H250700   3.702   1.459  11.511  0.6899 -1.1751 -0.4821
 9737TIP3   OH250701   1.658   1.262  13.124 -0.1175 -0.0972 -0.4917
 9737TIP3    H150702   1.620   1.313  13.052  2.2411  0.6357 -1.3188
 9737TIP3    H250703   1.721   1.322  13.163 -1.7340 -0.2594  2.6552
 9738TIP3   OH250704   3.631   5.876   0.661 -0.0312  0.0640  0.4539
 9738TIP3    H150705   3.559   5.903   0.604 -0.0276 -0.7545  0.0526
 9738TIP3    H250706   3.643   5.783   0.643  0.6799  0.0352  1.0158
 9739TIP3   OH250707   5.014   0.110  12.921 -0.0224  0.4482  0.5639
 9739TIP3    H150708   4.940   0.169  12.934 -0.2635  0.3683 -0.4429
 9739TIP3    H250709   4.975   0.026  12.898  0.3331 -0.0588  1.7190
 9740TIP3   OH250710   5.383   3.251  13.163 -0.7219 -0.1117  0.4310
 9740TIP3    H150711   5.386   3.296  13.078  2.3882  1.3493  1.1681
 9740TIP3    H250712   5.411   3.162  13.144 -0.0455  0.2064 -0.0849
 9741TIP3   OH250713   4.628   2.631   4.503  0.0104 -0.2488  0.3422
 9741TIP3    H150714   4.662   2.676   4.426  0.8007 -0.2709  0.6778
 9741TIP3    H250715   4.701   2.579   4.536 -1.2007 -2.7851 -0.7431
 9742TIP3   OH250716   6.117   2.926   2.682 -0.0708 -0.6247  0.4271
 9742TIP3    H150717   6.101   2.849   2.737 -1.8342 -1.2268 -0.8281
 9742TIP3    H250718   6.198   2.906   2.635 -0.3099 -1.5433  0.3939
 9743TIP3   OH250719   1.282   1.816  12.261  0.3113 -0.1875 -0.5071
 9743TIP3    H150720   1.261   1.866  12.341  1.4655 -0.2455 -0.1516
 9743TIP3    H250721   1.277   1.881  12.191  0.2707  0.0903 -0.2521
 9744TIP3   OH250722   2.435   2.961   2.714  0.0694 -0.1553  0.4572
 9744TIP3    H150723   2.432   2.946   2.809 -1.0786 -0.8561  0.3338
 9744TIP3    H250724   2.424   2.874   2.676  0.7308  0.0939 -0.3249
 9745TIP3   OH250725   0.611   0.919   1.193  0.3040  0.3760 -0.2430
 9745TIP3    H150726   0.584   0.987   1.132  0.0817  0.5807  0.0798
 9745TIP3    H250727   0.543   0.920   1.261 -0.0087 -0.5636 -0.5373
 9746TIP3   OH250728   2.069   0.639   5.775 -0.7988 -0.9395  0.1855
 9746TIP3    H150729   2.128   0.584   5.827 -2.1650 -2.0489  0.6217
 9746TIP3    H250730   2.009   0.677   5.840 -1.0556 -0.4591 -0.3242
 9747TIP3   OH250731   1.267   5.992   3.893  0.5108 -1.0739 -0.1572
 9747TIP3    H150732   1.183   5.963   3.860 -0.2846  1.7891 -0.9133
 9747TIP3    H250733   1.249   6.023   3.982  0.0564  2.1180 -1.2584
 9748TIP3   OH250734   0.028   1.893   5.722  0.2791  0.1914  0.4613
 9748TIP3    H150735   0.079   1.971   5.746  1.3518 -0.3985  0.1257
 9748TIP3    H250736  -0.033   1.925   5.655 -1.1997  1.3458  2.2515
 9749TIP3   OH250737   2.652   3.671   0.640  0.1984 -0.3829  0.6574
 9749TIP3    H150738   2.645   3.577   0.654 -1.7831 -0.0416  2.5204
 9749TIP3    H250739   2.660   3.681   0.546  2.4296 -2.4603  0.5195
 9750TIP3   OH250740   6.397   5.783   4.757 -0.2064  0.2205  0.3539
 9750TIP3    H150741   6.477   5.735   4.736 -0.7237 -0.0035 -1.3019
 9750TIP3    H250742   6.387   5.775   4.851  3.0029  2.2718  1.0022
 9751TIP3   OH250743   4.735   5.820  12.894 -0.2362 -0.1953 -0.2161
 9751TIP3    H150744   4.679   5.751  12.930 -0.9282 -0.5544 -1.9077
 9751TIP3    H250745   4.695   5.901  12.926  0.7373 -0.5137  2.0005
 9752TIP3   OH250746   0.249   5.996  17.154  0.2536 -0.4431 -0.6369
 9752TIP3    H150747   0.184   6.006  17.224 -0.7094  3.0492 -1.8007
 9752TIP3    H250748   0.318   5.943  17.193  0.0809  1.7997  3.2458
 9753TIP3   OH250749   3.357   4.392  11.787 -0.0829  0.1283 -0.4941
 9753TIP3    H150750   3.267   4.368  11.809  0.1013 -0.0102  0.1189
 9753TIP3    H250751   3.410   4.327  11.832  0.3524  0.6104 -0.3083
 9754TIP3   OH250752   2.029   6.063  11.869  0.0938 -0.1024  0.0127
 9754TIP3    H150753   2.016   6.070  11.774  0.9473 -1.8825 -0.2747
 9754TIP3    H250754   2.003   5.973  11.890  0.7263 -0.0011  1.3319
 9755TIP3   OH250755   4.737   5.790   3.912 -0.4686  0.3506  0.5090
 9755TIP3    H150756   4.673   5.720   3.920  1.0234 -1.3624 -1.4445
 9755TIP3    H250757   4.822   5.746   3.912  0.5455  2.1467 -0.6144
 9756TIP3   OH250758   5.956   4.792   1.923  0.1486  0.3307  0.4303
 9756TIP3    H150759   5.926   4.792   2.014  0.6386  2.3269  0.6547
 9756TIP3    H250760   6.019   4.720   1.918 -0.9459 -0.7132  1.2680
 9757TIP3   OH250761   5.168   4.232  17.230 -0.3004 -0.0815 -0.4610
 9757TIP3    H150762   5.088   4.236  17.282 -0.0774 -2.4705  0.2090
 9757TIP3    H250763   5.140   4.250  17.141 -1.2671  0.8291  0.0042
 9758TIP3   OH250764   0.053   3.143  17.286  0.0368 -0.4828 -0.1079
 9758TIP3    H150765  -0.023   3.135  17.227  0.1080 -1.3833 -0.0899
 9758TIP3    H250766   0.083   3.233  17.274 -0.1332 -0.5585 -1.2349
 9759TIP3   OH250767   3.410   0.081   3.796  0.3023 -0.1538  0.0975
 9759TIP3    H150768   3.480   0.033   3.840  1.1621  0.4550 -0.5966
 9759TIP3    H250769   3.401   0.162   3.846  0.2930 -0.1035  0.0150
 9760TIP3   OH250770   1.678   0.079   1.162  0.9651  0.2557 -0.1527
 9760TIP3    H150771   1.724   0.140   1.219  0.6131 -0.1790  0.6143
 9760TIP3    H250772   1.643   0.012   1.221  2.5248 -1.4837 -1.0575
 9761TIP3   OH250773   4.452   4.698   3.709  0.3297  0.2157 -0.5748
 9761TIP3    H150774   4.480   4.675   3.798  0.8515  1.7061 -0.3217
 9761TIP3    H250775   4.394   4.627   3.683  1.2880 -0.9747  0.4057
 9762TIP3   OH250776   2.983   0.739   6.825 -0.6162  0.4494 -0.1339
 9762TIP3    H150777   2.924   0.793   6.772  0.0512  1.6761  0.3335
 9762TIP3    H250778   3.030   0.686   6.761 -0.6608  1.0588 -0.6941
 9763TIP3   OH250779   6.192   3.396  12.898 -0.3195  1.3442 -0.5620
 9763TIP3    H150780   6.188   3.457  12.972 -0.0696  0.7972 -0.0930
 9763TIP3    H250781   6.278   3.413  12.858  0.6660 -0.1337  0.8317
 9764TIP3   OH250782   2.464   0.824   1.858 -0.3698  0.1385  0.6855
 9764TIP3    H150783   2.470   0.842   1.764 -1.2436  0.2065  0.6390
 9764TIP3    H250784   2.379   0.781   1.869 -0.1889 -0.0444  1.4171
 9765TIP3   OH250785   3.797   4.826   6.355  0.2069  0.1393 -0.6185
 9765TIP3    H150786   3.725   4.866   6.404  0.8692  0.4420  0.1254
 9765TIP3    H250787   3.861   4.801   6.422  1.3178  0.9356 -1.3353
 9766TIP3   OH250788   3.149   4.948   1.782  0.1104  0.5216  0.3745
 9766TIP3    H150789   3.181   5.034   1.758  1.3545  0.7243  2.5794
 9766TIP3    H250790   3.115   4.911   1.700  0.9501  2.4753 -0.9031
 9767TIP3   OH250791   6.533   4.345  14.370 -0.0423 -0.2916 -0.2058
 9767TIP3    H150792   6.494   4.273  14.420  3.0920 -1.2120  1.1735
 9767TIP3    H250793   6.550   4.308  14.284  0.0713 -0.6886 -0.0175
 9768TIP3   OH250794   4.536   4.635   3.014  0.4068 -0.0572 -0.4523
 9768TIP3    H150795   4.591   4.686   2.955  1.9814 -0.9333  0.1882
 9768TIP3    H250796   4.597   4.574   3.056 -0.8535 -0.2049  1.2509
 9769TIP3   OH250797   4.086   5.869   0.017 -0.2992 -0.0127 -0.7676
 9769TIP3    H150798   4.085   5.791   0.073 -1.6960 -0.5540 -1.4950
 9769TIP3    H250799   4.159   5.922   0.050  1.0086 -1.8428 -0.5556
 9770TIP3   OH250800   5.338   1.801  14.460 -0.6086 -0.0771  0.2072
 9770TIP3    H150801   5.419   1.762  14.493 -1.7629 -1.3415  1.6720
 9770TIP3    H250802   5.365   1.848  14.381  1.6380 -0.0157  0.9340
 9771TIP3   OH250803   4.617   2.308  14.879 -0.1028 -0.5755 -0.2984
 9771TIP3    H150804   4.580   2.264  14.955 -0.0634 -0.5131 -0.2423
 9771TIP3    H250805   4.541   2.334  14.827 -0.1413 -0.3902 -0.1519
 9772TIP3   OH250806   5.855   2.708  13.606  0.1775  0.1647  0.0822
 9772TIP3    H150807   5.855   2.667  13.520 -0.4478  0.5524 -0.1149
 9772TIP3    H250808   5.862   2.635  13.668  0.5504 -0.1215 -0.2958
 9773TIP3   OH250809   3.474   5.377   1.269  0.4082  0.4017  0.3369
 9773TIP3    H150810   3.495   5.387   1.176  1.0182  0.3431  0.4667
 9773TIP3    H250811   3.454   5.284   1.279 -1.2507  0.6662 -0.0445
 9774TIP3   OH250812   3.495   5.463   1.002  0.6403 -0.8536 -0.3192
 9774TIP3    H150813   3.573   5.415   0.975  1.3588 -1.6824  2.7996
 9774TIP3    H250814   3.508   5.552   0.968  2.8468 -1.0244 -0.0529
 9775TIP3   OH250815   3.000   1.687  13.692  0.7281 -0.3387  0.7554
 9775TIP3    H150816   3.066   1.627  13.657  1.1447  0.1863  0.6194
 9775TIP3    H250817   3.018   1.770  13.648 -0.8366 -0.4948 -0.2404
 9776TIP3   OH250818   2.428   2.560   1.660 -0.4563 -0.4907  0.4492
 9776TIP3    H150819   2.406   2.608   1.740 -1.4385  0.0364 -0.1173
 9776TIP3    H250820   2.351   2.505   1.644 -1.5532  1.4995 -1.6579
 9777TIP3   OH250821   3.378   3.688   0.407 -0.0418  0.1967 -0.5262
 9777TIP3    H150822   3.334   3.770   0.386  1.7106  1.7301  1.3403
 9777TIP3    H250823   3.472   3.707   0.397  0.3745 -2.0235 -1.4241
 9778TIP3   OH250824   0.342   3.947  12.968 -0.6326  0.7476  0.2151
 9778TIP3    H150825   0.406   4.015  12.988 -0.7927  0.9390  0.0856
 9778TIP3    H250826   0.393   3.866  12.963 -0.4337  0.8667  0.3191
 9779TIP3   OH250827   4.964   0.511   1.616 -0.1426  0.2101 -0.1876
 9779TIP3    H150828   4.904   0.548   1.681  0.3069  1.8804 -0.6710
 9779TIP3    H250829   4.936   0.549   1.533  2.1110  1.8180 -0.3050
 9780TIP3   OH250830   5.345   4.475  12.353 -0.0074 -0.4374 -0.2747
 9780TIP3    H150831   5.332   4.488  12.447  0.4282 -0.2787 -0.2345
 9780TIP3    H250832   5.437   4.498  12.338  1.1585 -4.1604 -0.0365
 9781TIP3   OH250833   5.078   2.111   3.357 -0.4798  0.0515 -0.0162
 9781TIP3    H150834   5.144   2.062   3.406 -0.9458  0.8896  1.5166
 9781TIP3    H250835   5.123   2.141   3.278  1.5640  2.0323  1.7545
 9782TIP3   OH250836   0.265   0.207  12.089  0.4038 -0.2789  0.1701
 9782TIP3    H150837   0.351   0.235  12.058 -0.5608  2.4806 -0.3375
 9782TIP3    H250838   0.214   0.193  12.010 -1.1965  3.8945  0.1779
 9783TIP3   OH250839   4.669   6.249   5.051  0.0547 -0.1270  0.1415
 9783TIP3    H150840   4.701   6.311   5.117  2.7888 -1.3075  0.0609
 9783TIP3    H250841   4.745   6.193   5.032 -2.2593 -3.5930  0.2609
 9784TIP3   OH250842   4.508   2.704  15.550  0.7160 -0.2358  0.1976
 9784TIP3    H150843   4.570   2.748  15.608 -1.1800  1.8190  0.7719
 9784TIP3    H250844   4.525   2.743  15.464  1.0440 -0.6066  0.0885
 9785TIP3   OH250845   0.553   2.792   1.967  0.7830  0.2001  0.2187
 9785TIP3    H150846   0.623   2.855   1.950 -0.2509  2.0114  2.1344
 9785TIP3    H250847   0.599   2.712   1.990  2.1482 -0.1471 -3.1714
 9786TIP3   OH250848   1.157   2.002   6.513  0.6371  0.7817  0.5918
 9786TIP3    H150849   1.238   2.053   6.505 -0.0355  1.8841  0.6217
 9786TIP3    H250850   1.186   1.911   6.509  1.8428  1.1571  0.2572
 9787TIP3   OH250851   3.980   1.004  15.850  0.5218 -0.1637  0.4327
 9787TIP3    H150852   4.025   1.009  15.934 -0.3124  0.8988  0.8464
 9787TIP3    H250853   3.892   0.973  15.871  0.1818  0.4898  0.0202
 9788TIP3   OH250854   5.623   4.874   3.587  0.1514 -0.5327  0.1279
 9788TIP3    H150855   5.666   4.893   3.670 -0.3056  0.7080  0.1027
 9788TIP3    H250856   5.677   4.919   3.521  0.5942 -1.6273 -0.2699
 9789TIP3   OH250857   3.850   5.297   4.958 -0.1225 -0.3230 -0.3587
 9789TIP3    H150858   3.825   5.332   4.872 -1.3626  0.0028  0.1157
 9789TIP3    H250859   3.770   5.257   4.991  0.2026  0.0210  0.8826
 9790TIP3   OH250860   6.437   1.937  17.395  1.1885 -0.4665  0.6180
 9790TIP3    H150861   6.529   1.961  17.405  1.8042 -2.6354  0.5248
 9790TIP3    H250862   6.437   1.843  17.378 -0.8973 -0.1780 -1.6849
 9791TIP3   OH250863   0.131   6.700   4.739  0.3328 -0.4138 -0.2075
 9791TIP3    H150864   0.175   6.671   4.818 -0.9630  1.6865  1.3832
 9791TIP3    H250865   0.199   6.744   4.688  0.9040 -0.5806  0.4059
 9792TIP3   OH250866   2.431   5.227   2.856 -0.1104  0.2353 -0.1984
 9792TIP3    H150867   2.504   5.216   2.794 -0.2431 -0.6008 -0.2233
 9792TIP3    H250868   2.384   5.144   2.851 -1.4525  0.9982 -0.6673
 9793TIP3   OH250869   4.831   5.640  15.900 -0.1847 -0.0076  0.1059
 9793TIP3    H150870   4.893   5.713  15.894 -0.1927 -0.0161 -0.1017
 9793TIP3    H250871   4.748   5.682  15.920 -0.1048  0.0013  0.4147
 9794TIP3   OH250872   1.764   5.258  14.832 -0.1163 -0.3775  0.2912
 9794TIP3    H150873   1.787   5.262  14.739  0.6054  1.1201  0.5014
 9794TIP3    H250874   1.670   5.276  14.834 -0.2993 -1.2133 -0.1885
 9795TIP3   OH250875   2.798   3.091  13.952 -0.0967 -0.2634  0.0382
 9795TIP3    H150876   2.749   3.067  14.031  1.2619 -1.0241  0.6762
 9795TIP3    H250877   2.813   3.009  13.906 -0.5133  0.1243 -0.8229
 9796TIP3   OH250878   4.290   2.385   6.336  0.5953  0.6685  0.6756
 9796TIP3    H150879   4.326   2.351   6.418 -1.4131  1.2601  1.8586
 9796TIP3    H250880   4.358   2.444   6.303  0.9873  1.2780  2.4783
 9797TIP3   OH250881   5.290   4.000   2.522  1.0095 -0.1260 -0.1924
 9797TIP3    H150882   5.223   3.999   2.590 -0.3021  1.1631 -1.3800
 9797TIP3    H250883   5.359   4.056   2.556 -0.1654  1.4805 -0.3284
 9798TIP3   OH250884   2.425   3.604  13.879 -0.2383 -0.0526 -0.3881
 9798TIP3    H150885   2.414   3.525  13.826 -1.6034  0.6449 -1.1956
 9798TIP3    H250886   2.383   3.583  13.962 -0.4651 -0.2180 -0.5438
 9799TIP3   OH250887   6.096   2.951   3.212  0.2687 -0.0536 -0.0587
 9799TIP3    H150888   6.034   3.023   3.197 -0.2155 -0.7872 -1.7828
 9799TIP3    H250889   6.093   2.937   3.307 -0.1054  1.7511  0.2462
 9800TIP3   OH250890   6.063   2.060  12.067 -0.1328  0.4795  0.7261
 9800TIP3    H150891   6.048   2.005  11.989 -2.9154  0.5312  1.1369
 9800TIP3    H250892   6.089   2.145  12.031 -1.1808  0.4463 -0.1920
 9801TIP3   OH250893   5.864   6.165  14.999  0.1514 -0.2147  0.1644
 9801TIP3    H150894   5.815   6.241  15.032  0.8318  0.8103 -1.0959
 9801TIP3    H250895   5.821   6.143  14.917 -0.2521 -1.4434  0.6817
 9802TIP3   OH250896   0.593   3.154  17.326 -0.2865 -0.5625  0.4878
 9802TIP3    H150897   0.620   3.240  17.295 -1.1775 -0.3550  0.2740
 9802TIP3    H250898   0.675   3.104  17.331  0.3972  0.6163  1.6888
 9803TIP3   OH250899   1.201   5.650   0.748  0.1058 -0.0792 -0.1534
 9803TIP3    H150900   1.109   5.651   0.771 -0.5010 -2.1295 -2.1253
 9803TIP3    H250901   1.203   5.622   0.656  2.7124 -0.8002  0.0244
 9804TIP3   OH250902   0.910   4.239  11.953  0.3352  0.3884 -0.3128
 9804TIP3    H150903   0.818   4.230  11.976 -0.0512 -1.1068 -2.1613
 9804TIP3    H250904   0.915   4.321  11.903 -0.1905  0.0374 -0.9600
 9805TIP3   OH250905   3.346   3.444   4.956  0.1575 -0.4181 -0.0074
 9805TIP3    H150906   3.314   3.438   4.866 -0.2618  2.5911 -0.1650
 9805TIP3    H250907   3.267   3.450   5.009  0.4169 -0.1381  0.3499
 9806TIP3   OH250908   2.186   1.792  16.357  0.0884  0.1056  0.2110
 9806TIP3    H150909   2.219   1.801  16.447 -0.7515 -0.1475  0.5539
 9806TIP3    H250910   2.091   1.800  16.366 -0.1209 -1.3504 -0.4603
 9807TIP3   OH250911   5.263   4.562  17.358  0.9196 -0.0895 -0.1224
 9807TIP3    H150912   5.343   4.533  17.401  1.0261  0.1084 -0.1862
 9807TIP3    H250913   5.272   4.657  17.352  0.7080 -0.0735 -0.1854
 9808TIP3   OH250914   4.543   3.386  12.244  0.0199  0.1821 -0.0470
 9808TIP3    H150915   4.602   3.321  12.205  0.1276  0.6508 -0.6861
 9808TIP3    H250916   4.588   3.470  12.231 -0.6761  0.5173 -0.3322
 9809TIP3   OH250917   4.943   3.149  10.644  0.5895 -0.7773  0.1807
 9809TIP3    H150918   4.937   3.244  10.653 -1.0129 -0.8923  0.7390
 9809TIP3    H250919   5.035   3.132  10.626  0.5318  1.0476 -2.3090
 9810TIP3   OH250920   3.283   5.227  11.462 -0.0726  0.1149  0.4238
 9810TIP3    H150921   3.206   5.210  11.408 -0.5145 -1.3162  1.4445
 9810TIP3    H250922   3.357   5.196  11.408  0.0059  2.5949 -1.0618
 9811TIP3   OH250923   6.211   4.741  14.578 -0.1037  0.2260  0.0162
 9811TIP3    H150924   6.260   4.697  14.509  0.7559  1.5230 -0.2535
 9811TIP3    H250925   6.121   4.745  14.545 -0.1830 -1.1865  0.0110
 9812TIP3   OH250926   4.431   6.270   0.285 -0.0832 -0.4168  0.1253
 9812TIP3    H150927   4.371   6.211   0.240 -0.3625  0.0962 -0.1865
 9812TIP3    H250928   4.461   6.221   0.361  0.6155 -1.4021 -0.7634
 9813TIP3   OH250929   0.660   1.953   3.811 -0.4012 -0.3869 -0.2929
 9813TIP3    H150930   0.626   1.934   3.898 -0.3454 -1.2891 -0.4555
 9813TIP3    H250931   0.647   1.871   3.762 -0.3270  0.0707 -1.0957
 9814TIP3   OH250932   3.904   6.442   4.563  0.4650  0.1805  0.6700
 9814TIP3    H150933   3.916   6.388   4.484  0.1157  1.0652 -0.0009
 9814TIP3    H250934   3.901   6.379   4.635  0.0721 -0.6951 -0.1005
 9815TIP3   OH250935   6.267   6.010   0.113 -0.2880 -0.0599  0.5441
 9815TIP3    H150936   6.172   6.011   0.122 -0.3081  1.6188  0.6213
 9815TIP3    H250937   6.292   6.103   0.120  1.3380 -0.4582  0.4126
 9816TIP3   OH250938   4.997   6.070   5.391 -0.3733 -0.1825  0.0848
 9816TIP3    H150939   5.027   6.077   5.300 -1.8348 -0.6529 -0.4680
 9816TIP3    H250940   4.901   6.075   5.385 -0.4419  2.1451  1.8251
 9817TIP3   OH250941   3.936   3.987  16.838 -1.1850 -0.1724 -0.0943
 9817TIP3    H150942   4.032   3.979  16.837 -0.9529  1.8873 -2.2328
 9817TIP3    H250943   3.905   3.897  16.828  0.5186 -0.8474  0.2562
 9818TIP3   OH250944   4.900   5.229  11.634 -0.2078 -0.7456  0.1971
 9818TIP3    H150945   4.905   5.325  11.628 -0.2402 -0.7691 -0.2808
 9818TIP3    H250946   4.859   5.203  11.551  3.7220 -1.4843 -1.7080
 9819TIP3   OH250947   2.662   2.615   3.647  0.2457  0.1031 -0.0975
 9819TIP3    H150948   2.658   2.710   3.635  0.3422  0.0264 -0.7268
 9819TIP3    H250949   2.617   2.579   3.571  0.8093 -0.3711 -0.2118
 9820TIP3   OH250950   6.282   2.767  14.934 -0.7332  0.5397  0.6160
 9820TIP3    H150951   6.278   2.856  14.898 -1.2781  0.2147 -0.1500
 9820TIP3    H250952   6.372   2.739  14.919 -0.4420  1.1074  1.2414
 9821TIP3   OH250953   0.078   1.661  11.445  0.0208 -0.3443 -0.2586
 9821TIP3    H150954   0.046   1.643  11.357 -2.1667 -0.4070  0.4930
 9821TIP3    H250955   0.091   1.575  11.484  1.2721 -0.3202 -0.5916
 9822TIP3   OH250956   1.806   4.480   4.623 -0.0416  0.2338 -0.3026
 9822TIP3    H150957   1.756   4.535   4.683  0.6410  1.4021 -0.7585
 9822TIP3    H250958   1.741   4.445   4.562 -0.5112  0.4040  0.0939
 9823TIP3   OH250959   5.420   4.606   5.058  0.2345  0.0940  0.6923
 9823TIP3    H150960   5.452   4.537   5.000  1.1031  1.3104 -0.3363
 9823TIP3    H250961   5.337   4.633   5.018  1.3303  1.6498 -0.6770
 9824TIP3   OH250962   4.022   1.170   3.465 -0.4307 -0.6441 -0.3665
 9824TIP3    H150963   4.029   1.109   3.392  2.5641 -1.6119  0.6015
 9824TIP3    H250964   4.104   1.220   3.464 -0.7521  0.0491  1.6654
 9825TIP3   OH250965   4.320   4.705   1.158  0.3839 -0.2019  0.0105
 9825TIP3    H150966   4.381   4.705   1.232  1.1318  3.2811 -0.4440
 9825TIP3    H250967   4.233   4.707   1.198  0.7665  0.9011  0.8287
 9826TIP3   OH250968   1.280   4.585  15.811  0.9145  0.1962  0.1568
 9826TIP3    H150969   1.226   4.663  15.820 -0.6657 -0.8447  0.1239
 9826TIP3    H250970   1.316   4.591  15.722 -1.3079 -0.3360 -0.8589
 9827TIP3   OH250971   2.847   6.102  14.830 -0.1877 -0.4863 -0.3894
 9827TIP3    H150972   2.781   6.103  14.760 -1.8151  1.1385  1.0373
 9827TIP3    H250973   2.810   6.043  14.896 -0.5439  0.8505  0.6572
 9828TIP3   OH250974   3.248   0.900   4.733  0.0414  0.3967 -0.0893
 9828TIP3    H150975   3.174   0.960   4.737 -1.1620 -1.0443  0.1127
 9828TIP3    H250976   3.250   0.870   4.643 -1.2618 -1.4890  0.4536
 9829TIP3   OH250977   2.168   2.988   0.906  0.3403 -0.4379 -0.0477
 9829TIP3    H150978   2.156   3.051   0.836  0.3784  0.3267  0.6227
 9829TIP3    H250979   2.214   3.036   0.974  0.0570 -1.0854  0.6153
 9830TIP3   OH250980   0.468   1.771   4.338  0.4888 -0.0574  0.1650
 9830TIP3    H150981   0.554   1.775   4.297  0.0076  1.9695 -0.7554
 9830TIP3    H250982   0.436   1.861   4.338 -1.5271 -0.7007  0.7316
 9831TIP3   OH250983   2.130   0.894   6.309  0.4473  0.2385  0.3720
 9831TIP3    H150984   2.148   0.906   6.402  1.3429  0.7953  0.1484
 9831TIP3    H250985   2.212   0.919   6.266  0.6868 -1.8490 -0.4619
 9832TIP3   OH250986   6.713   1.650  15.781 -0.5467 -0.5301 -0.2566
 9832TIP3    H150987   6.806   1.627  15.775 -0.3865  0.4521 -2.9870
 9832TIP3    H250988   6.712   1.740  15.814 -0.4943 -0.4100 -0.5786
 9833TIP3   OH250989   3.696   5.586  15.941 -0.3987  0.2409  0.6774
 9833TIP3    H150990   3.777   5.634  15.921  0.7415 -1.6624  0.4513
 9833TIP3    H250991   3.713   5.546  16.025  0.9046 -3.9959 -1.3459
 9834TIP3   OH250992   5.306   4.080   5.105 -0.5783 -0.0640  0.1351
 9834TIP3    H150993   5.383   4.065   5.051 -0.6313  0.9449 -0.2496
 9834TIP3    H250994   5.282   3.994   5.138  1.4937 -0.2439  1.3578
 9835TIP3   OH250995   2.935   3.147   1.607  0.1338  0.2326  0.0582
 9835TIP3    H150996   2.929   3.061   1.648  2.0159 -0.7449 -1.5426
 9835TIP3    H250997   2.846   3.183   1.612 -1.0045 -2.3116 -0.3244
 9836TIP3   OH250998   5.975   3.664   5.431  0.0865  0.8653 -0.3358
 9836TIP3    H150999   6.056   3.710   5.454  1.2960 -1.3825  0.2390
 9836TIP3    H251000   5.982   3.650   5.337  0.4985  0.5036 -0.2580
 9837TIP3   OH251001   0.620   3.478   5.627 -0.1576  0.6652 -0.2757
 9837TIP3    H151002   0.692   3.416   5.636  0.4668  1.3849 -0.1765
 9837TIP3    H251003   0.599   3.477   5.534  0.1592  0.6343 -0.3499
 9838TIP3   OH251004   3.588   4.583   5.449  0.3993 -0.4590 -0.3913
 9838TIP3    H151005   3.634   4.517   5.501 -1.0508 -0.1367  1.4090
 9838TIP3    H251006   3.657   4.628   5.401  1.4163 -3.5050 -2.0556
 9839TIP3   OH251007   5.021   5.215  17.336 -0.2986  0.0438  0.4577
 9839TIP3    H151008   4.979   5.230  17.251  1.2729 -0.7220 -0.5058
 9839TIP3    H251009   4.981   5.134  17.368  0.9690 -1.1284 -0.8337
 9840TIP3   OH251010   3.149   3.444   1.625  0.3962  0.3511  0.1571
 9840TIP3    H151011   3.226   3.497   1.648  0.0017  1.1885 -0.4007
 9840TIP3    H251012   3.112   3.418   1.709  0.3145  1.3955  0.4646
 9841TIP3   OH251013   0.502   6.092  11.397  0.3763  0.3257  0.6397
 9841TIP3    H151014   0.492   6.149  11.321 -1.5838 -0.3938  0.3160
 9841TIP3    H251015   0.579   6.127  11.442  1.0469  1.3280 -1.1597
 9842TIP3   OH251016   4.274   6.127   2.260 -0.1110  0.0119  0.0023
 9842TIP3    H151017   4.322   6.152   2.180 -0.3907 -0.2282 -0.2431
 9842TIP3    H251018   4.183   6.149   2.240  0.1851  3.1310  1.4943
 9843TIP3   OH251019   3.033   3.549   6.324 -0.2867 -0.3241  0.2564
 9843TIP3    H151020   2.987   3.526   6.405  0.3903  0.3831  0.8613
 9843TIP3    H251021   3.085   3.626   6.348 -1.2242  0.8320 -1.2558
 9844TIP3   OH251022   2.498   4.611  11.260  0.2360  0.5016  0.2655
 9844TIP3    H151023   2.551   4.602  11.181  0.7632  0.7318  0.5914
 9844TIP3    H251024   2.449   4.692  11.246  0.0703  0.3630  0.0271
 9845TIP3   OH251025   1.383   1.955  13.735  0.0242  0.4120  0.4578
 9845TIP3    H151026   1.383   2.012  13.812 -1.1945 -0.3140  1.0146
 9845TIP3    H251027   1.298   1.969  13.694  0.7382  0.9430 -0.8968
 9846TIP3   OH251028   2.060   0.377  13.195  0.1074 -0.0273  0.0676
 9846TIP3    H151029   2.106   0.352  13.115 -0.6609 -0.5904 -0.2109
 9846TIP3    H251030   2.006   0.301  13.217  0.3791  0.0799  1.1843
 9847TIP3   OH251031   4.593   2.204  12.859 -0.2801  0.1817 -0.9254
 9847TIP3    H151032   4.601   2.272  12.926  0.2819 -0.1630 -0.6380
 9847TIP3    H251033   4.559   2.128  12.905 -1.8638  0.5400 -1.4382
 9848TIP3   OH251034   2.303   6.336  13.858  0.6110  0.8141 -0.7301
 9848TIP3    H151035   2.234   6.296  13.805  0.7545 -0.9098  0.2760
 9848TIP3    H251036   2.260   6.410  13.902 -1.1381 -1.1428  1.0867
 9849TIP3   OH251037   2.728   4.619  14.450  0.0463  0.1410 -0.7163
 9849TIP3    H151038   2.647   4.572  14.428 -0.9744  1.4703  0.0716
 9849TIP3    H251039   2.757   4.657  14.367 -1.1441  1.1528 -0.6925
 9850TIP3   OH251040   4.894   1.482  13.830 -0.4710  0.0519  0.1554
 9850TIP3    H151041   4.967   1.525  13.785 -1.1657 -0.4760 -1.5545
 9850TIP3    H251042   4.921   1.391  13.838 -0.8420 -0.1001 -0.2885
 9851TIP3   OH251043   6.495   5.461  11.998  0.7261 -0.1499  0.2669
 9851TIP3    H151044   6.583   5.427  11.987  0.6961  0.1980 -1.3536
 9851TIP3    H251045   6.499   5.514  12.078  1.7779 -0.7302  0.6149
 9852TIP3   OH251046   0.096   2.466  14.653 -0.0984 -0.0424 -0.2877
 9852TIP3    H151047   0.047   2.497  14.577  2.1228 -0.1885 -1.8537
 9852TIP3    H251048   0.125   2.546  14.696 -0.7287  0.0319  0.0225
 9853TIP3   OH251049   0.471   2.361   2.910 -0.1514 -0.6918 -0.3509
 9853TIP3    H151050   0.454   2.375   2.817 -0.6908  0.2435 -0.1177
 9853TIP3    H251051   0.527   2.434   2.936 -0.6256 -0.5316  0.2282
 9854TIP3   OH251052   6.439   5.793  13.365 -0.3372 -0.8172 -0.0531
 9854TIP3    H151053   6.464   5.711  13.409 -0.7395 -1.7629 -1.5055
 9854TIP3    H251054   6.379   5.835  13.426  0.4568 -1.2252  1.0520
 9855TIP3   OH251055   5.499   1.956  13.026  0.5357  0.1113  0.2537
 9855TIP3    H151056   5.476   2.042  12.991  1.1225  0.0003 -0.4358
 9855TIP3    H251057   5.415   1.917  13.049  0.2328  0.7097  0.1873
 9856TIP3   OH251058   3.726   0.968  15.696 -0.2766  0.2768 -0.3260
 9856TIP3    H151059   3.743   0.934  15.608 -0.9297  0.9774 -0.7319
 9856TIP3    H251060   3.719   1.063  15.684  3.7154  0.9250  1.1200
 9857TIP3   OH251061   0.316   5.893   6.606 -0.3782 -0.1424  0.1728
 9857TIP3    H151062   0.227   5.923   6.583 -0.0814  0.2225 -0.5428
 9857TIP3    H251063   0.330   5.816   6.551 -0.6652 -0.8891  1.1099
 9858TIP3   OH251064   2.547   2.760   1.334  0.4553  0.2414  0.5256
 9858TIP3    H151065   2.549   2.724   1.245 -0.2390 -0.8745  0.9410
 9858TIP3    H251066   2.587   2.693   1.388 -0.6048  0.1888  1.2857
 9859TIP3   OH251067   4.030   0.405   3.853  0.0443  0.5647  0.1430
 9859TIP3    H151068   4.093   0.468   3.888  0.9571  0.2641 -0.9082
 9859TIP3    H251069   3.953   0.413   3.910  0.3680  2.1853  0.3802
 9860TIP3   OH251070   1.264   5.469  11.978  0.1685 -0.1438  0.1914
 9860TIP3    H151071   1.284   5.556  11.945  1.1442 -0.5976 -0.4738
 9860TIP3    H251072   1.300   5.410  11.912  1.5065 -1.0833  1.7042
 9861TIP3   OH251073   4.411   3.195   3.429  0.3633  0.2258 -0.1414
 9861TIP3    H151074   4.444   3.262   3.488  1.5115  0.5377 -1.0994
 9861TIP3    H251075   4.477   3.188   3.360 -0.0694 -1.3902 -0.4494
 9862TIP3   OH251076   5.785   4.486   0.499  0.0934 -0.0245 -0.1127
 9862TIP3    H151077   5.702   4.440   0.488  0.2607 -0.3218 -0.1639
 9862TIP3    H251078   5.792   4.544   0.423  1.2137 -2.0016 -1.6201
 9863TIP3   OH251079   5.752   1.689   4.990  0.0734 -0.1405 -0.5944
 9863TIP3    H151080   5.752   1.687   5.085  1.2927  1.1814 -0.5373
 9863TIP3    H251081   5.673   1.737   4.966  0.9081  1.5015 -0.1502
 9864TIP3   OH251082   4.045   0.961   2.365 -0.0695 -0.3191 -0.1347
 9864TIP3    H151083   4.129   0.940   2.325  0.2805 -0.0889  0.4611
 9864TIP3    H251084   4.011   0.877   2.396 -1.1443 -0.7889 -2.3478
 9865TIP3   OH251085   4.254   1.922  15.752  0.2833  0.0091  0.1944
 9865TIP3    H151086   4.234   1.950  15.841 -0.2850 -0.3925  0.1986
 9865TIP3    H251087   4.233   1.998  15.698 -1.2197 -0.3635  0.2100
 9866TIP3   OH251088   4.602   2.308   2.468  0.3475  0.3716  0.1688
 9866TIP3    H151089   4.662   2.331   2.396 -0.2407  0.5556 -0.2673
 9866TIP3    H251090   4.606   2.383   2.527  0.4423  0.4418  0.0750
 9867TIP3   OH251091   1.940   4.685  15.582  0.6024  0.2389  0.2450
 9867TIP3    H151092   1.937   4.762  15.639  0.5097  0.4614 -0.0566
 9867TIP3    H251093   1.895   4.617  15.631  0.8962  0.3071  0.6158
 9868TIP3   OH251094   3.931   0.939  11.990  0.5004  0.8635 -0.6060
 9868TIP3    H151095   3.920   0.852  12.028  1.4009  1.3354  0.8246
 9868TIP3    H251096   4.026   0.955  11.995  0.3886  1.7613 -1.2095
 9869TIP3   OH251097   5.283   1.316   1.374  0.2383 -0.1392  0.5568
 9869TIP3    H151098   5.223   1.269   1.432 -2.0146 -1.8411 -2.7706
 9869TIP3    H251099   5.327   1.246   1.324  2.9932  1.1860  0.9636
 9870TIP3   OH251100   1.147   6.182   5.885  0.5045 -0.5366 -1.0157
 9870TIP3    H151101   1.055   6.208   5.893  0.7980 -0.0945  1.7721
 9870TIP3    H251102   1.185   6.246   5.825 -1.1546 -1.2917 -2.9808
 9871TIP3   OH251103   2.392   4.859  11.175  0.3284 -0.1902  0.0772
 9871TIP3    H151104   2.408   4.935  11.231  1.3708 -1.2187  1.2387
 9871TIP3    H251105   2.440   4.877  11.094  3.2555 -0.8894  1.5079
 9872TIP3   OH251106   4.982   2.581  12.458 -0.0309  0.7627  0.0442
 9872TIP3    H151107   4.917   2.638  12.498  0.8314  0.6100  1.7550
 9872TIP3    H251108   5.014   2.630  12.382 -0.6979  1.6987  0.3533
 9873TIP3   OH251109   5.471   6.427  16.676  0.3170 -0.7064 -0.7453
 9873TIP3    H151110   5.395   6.395  16.725  1.0616 -2.0230 -0.3990
 9873TIP3    H251111   5.498   6.506  16.722 -0.5242 -0.5183 -0.5581
 9874TIP3   OH251112   3.840   6.331  14.324  0.0091 -0.1111  0.0307
 9874TIP3    H151113   3.853   6.421  14.295 -0.2395 -0.1419 -0.1882
 9874TIP3    H251114   3.928   6.298  14.341  0.0036  0.8032  2.0919
 9875TIP3   OH251115   2.648   5.095   3.450  0.3621  0.4252  0.3184
 9875TIP3    H151116   2.661   5.048   3.367  1.7883 -1.0629  1.3285
 9875TIP3    H251117   2.616   5.182   3.423 -2.9854 -1.1789 -1.6205
 9876TIP3   OH251118   0.554   0.588  14.208 -0.2860  0.1917  0.2050
 9876TIP3    H151119   0.485   0.522  14.220 -0.2643  0.2265  0.5343
 9876TIP3    H251120   0.533   0.630  14.125 -0.2997 -0.2321 -0.0101
 9877TIP3   OH251121   4.364   2.104   2.065  0.3404 -0.0820  0.6089
 9877TIP3    H151122   4.433   2.054   2.022 -0.6642 -2.8700  2.0089
 9877TIP3    H251123   4.322   2.154   1.994  2.1834 -0.2351 -0.6391
 9878TIP3   OH251124   1.042   4.451  13.891 -0.1220  0.1343  0.4707
 9878TIP3    H151125   1.135   4.435  13.901 -0.3787 -0.6425  1.8737
 9878TIP3    H251126   1.033   4.486  13.802  1.7107  1.9737  0.9324
 9879TIP3   OH251127   3.793   2.420  12.405 -0.2685  0.4297 -0.8020
 9879TIP3    H151128   3.765   2.409  12.314 -0.0066  0.0537 -0.8377
 9879TIP3    H251129   3.759   2.343  12.450  0.1025  0.3297 -0.6970
 9880TIP3   OH251130   6.397   6.738  13.871 -0.2703  0.1155  0.5859
 9880TIP3    H151131   6.323   6.777  13.825  0.8747  1.3050 -0.3080
 9880TIP3    H251132   6.468   6.737  13.807  0.4046 -1.3249  1.3164
 9881TIP3   OH251133   1.809   0.916  13.026 -0.1070  0.6493 -0.1072
 9881TIP3    H151134   1.815   0.863  12.946 -2.2099  0.9558 -0.5488
 9881TIP3    H251135   1.871   0.876  13.086 -0.6916 -1.5542 -0.8635
 9882TIP3   OH251136   2.260   3.339   5.428  0.1402 -0.3555 -0.3541
 9882TIP3    H151137   2.289   3.285   5.501 -1.0482  0.0399  0.4509
 9882TIP3    H251138   2.207   3.408   5.469 -0.2377  0.0931 -1.5538
 9883TIP3   OH251139   1.611   1.133  16.485 -0.2569  0.3521  0.0130
 9883TIP3    H151140   1.603   1.179  16.401  0.4561  1.2216  0.4038
 9883TIP3    H251141   1.609   1.040  16.461  0.1891  0.5890 -1.0036
 9884TIP3   OH251142   2.337   1.074  15.617  0.3687  0.2533 -0.4122
 9884TIP3    H151143   2.348   1.014  15.543  1.7656  1.0113 -0.8730
 9884TIP3    H251144   2.387   1.152  15.592 -0.3068  1.0861  0.7326
 9885TIP3   OH251145   4.511   1.073   4.072 -0.2339  0.1584 -0.1780
 9885TIP3    H151146   4.559   1.103   4.149 -0.0663 -1.0693  0.2234
 9885TIP3    H251147   4.537   1.133   4.002 -1.5520  2.2577  1.0189
 9886TIP3   OH251148   1.877   0.437   5.361 -0.1836 -0.3490 -0.1653
 9886TIP3    H151149   1.787   0.456   5.337  0.4012  1.8845 -0.9043
 9886TIP3    H251150   1.908   0.377   5.293 -0.8694 -0.4798 -0.3716
 9887TIP3   OH251151   1.650   6.038  13.321  0.6099 -0.4250  0.0620
 9887TIP3    H151152   1.651   6.111  13.260  0.7781  0.7805  1.4511
 9887TIP3    H251153   1.643   5.960  13.266  0.1959  0.6415 -1.4444
 9888TIP3   OH251154   3.433   2.054   2.144  0.1520 -0.3935 -0.1522
 9888TIP3    H151155   3.479   2.080   2.224 -1.3635 -0.9958  0.9702
 9888TIP3    H251156   3.400   2.136   2.108 -0.0861 -0.2127  0.4623
 9889TIP3   OH251157   0.371   0.492  17.478 -0.7355  0.2540 -0.0817
 9889TIP3    H151158   0.430   0.428  17.437  0.0793  0.6574  0.4328
 9889TIP3    H251159   0.428   0.545  17.533 -1.5228  0.9377  0.0955
 9890TIP3   OH251160   4.597   2.004  17.028 -0.1875 -0.0683 -0.0237
 9890TIP3    H151161   4.554   1.929  16.986 -0.4784 -0.6977  1.3145
 9890TIP3    H251162   4.581   1.990  17.122  3.0749 -0.4457  0.5923
 9891TIP3   OH251163   6.718   0.053   2.862 -0.4907  0.2010 -0.2882
 9891TIP3    H151164   6.649   0.110   2.827 -0.7486  0.3273  0.4184
 9891TIP3    H251165   6.673  -0.029   2.883 -0.8447  0.8969  1.9292
 9892TIP3   OH251166   3.786   4.158  12.554 -0.1223 -0.3952 -0.2139
 9892TIP3    H151167   3.734   4.115  12.486 -0.8473  0.8692 -0.4874
 9892TIP3    H251168   3.793   4.249  12.525  0.8217 -0.1620  0.6786
 9893TIP3   OH251169   1.661   5.465  10.688  0.0229 -0.3236  0.3430
 9893TIP3    H151170   1.647   5.404  10.616  0.6493 -0.4477  0.3206
 9893TIP3    H251171   1.754   5.486  10.684 -0.2368  0.8488  0.1858
 9894TIP3   OH251172   3.789   4.564  15.833  0.2747 -0.3862  0.4319
 9894TIP3    H151173   3.797   4.484  15.782 -2.3103 -0.6214  0.3078
 9894TIP3    H251174   3.794   4.535  15.924  1.6987 -0.3497  0.3920
 9895TIP3   OH251175   0.687   3.611  12.822  0.5134  0.1804  0.1954
 9895TIP3    H151176   0.606   3.638  12.866 -0.4682 -2.0644 -0.0731
 9895TIP3    H251177   0.676   3.517  12.809  3.0558 -0.1206 -0.1632
 9896TIP3   OH251178   0.818   6.272   2.563  0.4945  0.0598  0.4409
 9896TIP3    H151179   0.814   6.274   2.659  1.6826 -0.7296  0.5399
 9896TIP3    H251180   0.903   6.312   2.542  0.2556  0.2002 -0.2763
 9897TIP3   OH251181   4.054   2.288  11.557  0.6681  0.3254  0.2241
 9897TIP3    H151182   4.047   2.383  11.558  0.5205  0.3205 -0.3798
 9897TIP3    H251183   3.988   2.258  11.620  0.7445  0.6217  0.4451
 9898TIP3   OH251184   6.752   1.254  15.439 -0.3976  0.2497 -0.3224
 9898TIP3    H151185   6.832   1.254  15.387 -0.5271  0.5543 -0.5185
 9898TIP3    H251186   6.778   1.294  15.522 -0.3535  0.3687 -0.3940
 9899TIP3   OH251187   5.301   5.295  12.677 -0.1677 -0.1075  0.0326
 9899TIP3    H151188   5.350   5.216  12.698 -0.5368  0.2606  2.5999
 9899TIP3    H251189   5.349   5.334  12.604  0.3117 -2.3838 -0.9714
 9900TIP3   OH251190   4.492   1.176   4.519 -0.3221  0.2228 -0.0091
 9900TIP3    H151191   4.423   1.126   4.561 -0.8621  0.6507 -0.3740
 9900TIP3    H251192   4.567   1.170   4.579 -0.5647 -0.5257  0.2231
 9901TIP3   OH251193   6.038   6.310  12.629 -0.2491  0.1917  0.0273
 9901TIP3    H151194   5.953   6.269  12.646  0.9207 -2.3120  0.2245
 9901TIP3    H251195   6.053   6.296  12.535  0.2503  0.0063  0.1312
 9902TIP3   OH251196   2.980   4.686   4.931  0.4932  0.1721 -0.4460
 9902TIP3    H151197   3.007   4.755   4.872 -1.7196  0.7740 -0.8623
 9902TIP3    H251198   2.884   4.685   4.925  0.2328 -0.4551  2.3156
 9903TIP3   OH251199   5.480   3.575   6.121  0.2292 -0.9325  0.3427
 9903TIP3    H151200   5.464   3.645   6.058 -0.8505 -1.1013  0.4150
 9903TIP3    H251201   5.533   3.616   6.189 -2.2222  0.4555  1.5082
 9904TIP3   OH251202   5.499   5.696   6.736  0.6399 -0.1630 -0.1355
 9904TIP3    H151203   5.592   5.689   6.711  0.5448 -1.2050 -0.2383
 9904TIP3    H251204   5.456   5.627   6.686 -0.2730  0.5942 -0.4109
 9905TIP3   OH251205   0.462   3.380   5.367 -0.1621 -0.5007  0.1727
 9905TIP3    H151206   0.386   3.401   5.313 -0.1829 -2.8490 -0.8287
 9905TIP3    H251207   0.530   3.440   5.338 -1.0444  0.3015 -0.3064
 9906TIP3   OH251208   5.011   0.912  16.859 -0.1259 -0.3403 -0.6428
 9906TIP3    H151209   5.012   1.004  16.833  0.0350 -0.2165 -0.2165
 9906TIP3    H251210   4.945   0.907  16.928 -0.0084 -0.5061 -0.5408
 9907TIP3   OH251211   0.087   4.008  13.528  0.2983  0.5569 -1.0909
 9907TIP3    H151212   0.150   3.962  13.473  1.1252  0.5029 -0.1345
 9907TIP3    H251213   0.050   4.076  13.471 -0.1547 -0.5855 -2.2038
 9908TIP3   OH251214   0.739   5.312   3.664 -0.2682 -0.2946  0.4865
 9908TIP3    H151215   0.787   5.237   3.697 -2.4028 -1.9476  0.0279
 9908TIP3    H251216   0.697   5.350   3.741  2.4379  1.8518  1.0930
 9909TIP3   OH251217   5.418   2.424  12.751 -0.3305  0.1204  0.2742
 9909TIP3    H151218   5.342   2.467  12.712  0.7397  1.5818 -0.3026
 9909TIP3    H251219   5.493   2.467  12.710  0.8273 -1.8720  0.1860
 9910TIP3   OH251220   2.958   6.033  15.597  0.3676  0.0975 -0.0438
 9910TIP3    H151221   3.026   5.966  15.608  1.8671  1.7108  1.4076
 9910TIP3    H251222   2.942   6.064  15.686 -0.9658  1.0061 -0.5798
 9911TIP3   OH251223   6.100   0.972  12.236 -0.1838  0.1242  0.0997
 9911TIP3    H151224   6.044   1.023  12.176  0.0097 -0.0205 -0.2084
 9911TIP3    H251225   6.173   1.031  12.257  0.2016 -0.1309 -0.5031
 9912TIP3   OH251226   4.734   4.873  12.904  0.2273  0.0673 -0.3303
 9912TIP3    H151227   4.645   4.869  12.870  0.3557 -0.0097 -0.6602
 9912TIP3    H251228   4.770   4.785  12.889 -1.2112 -1.5607  4.1855
 9913TIP3   OH251229   6.079   4.560   1.881 -0.0113 -0.0238 -0.1871
 9913TIP3    H151230   6.050   4.577   1.791  0.2667  0.8514 -0.1205
 9913TIP3    H251231   6.173   4.545   1.873 -0.1486 -0.9691 -0.1618
 9914TIP3   OH251232   3.890   5.614   5.637 -0.5884  0.2710 -1.0152
 9914TIP3    H151233   3.827   5.681   5.665 -0.7716 -0.4084  0.2456
 9914TIP3    H251234   3.967   5.628   5.692 -0.1903  0.1517 -1.5279
 9915TIP3   OH251235   1.062   2.093   4.884  0.7125 -0.5157 -0.3217
 9915TIP3    H151236   1.070   2.176   4.837 -0.4178 -0.7753 -1.0213
 9915TIP3    H251237   1.036   2.117   4.973  2.8255 -0.0215  0.2064
 9916TIP3   OH251238   5.229   1.985  12.177 -0.1917 -0.2239 -0.3743
 9916TIP3    H151239   5.301   1.993  12.114 -0.9041 -1.5611 -1.4070
 9916TIP3    H251240   5.176   2.063  12.162  0.8986  0.6865  0.2694
 9917TIP3   OH251241   4.400   1.429   2.514 -0.1619 -0.3820  0.1500
 9917TIP3    H151242   4.430   1.481   2.439 -0.9940 -0.4437 -0.2391
 9917TIP3    H251243   4.463   1.449   2.584 -1.3213  2.4524  0.5495
 9918TIP3   OH251244   5.259   5.686   0.836 -0.2765  0.0765  0.1643
 9918TIP3    H151245   5.261   5.595   0.864 -2.1038  0.1533  0.7060
 9918TIP3    H251246   5.167   5.712   0.845  0.2116  2.0129  0.1707
 9919TIP3   OH251247   2.831   1.737  15.747 -0.1651 -0.0073 -0.0896
 9919TIP3    H151248   2.876   1.725  15.830  0.8535 -0.8197 -0.7207
 9919TIP3    H251249   2.875   1.812  15.706 -0.9831  0.6984  0.2884
 9920TIP3   OH251250   3.434   2.750   2.693 -0.1491 -0.2086 -0.1274
 9920TIP3    H151251   3.353   2.745   2.743 -0.5620 -0.1317 -0.7639
 9920TIP3    H251252   3.459   2.659   2.679 -0.8930 -0.2879 -1.1036
 9921TIP3   OH251253   3.345   1.804  16.134 -0.0919  0.0843 -0.0259
 9921TIP3    H151254   3.432   1.769  16.114 -0.0440  0.1087  0.1381
 9921TIP3    H251255   3.298   1.731  16.173 -0.2024  0.0221 -0.2763
 9922TIP3   OH251256   6.451   4.842  14.713 -0.0921 -0.1448 -0.2601
 9922TIP3    H151257   6.478   4.750  14.708 -1.5167 -0.6317  0.4465
 9922TIP3    H251258   6.362   4.843  14.677 -0.4221  0.8000  0.5408
 9923TIP3   OH251259   6.433   0.011  16.866 -0.4339  0.2368 -0.3614
 9923TIP3    H151260   6.366   0.053  16.919  1.1013  0.5451  1.4242
 9923TIP3    H251261   6.417   0.042  16.777 -1.0539  2.3778  0.4489
 9924TIP3   OH251262   2.531   3.387  12.664 -0.2828  0.4488  0.2218
 9924TIP3    H151263   2.539   3.478  12.690  0.1274  0.3895  0.3140
 9924TIP3    H251264   2.449   3.357  12.705 -0.1775  0.6443  0.5795
 9925TIP3   OH251265   2.183   2.349   1.410  0.0203 -0.2281 -0.2962
 9925TIP3    H151266   2.162   2.440   1.429 -0.4990 -0.7531  1.9772
 9925TIP3    H251267   2.126   2.299   1.468  2.0130 -1.9189  0.3490
 9926TIP3   OH251268   5.804   3.858  15.165  0.1132  0.2261  0.0649
 9926TIP3    H151269   5.850   3.775  15.156  1.1835  0.6961  0.9984
 9926TIP3    H251270   5.826   3.888  15.253 -2.3736  0.2642  0.7446
 9927TIP3   OH251271   6.639   5.341   1.986  0.2215  0.3471  0.0799
 9927TIP3    H151272   6.718   5.393   2.005  0.1096  0.4487  0.2643
 9927TIP3    H251273   6.610   5.375   1.901  0.3032  0.3986  0.0713
 9928TIP3   OH251274   2.596   3.819   3.958 -0.6088 -0.1761  0.3496
 9928TIP3    H151275   2.650   3.891   3.927  1.2310 -1.0749  1.2491
 9928TIP3    H251276   2.617   3.746   3.900 -0.0455 -0.8111  1.3076
 9929TIP3   OH251277   2.176   3.358  11.669  0.3343  0.1883 -0.4532
 9929TIP3    H151278   2.143   3.276  11.634 -0.3863  0.8255 -1.3081
 9929TIP3    H251279   2.211   3.405  11.593  1.2861  0.4267  0.1101
 9930TIP3   OH251280   5.002   2.220  14.072 -0.2288  0.1799 -0.4966
 9930TIP3    H151281   4.919   2.223  14.120 -0.3334 -2.4750 -0.3194
 9930TIP3    H251282   4.986   2.273  13.994 -2.2508 -0.4891 -0.6077
 9931TIP3   OH251283   6.636   0.676  15.036  0.2870 -0.1037 -0.1375
 9931TIP3    H151284   6.602   0.637  15.117  1.1831 -1.3988 -0.3506
 9931TIP3    H251285   6.728   0.694  15.055 -0.0489  1.7660 -0.1299
 9932TIP3   OH251286   0.224   0.392  11.506 -0.1044 -0.4454  0.4250
 9932TIP3    H151287   0.297   0.384  11.568  0.2066 -2.1114 -0.1001
 9932TIP3    H251288   0.150   0.352  11.551 -1.0117  1.9934  1.3005
 9933TIP3   OH251289   4.841   1.848  16.433 -0.6598  0.6639 -0.0041
 9933TIP3    H151290   4.912   1.787  16.411 -1.2438 -0.5151  1.1980
 9933TIP3    H251291   4.885   1.932  16.448  0.3827  0.1422 -0.0161
 9934TIP3   OH251292   3.383   1.683   2.808 -0.0644  0.4958  0.0650
 9934TIP3    H151293   3.401   1.707   2.899  0.9666 -0.2616  0.0665
 9934TIP3    H251294   3.289   1.701   2.798 -0.3094  0.1010  1.4238
 9935TIP3   OH251295   2.280   6.147  14.670  0.0091  0.1412 -0.4638
 9935TIP3    H151296   2.250   6.098  14.593 -0.8812 -1.6473  0.9417
 9935TIP3    H251297   2.213   6.215  14.682 -1.0463 -0.9286 -0.0558
 9936TIP3   OH251298   2.455   1.742  16.368 -0.0891  0.2724  0.5707
 9936TIP3    H151299   2.460   1.649  16.390  0.7683 -0.0897 -1.0153
 9936TIP3    H251300   2.362   1.757  16.348  0.3970 -1.6326 -4.4183
 9937TIP3   OH251301   5.184   2.229  11.927 -0.4290 -0.3953  0.2637
 9937TIP3    H151302   5.108   2.286  11.942  0.2696  0.2363  1.5657
 9937TIP3    H251303   5.224   2.264  11.847  1.7162  3.0600  2.5470
 9938TIP3   OH251304   2.132   5.940  17.371  0.4652  0.1183  0.2160
 9938TIP3    H151305   2.077   5.887  17.429  1.9108  0.5994  2.1178
 9938TIP3    H251306   2.121   5.899  17.285 -0.1046 -1.9791  1.2027
 9939TIP3   OH251307   6.423   0.138  11.147 -0.3301  0.3414  0.9115
 9939TIP3    H151308   6.420   0.048  11.179 -1.2816  1.0823  3.1132
 9939TIP3    H251309   6.516   0.155  11.133 -0.0651 -0.7288  1.2431
 9940TIP3   OH251310   4.932   1.532  14.176  0.3863  0.0223  0.7690
 9940TIP3    H151311   4.875   1.579  14.115 -0.4206 -1.4787  0.3186
 9940TIP3    H251312   4.996   1.489  14.119  0.7861  0.1424  1.1284
 9941TIP3   OH251313   6.413   3.015  14.299 -0.3507  0.1052 -0.1209
 9941TIP3    H151314   6.483   2.975  14.246  0.1748 -1.3026  1.5095
 9941TIP3    H251315   6.459   3.052  14.374 -1.2791 -0.3575  0.7061
 9942TIP3   OH251316   5.920   5.479   1.219 -0.2590 -0.3233  0.4402
 9942TIP3    H151317   5.997   5.465   1.163 -0.8606  1.4803 -0.9415
 9942TIP3    H251318   5.853   5.422   1.181 -0.2884 -0.0855  0.1306
 9943TIP3   OH251319   5.823   2.706  12.507  0.0598  0.0803 -0.2646
 9943TIP3    H151320   5.850   2.788  12.466  0.8940  0.3687  0.7972
 9943TIP3    H251321   5.899   2.648  12.496 -0.2705 -0.3236 -0.4262
 9944TIP3   OH251322   5.794   2.474   2.352 -0.2668 -0.7727 -0.2267
 9944TIP3    H151323   5.792   2.537   2.279 -1.1489 -3.0122 -2.2687
 9944TIP3    H251324   5.719   2.498   2.406  0.0074  0.5365 -0.3944
 9945TIP3   OH251325   3.121   4.407   1.042 -0.3437 -0.5376 -0.7143
 9945TIP3    H151326   3.086   4.494   1.027  0.0574  0.3413  2.5529
 9945TIP3    H251327   3.046   4.348   1.028 -1.0647  0.4957 -1.3306
 9946TIP3   OH251328   0.205   0.378   5.061 -0.4875  1.1906  0.3623
 9946TIP3    H151329   0.277   0.406   5.004 -1.5641 -0.6978 -2.1083
 9946TIP3    H251330   0.247   0.325   5.129  0.3927 -2.2547 -2.5877
 9947TIP3   OH251331   4.349   3.148  13.894 -0.5585  0.0666 -0.3077
 9947TIP3    H151332   4.330   3.200  13.816 -0.1105 -0.7067 -0.9509
 9947TIP3    H251333   4.442   3.125  13.885 -1.0232 -1.7994 -0.6363
 9948TIP3   OH251334   6.134   6.313  14.723  0.8959 -0.0942 -0.4351
 9948TIP3    H151335   6.111   6.232  14.677  2.1865 -1.1184  0.6081
 9948TIP3    H251336   6.228   6.304  14.740  0.7994  1.0124  0.8629
 9949TIP3   OH251337   0.695   2.850   5.085 -0.1508  0.6368  0.1920
 9949TIP3    H151338   0.754   2.867   5.159 -1.4909  0.3733  1.3814
 9949TIP3    H251339   0.617   2.813   5.126 -0.7772  0.0910 -1.4304
 9950TIP3   OH251340   0.444   1.807  12.502  0.0358  0.6096 -0.0710
 9950TIP3    H151341   0.483   1.781  12.585 -0.0324  0.8827  0.0465
 9950TIP3    H251342   0.366   1.855  12.526  0.6598  1.7525 -0.2633
 9951TIP3   OH251343   1.024   1.687   4.375  0.2356  0.2477  0.2967
 9951TIP3    H151344   0.988   1.775   4.364 -1.4243 -0.6751 -3.0853
 9951TIP3    H251345   1.046   1.659   4.287  0.7831 -2.7391  1.2709
 9952TIP3   OH251346   4.198   4.310  15.344  0.4897 -0.3487 -0.4337
 9952TIP3    H151347   4.291   4.334  15.338  0.2249  0.6602 -0.6580
 9952TIP3    H251348   4.162   4.332  15.259 -0.5565  2.0254  0.5280
 9953TIP3   OH251349   2.509   2.839  13.694  0.3920  0.3263  0.5434
 9953TIP3    H151350   2.478   2.929  13.702  1.2404  0.8899 -1.7258
 9953TIP3    H251351   2.432   2.789  13.665  0.1760  0.5238  0.7788
 9954TIP3   OH251352   1.783   4.871   2.975  0.1116 -0.5101 -0.3103
 9954TIP3    H151353   1.778   4.876   2.879 -1.1751 -2.1271 -0.3698
 9954TIP3    H251354   1.839   4.795   2.992  1.8687  0.8633  0.2671
 9955TIP3   OH251355   0.403   2.018  15.554 -0.1771 -0.2750  0.0565
 9955TIP3    H151356   0.493   2.027  15.523 -0.7443  1.0153 -1.4103
 9955TIP3    H251357   0.355   1.984  15.478 -0.8201 -1.6262  1.0349
 9956TIP3   OH251358   0.550   2.286  15.667 -0.0847 -0.0151  0.5723
 9956TIP3    H151359   0.473   2.245  15.706 -1.0664 -0.4791 -1.7452
 9956TIP3    H251360   0.572   2.231  15.593  2.6793 -0.0290  1.3047
 9957TIP3   OH251361   4.064   2.080   1.312  0.0971  0.4003 -0.8298
 9957TIP3    H151362   4.123   2.130   1.256  1.5708 -1.8972 -1.4682
 9957TIP3    H251363   4.114   2.066   1.393  1.0498 -2.5323 -1.7950
 9958TIP3   OH251364   3.305   2.295  14.014  0.8065  0.3973 -0.1888
 9958TIP3    H151365   3.316   2.289  14.109  2.9691  2.9095 -0.1584
 9958TIP3    H251366   3.368   2.232  13.978  1.7139  1.1388  0.0712
 9959TIP3   OH251367   4.924   4.891  13.367  0.2040 -0.2246  0.4599
 9959TIP3    H151368   5.018   4.872  13.372  0.9050  2.0547 -1.8086
 9959TIP3    H251369   4.914   4.974  13.414 -0.1075  0.9655 -1.6069
 9960TIP3   OH251370   1.626   3.039  12.289 -0.2937  0.3092  0.3447
 9960TIP3    H151371   1.654   2.948  12.300 -0.2889  0.2373 -0.2204
 9960TIP3    H251372   1.542   3.044  12.336  0.2314  0.3038  1.3041
 9961TIP3   OH251373   1.184   3.061   6.119 -0.1932 -0.6335 -0.2072
 9961TIP3    H151374   1.270   3.104   6.115 -0.7361  0.6952  1.4183
 9961TIP3    H251375   1.169   3.047   6.212 -1.7714 -0.8139 -0.4701
 9962TIP3   OH251376   2.101   1.395  11.775  0.5990  0.1268  0.4573
 9962TIP3    H151377   2.151   1.473  11.799  3.1051 -1.2999  0.0954
 9962TIP3    H251378   2.137   1.325  11.829  0.4801 -1.3908 -1.3526
 9963TIP3   OH251379   3.560   6.614  15.738 -0.3003  0.5790  0.4865
 9963TIP3    H151380   3.486   6.597  15.681  0.8371  0.9831 -1.1899
 9963TIP3    H251381   3.541   6.565  15.818 -1.9089 -0.0609 -0.2442
 9964TIP3   OH251382   1.710   6.109  13.569 -0.0667  0.1432 -0.3311
 9964TIP3    H151383   1.723   6.204  13.566 -1.5040  0.3365 -1.9467
 9964TIP3    H251384   1.653   6.090  13.495 -2.0331 -1.6150  1.4722
 9965TIP3   OH251385   4.007   2.686  15.647 -0.0408 -0.3675 -0.2150
 9965TIP3    H151386   3.996   2.769  15.602 -1.8958 -0.8372 -0.7080
 9965TIP3    H251387   3.948   2.692  15.723  0.4064 -0.9311  0.1874
 9966TIP3   OH251388   0.393   1.461   0.650 -0.4617 -0.3941  0.3843
 9966TIP3    H151389   0.396   1.516   0.729 -1.7286 -0.4848  0.5272
 9966TIP3    H251390   0.329   1.504   0.594  0.9043  0.0319 -0.9065
 9967TIP3   OH251391   1.997   5.632   4.901 -0.5252  0.6938  0.0618
 9967TIP3    H151392   2.011   5.591   4.986 -0.5780  2.6075  1.0465
 9967TIP3    H251393   1.962   5.562   4.845  0.4587 -0.8476  1.3070
 9968TIP3   OH251394   1.002   3.284  14.392 -0.2481 -0.3521 -0.1804
 9968TIP3    H151395   1.052   3.364  14.409  2.2543 -2.1507  1.5807
 9968TIP3    H251396   0.960   3.264  14.476 -2.9211  0.3287 -1.2462
 9969TIP3   OH251397   0.451   3.812   5.542  0.0184  0.4270  0.1175
 9969TIP3    H151398   0.390   3.877   5.577 -0.0512  0.5567 -0.2500
 9969TIP3    H251399   0.538   3.846   5.566 -0.0136  0.6945 -0.1423
 9970TIP3   OH251400   3.000   3.039  11.276  0.0231  0.1362 -0.1535
 9970TIP3    H151401   3.033   3.007  11.193  0.3980 -0.7566  0.3305
 9970TIP3    H251402   2.948   2.967  11.311 -0.7580  0.7740  0.0531
 9971TIP3   OH251403   3.646   6.270  16.862 -0.0592 -0.2046  0.4790
 9971TIP3    H151404   3.670   6.198  16.921  0.8083 -2.3364 -2.2682
 9971TIP3    H251405   3.724   6.326  16.861  0.1311 -0.4504  0.9174
 9972TIP3   OH251406   2.487   4.605   5.838 -0.0076 -0.3852  0.3522
 9972TIP3    H151407   2.526   4.658   5.907 -2.8736  0.5976  1.3625
 9972TIP3    H251408   2.476   4.665   5.765  0.1749 -0.5992  0.1473
 9973TIP3   OH251409   0.352   4.725  16.905 -0.2069  0.9729 -0.5433
 9973TIP3    H151410   0.305   4.782  16.965  2.3500  1.1504  1.4344
 9973TIP3    H251411   0.394   4.785  16.843  0.6093  1.0890  0.1188
 9974TIP3   OH251412   3.954   3.793  15.751 -0.5861 -0.0734  0.0381
 9974TIP3    H151413   4.026   3.809  15.812  1.6111 -1.7938 -1.9265
 9974TIP3    H251414   3.926   3.703  15.770  0.0306 -0.5825 -1.2983
 9975TIP3   OH251415   5.255   3.599   3.706 -0.6139  0.1653 -0.4707
 9975TIP3    H151416   5.309   3.539   3.757 -1.6391 -0.4994 -0.1434
 9975TIP3    H251417   5.318   3.648   3.653  0.4145  0.3217  0.8345
 9976TIP3   OH251418   1.048   0.664  15.330 -0.4070  0.1451 -0.2700
 9976TIP3    H151419   1.044   0.570  15.316 -1.1776  0.3591 -1.6877
 9976TIP3    H251420   1.065   0.674  15.424  1.9129 -1.4021 -0.4420
 9977TIP3   OH251421   5.306   3.480  12.422  0.3627  0.5612 -1.1615
 9977TIP3    H151422   5.391   3.480  12.467  0.6782  0.1316 -1.7428
 9977TIP3    H251423   5.246   3.523  12.483  1.2811  2.0771 -1.2683
 9978TIP3   OH251424   2.094   3.186   5.011  0.1592  0.1802 -0.0665
 9978TIP3    H151425   2.112   3.280   5.009  0.2450  0.2191 -3.6977
 9978TIP3    H251426   2.016   3.176   4.956 -0.2060 -1.8230  0.7701
 9979TIP3   OH251427   3.548   2.171  13.873  0.0299  0.3925 -0.1743
 9979TIP3    H151428   3.626   2.217  13.840  0.7595  0.3691  1.3807
 9979TIP3    H251429   3.535   2.099  13.812  0.1487  1.4200 -1.4634
 9980TIP3   OH251430   1.074   6.203  16.495 -0.4550  0.9075 -0.0978
 9980TIP3    H151431   1.167   6.184  16.513 -0.2662  0.3682 -1.5346
 9980TIP3    H251432   1.074   6.292  16.460 -0.4189  0.7404 -0.5272
 9981TIP3   OH251433   3.628   1.101  15.421  0.0148  0.1510  0.1337
 9981TIP3    H151434   3.576   1.171  15.381  1.2823 -0.0748 -2.0477
 9981TIP3    H251435   3.580   1.021  15.401 -0.8969  0.2357  1.7502
 9982TIP3   OH251436   6.442   2.080   4.706  0.2053  0.8450 -0.0427
 9982TIP3    H151437   6.498   2.006   4.730 -1.2165 -1.0289 -2.0773
 9982TIP3    H251438   6.383   2.091   4.780  1.0743  0.6159  0.6979
 9983TIP3   OH251439   4.951   0.743   0.462  0.1035 -0.2327 -0.2590
 9983TIP3    H151440   5.022   0.730   0.525  0.5814 -0.8185 -0.9054
 9983TIP3    H251441   4.988   0.716   0.378 -0.6968  0.0300 -0.7061
 9984TIP3   OH251442   5.120   0.658  13.059  0.5731 -0.1364 -0.0622
 9984TIP3    H151443   5.133   0.653  12.964  0.7792 -1.6013  0.0320
 9984TIP3    H251444   5.056   0.590  13.078  1.6745 -0.8955  1.0457
 9985TIP3   OH251445   0.554   6.554  16.390  0.2165  0.5876  0.1807
 9985TIP3    H151446   0.508   6.603  16.321  0.0488 -1.2487 -1.0723
 9985TIP3    H251447   0.647   6.562  16.367  0.1666  0.0455 -0.2026
 9986TIP3   OH251448   6.213   1.164  13.231 -0.2481 -0.3790 -0.4069
 9986TIP3    H151449   6.239   1.094  13.172  2.0623  0.1031 -0.0578
 9986TIP3    H251450   6.215   1.243  13.176  1.2379 -0.0298  0.1002
 9987TIP3   OH251451   3.752   2.245  13.719 -0.1306  0.2841 -0.3154
 9987TIP3    H151452   3.824   2.182  13.725 -1.0790 -0.9822 -1.5523
 9987TIP3    H251453   3.794   2.330  13.721  1.3112 -0.4053  0.0398
 9988TIP3   OH251454   2.142   4.257  12.938 -0.0728 -0.0928  0.1984
 9988TIP3    H151455   2.217   4.225  12.889  0.0109  0.3865  0.0034
 9988TIP3    H251456   2.083   4.182  12.943  1.5956 -1.3565  2.7911
 9989TIP3   OH251457   3.029   3.089   6.070  0.7418 -0.1290 -0.0907
 9989TIP3    H151458   3.034   3.145   5.993 -2.1334 -0.3662 -0.5529
 9989TIP3    H251459   3.070   3.140   6.140 -0.4211  1.9081 -0.8290
 9990TIP3   OH251460   3.284   0.223  11.038 -0.9214 -0.4799  0.0011
 9990TIP3    H151461   3.341   0.266  10.974 -2.2207  0.6470 -0.4417
 9990TIP3    H251462   3.280   0.132  11.008 -0.1907 -0.3445 -0.5508
 9991TIP3   OH251463   5.628   0.695   0.153 -0.4707  0.3025 -0.2237
 9991TIP3    H151464   5.668   0.609   0.139  0.0468  0.6754 -1.1178
 9991TIP3    H251465   5.647   0.716   0.245 -0.5159 -0.4811 -0.0273
 9992TIP3   OH251466   3.348   2.280   5.532  0.4792  0.2601  0.0084
 9992TIP3    H151467   3.289   2.355   5.520 -0.0634 -0.3336 -1.3279
 9992TIP3    H251468   3.361   2.274   5.626 -0.7661  1.0526  0.2589
 9993TIP3   OH251469   2.340   2.120  12.624  0.4549 -0.2188 -0.1258
 9993TIP3    H151470   2.315   2.130  12.533  1.0974 -0.0836 -0.2905
 9993TIP3    H251471   2.296   2.193  12.669  0.6239  0.0699 -0.4251
 9994TIP3   OH251472   2.159   1.999   1.531 -0.0800  0.5099 -0.7740
 9994TIP3    H151473   2.146   1.905   1.545 -0.0897  0.5360 -0.6121
 9994TIP3    H251474   2.092   2.024   1.467 -1.1409  0.7450  0.3978
 9995TIP3   OH251475   6.146   6.340   4.045  0.4755  0.2606 -0.0995
 9995TIP3    H151476   6.118   6.300   4.127 -0.4447 -1.3206 -1.1377
 9995TIP3    H251477   6.197   6.417   4.072 -2.0639  1.3682  1.9223
 9996TIP3   OH251478   0.347   4.693  16.583 -0.7445 -0.3585  0.2849
 9996TIP3    H151479   0.427   4.688  16.530  0.0219 -1.0376  1.4513
 9996TIP3    H251480   0.335   4.604  16.617 -1.3812 -0.0056  1.0111
 9997TIP3   OH251481   4.854   3.511  12.886  0.7605  0.1842  0.7234
 9997TIP3    H151482   4.809   3.539  12.807  1.4675  0.2248  0.3308
 9997TIP3    H251483   4.790   3.455  12.931  0.8852 -1.1223 -0.6422
 9998TIP3   OH251484   4.912   1.381   3.755  0.2418 -0.6947 -0.1969
 9998TIP3    H151485   4.902   1.339   3.840  1.2869 -0.9088 -0.1683
 9998TIP3    H251486   4.834   1.435   3.745 -0.9904 -2.3779 -0.0880
 9999TIP3   OH251487   0.106   5.578   1.992  0.1389  0.1314 -0.3832
 9999TIP3    H151488   0.058   5.655   2.024 -1.1669 -1.5228  1.9555
 9999TIP3    H251489   0.172   5.563   2.059 -0.2615 -1.3154 -0.2897
10000TIP3   OH251490   0.621   3.081  14.292  0.1254 -0.2423  0.3090
10000TIP3    H151491   0.658   3.081  14.380  2.8163 -0.9688 -0.7064
10000TIP3    H251492   0.676   3.141  14.242 -1.6435  0.5399 -0.8134
10001TIP3   OH251493   0.653   2.290   1.977  0.0044 -0.1422  0.2009
10001TIP3    H151494   0.679   2.236   2.052  0.8900  1.5755  1.2015
10001TIP3    H251495   0.596   2.358   2.014  1.7185  1.6876 -0.3290
10002TIP3   OH251496   1.059   0.717  16.528  0.9337 -0.1840  0.1267
10002TIP3    H151497   1.062   0.723  16.623 -0.9416  0.8582  0.1597
10002TIP3    H251498   1.054   0.623  16.510  1.0540 -0.3729  1.0480
10003TIP3   OH251499   1.376   6.117   5.667  0.1296  0.1114  0.2038
10003TIP3    H151500   1.329   6.165   5.599  1.8945  1.0913 -0.3708
10003TIP3    H251501   1.364   6.025   5.644  2.5543  0.4196 -2.8618
10004TIP3   OH251502   6.404   1.345  13.484  0.1313  0.7923  0.2930
10004TIP3    H151503   6.466   1.319  13.416  0.1587  2.6143 -0.4410
10004TIP3    H251504   6.395   1.268  13.539  1.3547 -0.2192 -0.8509
10005TIP3   OH251505   3.312   0.767   4.495  0.5036  0.3729  0.4226
10005TIP3    H151506   3.283   0.821   4.422 -0.1645  1.8082  1.6787
10005TIP3    H251507   3.280   0.679   4.475  1.3829  0.4531 -1.5430
10006TIP3   OH251508   3.783   2.502   6.051  0.3463 -0.0098  0.8193
10006TIP3    H151509   3.720   2.554   6.001  0.6055 -0.2960  0.1918
10006TIP3    H251510   3.869   2.539   6.028  0.4842 -0.2924  0.8765
10007TIP3   OH251511   3.672   4.710  17.459 -0.6361  0.2784  0.2640
10007TIP3    H151512   3.585   4.683  17.427 -0.4153 -0.1163 -0.0164
10007TIP3    H251513   3.662   4.803  17.479 -1.4245 -0.0035  1.2633
10008TIP3   OH251514   1.796   4.810   4.861 -0.0241 -0.3469  0.0965
10008TIP3    H151515   1.766   4.794   4.951 -0.7931  0.8999  0.0813
10008TIP3    H251516   1.861   4.741   4.845  0.2258 -0.5088  1.6525
10009TIP3   OH251517   0.356   0.525   3.818 -0.0269 -0.6292 -0.5791
10009TIP3    H151518   0.349   0.551   3.727  0.0024  2.4746  0.2069
10009TIP3    H251519   0.286   0.572   3.863  1.5737  0.0519  1.3889
10010TIP3   OH251520   4.730   6.284  16.755  0.3783 -0.0618 -0.2054
10010TIP3    H151521   4.687   6.355  16.709 -0.3983 -0.3899 -0.0006
10010TIP3    H251522   4.808   6.323  16.794  1.7345 -0.0209 -2.7790
10011TIP3   OH251523   1.474   1.365   1.734 -0.1031  0.7711 -0.2146
10011TIP3    H151524   1.549   1.425   1.729 -0.7291  1.5496 -0.5651
10011TIP3    H251525   1.467   1.327   1.647 -1.0881  1.9456 -0.6818
10012TIP3   OH251526   2.961   6.453   4.844  0.6471  0.2365 -0.0152
10012TIP3    H151527   2.986   6.409   4.926 -0.5602  0.4392  0.4932
10012TIP3    H251528   2.958   6.546   4.867  1.7952  0.4637 -0.7145
10013TIP3   OH251529   1.577   5.289  16.874 -0.3220  0.1360  0.2982
10013TIP3    H151530   1.536   5.349  16.936 -0.1603 -1.0024  1.5541
10013TIP3    H251531   1.658   5.263  16.916  0.0316 -0.3005 -0.6203
10014TIP3   OH251532   2.868   5.154   1.227  0.3342  0.6122 -0.1643
10014TIP3    H151533   2.820   5.074   1.206  0.8168  0.5795 -1.2268
10014TIP3    H251534   2.849   5.170   1.319 -2.2361  0.9854 -0.6870
10015TIP3   OH251535   1.814   4.752  15.092  0.1508  0.0253 -0.1699
10015TIP3    H151536   1.732   4.796  15.069 -0.3361 -1.4000 -1.3393
10015TIP3    H251537   1.814   4.750  15.188 -0.9864  0.3995 -0.1416
10016TIP3   OH251538   3.748   5.450   3.240  0.2499  1.2183 -0.0559
10016TIP3    H151539   3.830   5.422   3.281 -0.3120 -0.7968 -0.2189
10016TIP3    H251540   3.767   5.538   3.207  2.4382  0.6884 -0.3595
10017TIP3   OH251541   1.953   6.707  15.822 -0.5487 -0.0763  0.0386
10017TIP3    H151542   1.992   6.628  15.861 -0.7845  0.8472  2.3119
10017TIP3    H251543   1.884   6.732  15.883 -0.7116  1.6946 -0.8173
10018TIP3   OH251544   3.521   3.116   4.084  0.0310 -0.6878 -0.1290
10018TIP3    H151545   3.534   3.155   3.997 -0.1878 -0.4076 -0.0395
10018TIP3    H251546   3.494   3.190   4.139 -2.1630 -1.2528 -0.3536
10019TIP3   OH251547   2.845   5.930  10.797 -0.4409 -0.3892  0.2194
10019TIP3    H151548   2.784   6.003  10.805 -0.4291 -0.4029  0.4201
10019TIP3    H251549   2.898   5.952  10.720 -0.7957 -0.4489 -0.0461
10020TIP3   OH251550   4.379   6.703  13.688  0.2676 -0.7905 -0.3632
10020TIP3    H151551   4.309   6.708  13.753 -0.5597 -3.3917 -0.9594
10020TIP3    H251552   4.433   6.629  13.717  0.9925 -0.7721 -1.6059
10021TIP3   OH251553   5.696   4.729   4.477  0.3944  0.4501  0.3508
10021TIP3    H151554   5.609   4.720   4.439  0.3370  2.1389 -0.0025
10021TIP3    H251555   5.732   4.640   4.476 -0.7715 -0.0471 -0.7897
10022TIP3   OH251556   2.416   1.242  12.034  0.9862  0.2612  0.3727
10022TIP3    H151557   2.488   1.187  12.004  0.1956 -1.1528  0.9409
10022TIP3    H251558   2.442   1.272  12.121  0.5720 -0.9050  0.9132
10023TIP3   OH251559   0.896   6.085  14.136 -0.5627  0.4087 -0.0042
10023TIP3    H151560   0.883   6.011  14.077 -0.4940 -1.2151  1.9191
10023TIP3    H251561   0.991   6.094  14.142 -0.5279 -0.4097  0.9642
10024TIP3   OH251562   3.050   1.561   2.311  0.5842 -0.4644 -0.0633
10024TIP3    H151563   2.971   1.603   2.277 -0.3155 -0.2522  2.0788
10024TIP3    H251564   3.043   1.470   2.283 -0.2723 -0.3768 -0.1513
10025TIP3   OH251565   2.539   0.642   3.799 -0.0405 -0.1848 -0.7116
10025TIP3    H151566   2.513   0.728   3.767  0.0653 -0.0936 -0.5510
10025TIP3    H251567   2.624   0.626   3.758  0.0067 -0.1508 -0.6266
10026TIP3   OH251568   6.479   4.898  12.952 -0.2036  0.6463 -0.4413
10026TIP3    H151569   6.538   4.865  12.884 -1.0552 -0.0600 -0.8480
10026TIP3    H251570   6.462   4.988  12.926 -0.2898  0.4745 -1.0130
10027TIP3   OH251571   1.748   2.458   4.767 -0.4351  0.1984  0.5229
10027TIP3    H151572   1.824   2.399   4.762 -0.5305  0.1819 -1.8671
10027TIP3    H251573   1.786   2.545   4.774 -0.2080  0.0950  0.6109
10028TIP3   OH251574   4.289   0.250   0.169 -0.4608 -0.7411 -0.2339
10028TIP3    H151575   4.241   0.250   0.252  0.4565 -1.3826  0.3230
10028TIP3    H251576   4.229   0.209   0.107 -0.6164 -1.6243  0.4716
10029TIP3   OH251577   6.145   1.779   2.617 -0.5318 -0.1023 -0.6115
10029TIP3    H151578   6.140   1.766   2.523 -0.4916 -0.8607 -0.5147
10029TIP3    H251579   6.117   1.695   2.655  2.3375 -0.9002  0.0317
10030TIP3   OH251580   5.014   2.114   5.134 -0.2662 -0.0108 -0.2373
10030TIP3    H151581   5.100   2.129   5.096  0.3880  1.4307  1.6348
10030TIP3    H251582   4.954   2.163   5.078  0.3742  0.3645 -0.6075
10031TIP3   OH251583   3.204   3.184   1.491  0.2119  0.4315  0.6099
10031TIP3    H151584   3.113   3.180   1.521  0.8725 -0.6098  2.6716
10031TIP3    H251585   3.232   3.273   1.512 -0.3058  0.7476 -0.0066
10032TIP3   OH251586   3.065   4.283   1.998 -0.2195  0.3707 -0.3364
10032TIP3    H151587   3.072   4.379   2.001 -0.0600  0.3210  1.5881
10032TIP3    H251588   3.132   4.257   1.935  0.0420  1.4997 -0.5521
10033TIP3   OH251589   4.357   1.244  15.155  0.0874  0.2977 -0.0461
10033TIP3    H151590   4.433   1.294  15.127  1.2682 -0.6616  1.2806
10033TIP3    H251591   4.361   1.164  15.102  0.8036 -0.3440  0.9439
10034TIP3   OH251592   3.108   5.646  13.620 -0.6472  0.1297  0.5188
10034TIP3    H151593   3.124   5.709  13.550  0.0479  1.2510  1.6422
10034TIP3    H251594   3.015   5.622  13.611 -1.0171  1.5821  0.2712
10035TIP3   OH251595   5.748   4.900  15.037 -0.1033  0.3484  0.1858
10035TIP3    H151596   5.826   4.886  15.091 -0.5623 -0.8503  0.5557
10035TIP3    H251597   5.675   4.868  15.090 -0.5790 -0.7807 -1.0828
10036TIP3   OH251598   5.707   1.307   5.383  0.1636 -0.3661  0.6767
10036TIP3    H151599   5.695   1.304   5.478 -1.0111 -0.5997  0.5322
10036TIP3    H251600   5.631   1.261   5.348 -0.4339  1.3567 -0.4412
10037TIP3   OH251601   2.854   1.461  11.696 -0.0475  0.1168  0.1013
10037TIP3    H151602   2.933   1.484  11.648 -0.9954  0.9574 -1.1280
10037TIP3    H251603   2.807   1.544  11.706 -0.0377 -0.0889  2.2507
10038TIP3   OH251604   2.179   0.335   0.988  0.2683  0.2462  0.0344
10038TIP3    H151605   2.112   0.267   0.979  1.8328 -1.7516  2.2302
10038TIP3    H251606   2.130   0.417   0.982 -2.7260 -1.0722  2.9172
10039TIP3   OH251607   1.825   1.527  15.308  0.0811 -0.2973  0.0148
10039TIP3    H151608   1.848   1.435  15.293 -0.0240 -0.1503 -1.0956
10039TIP3    H251609   1.747   1.541  15.255 -1.3616 -0.1981  2.0244
10040TIP3   OH251610   4.601   4.695   4.300  0.2014  0.0775 -0.1948
10040TIP3    H151611   4.557   4.633   4.241 -0.0578  0.2689 -0.2057
10040TIP3    H251612   4.529   4.747   4.336  0.1383 -1.2113  1.6711
10041TIP3   OH251613   4.720   3.213  11.165  0.0903 -0.4159 -0.4215
10041TIP3    H151614   4.655   3.231  11.096  0.5352 -1.8468 -1.2621
10041TIP3    H251615   4.685   3.137  11.211 -0.6333  1.0203  1.5716
10042TIP3   OH251616   5.646   6.010  12.476  0.0127  0.4030 -0.3222
10042TIP3    H151617   5.729   5.962  12.466  1.2855  1.6708  2.8896
10042TIP3    H251618   5.606   5.972  12.554 -1.9486  0.5905 -1.1936
10043TIP3   OH251619   5.615   2.678   2.432  0.2902  0.1972 -0.3635
10043TIP3    H151620   5.692   2.728   2.408  0.6229  0.7598  1.7192
10043TIP3    H251621   5.609   2.687   2.527 -1.0610 -1.6852 -0.2220
10044TIP3   OH251622   4.520   3.524  15.992  0.3494 -0.2367 -0.5333
10044TIP3    H151623   4.571   3.467  15.934 -0.7299 -0.5627 -1.1938
10044TIP3    H251624   4.440   3.542  15.943 -0.9605 -1.1869  1.1835
10045TIP3   OH251625   4.183   5.133  15.523  0.0962 -0.3820  0.6037
10045TIP3    H151626   4.103   5.093  15.557 -0.0683 -0.1694  0.4729
10045TIP3    H251627   4.158   5.223  15.503  0.6593  0.0004  1.5865
10046TIP3   OH251628   4.747   1.117  12.091  0.2922  0.2225 -0.0845
10046TIP3    H151629   4.791   1.076  12.165 -0.0857  0.2404  0.1512
10046TIP3    H251630   4.788   1.078  12.014  2.2104  1.7525  0.0786
10047TIP3   OH251631   5.991   2.926   3.472  0.6128  0.6931 -0.1326
10047TIP3    H151632   6.021   2.996   3.530  1.2296  1.7004 -1.6412
10047TIP3    H251633   5.922   2.965   3.420  1.8553  0.6096 -1.9166
10048TIP3   OH251634   3.476   4.084  12.528 -0.3524  0.6735  0.3290
10048TIP3    H151635   3.526   4.037  12.462 -1.1660 -0.3827  0.4388
10048TIP3    H251636   3.425   4.149  12.479  0.0486  0.7996  0.0729
10049TIP3   OH251637   1.299   1.601  14.521 -0.4714 -0.1516 -0.4929
10049TIP3    H151638   1.390   1.631  14.520 -0.4924 -0.0287  0.4003
10049TIP3    H251639   1.301   1.519  14.472  0.2495 -0.4730  0.0529
10050TIP3   OH251640   0.043   0.392  14.237 -0.5361  0.0607 -0.5308
10050TIP3    H151641   0.009   0.315  14.191 -0.2936  0.3621 -1.2241
10050TIP3    H251642  -0.022   0.410  14.304 -0.3088 -1.1064  0.0403
10051TIP3   OH251643   4.387   5.552   5.711  0.3639  0.2714 -0.0946
10051TIP3    H151644   4.434   5.629   5.681 -0.2237 -0.1577 -2.2978
10051TIP3    H251645   4.451   5.481   5.707  0.3207  0.2376 -0.1814
10052TIP3   OH251646   0.818   1.718  11.438 -0.7060 -0.7035  0.0651
10052TIP3    H151647   0.833   1.628  11.408 -1.3599 -0.8541  0.1706
10052TIP3    H251648   0.730   1.739  11.408 -0.9230 -0.4347  0.8486
10053TIP3   OH251649   5.329   2.500  15.015  0.1553  0.4411 -0.2458
10053TIP3    H151650   5.318   2.416  14.969  2.2497 -0.5437  0.9265
10053TIP3    H251651   5.245   2.514  15.059 -0.2953 -0.9721 -0.6096
10054TIP3   OH251652   4.187   1.527   1.016  0.0413 -0.1099 -0.3985
10054TIP3    H151653   4.230   1.535   0.931 -0.2623  1.2978 -0.4461
10054TIP3    H251654   4.165   1.617   1.040 -0.8657 -0.5919  0.6608
10055TIP3   OH251655   6.352   0.988   2.708  0.7943  0.1154  0.9657
10055TIP3    H151656   6.371   1.075   2.673  0.3265  1.2743  3.3864
10055TIP3    H251657   6.362   0.929   2.633 -0.9587  2.4630 -1.2981
10056TIP3   OH251658   6.280   6.447   5.643  0.0760  0.0481 -0.5176
10056TIP3    H151659   6.250   6.500   5.569  0.6666 -0.2373 -0.9602
10056TIP3    H251660   6.354   6.495   5.678  0.3474 -0.2675 -0.6571
10057TIP3   OH251661   2.417   3.188   2.566  0.7670 -0.4828  0.8670
10057TIP3    H151662   2.478   3.155   2.501  1.8748  0.1556  1.5553
10057TIP3    H251663   2.400   3.113   2.623  0.9976 -0.6375  0.7352
10058TIP3   OH251664   3.840   3.673  13.768 -0.6500  0.1654  0.4423
10058TIP3    H151665   3.755   3.674  13.725  0.3457 -0.6200 -1.7356
10058TIP3    H251666   3.845   3.589  13.812 -0.0206 -1.0688 -1.7898
10059TIP3   OH251667   5.345   2.368   5.953  0.4649  0.1185 -0.3376
10059TIP3    H151668   5.342   2.273   5.951  0.6542  0.1194 -1.1161
10059TIP3    H251669   5.255   2.395   5.973  0.2371 -0.2098 -0.9131
10060TIP3   OH251670   3.104   2.068   0.078 -0.6898  0.7580 -0.4585
10060TIP3    H151671   3.167   2.022   0.133 -1.0742 -1.0677 -1.4664
10060TIP3    H251672   3.018   2.042   0.111 -0.9319  1.4669 -0.5027
10061TIP3   OH251673   3.629   1.749  12.477  0.2794  0.1241  0.2165
10061TIP3    H151674   3.635   1.662  12.437  1.2548 -0.1173  0.8725
10061TIP3    H251675   3.689   1.803  12.426  0.6854  0.0871  0.6560
10062TIP3   OH251676   2.289   6.506   3.472  0.4834  0.2813 -0.2011
10062TIP3    H151677   2.326   6.440   3.530 -0.7486  1.5919  2.2594
10062TIP3    H251678   2.198   6.515   3.501 -0.4377  0.5624 -2.8446
10063TIP3   OH251679   0.658   4.188  12.032 -0.4075  0.1823  0.1438
10063TIP3    H151680   0.582   4.133  12.011 -0.3246 -0.1646  0.7375
10063TIP3    H251681   0.664   4.186  12.127 -0.2526  1.0295  0.1610
10064TIP3   OH251682   5.901   5.197  13.265  0.3192 -0.4601 -0.4426
10064TIP3    H151683   5.975   5.192  13.325  0.3640 -2.4617 -0.5805
10064TIP3    H251684   5.937   5.234  13.184  0.3550  1.8346  0.5564
10065TIP3   OH251685   1.907   5.007   1.187 -0.1807  0.4195  0.2584
10065TIP3    H151686   1.945   5.063   1.120  0.4870 -0.4751 -0.1370
10065TIP3    H251687   1.888   4.924   1.142  0.3616 -0.2298  1.1760
10066TIP3   OH251688   2.406   1.559   5.944 -0.3949  0.5073 -0.5973
10066TIP3    H151689   2.313   1.570   5.961 -0.6278 -0.8502 -0.8493
10066TIP3    H251690   2.447   1.563   6.030 -0.6149  1.6130 -0.5336
10067TIP3   OH251691   0.905   5.358   4.641  0.0617 -0.3921  0.3753
10067TIP3    H151692   0.946   5.314   4.566  1.4480 -1.2804  1.6075
10067TIP3    H251693   0.863   5.288   4.690 -0.1887  0.0754  0.8365
10068TIP3   OH251694   4.789   0.822  17.058  0.0593  0.2094 -0.1410
10068TIP3    H151695   4.734   0.748  17.032  0.2096  0.0437  0.0089
10068TIP3    H251696   4.727   0.886  17.094 -0.1144  0.3113 -0.6063
10069TIP3   OH251697   5.338   5.501   3.380  0.2721  0.4476 -0.4945
10069TIP3    H151698   5.257   5.551   3.389  0.3392  0.4296  0.2947
10069TIP3    H251699   5.396   5.558   3.328  0.5500  1.4584  0.8622
10070TIP3   OH251700   1.922   5.832  16.013 -0.0441  0.5468  0.4269
10070TIP3    H151701   1.970   5.792  15.941 -1.1616  0.7030 -0.4304
10070TIP3    H251702   1.860   5.891  15.970 -0.7537  0.6150  1.5151
10071TIP3   OH251703   1.797   0.730  11.408  0.0866  0.1550  0.4065
10071TIP3    H151704   1.738   0.675  11.356  1.9813 -1.3770 -0.2553
10071TIP3    H251705   1.874   0.742  11.353  0.5181  1.9202  1.3141
10072TIP3   OH251706   5.388   6.081  12.702 -0.3777 -0.1346 -0.3744
10072TIP3    H151707   5.335   6.097  12.781  1.3875  1.7060  0.5157
10072TIP3    H251708   5.396   5.985  12.698 -1.0229 -0.3005  1.3357
10073TIP3   OH251709   6.622   2.284  11.322 -0.4483  0.4042 -0.1450
10073TIP3    H151710   6.692   2.243  11.271 -1.2732 -0.9641 -0.2249
10073TIP3    H251711   6.569   2.331  11.258 -1.6493 -1.5471 -0.6619
10074TIP3   OH251712   4.746   2.679   2.915  0.2438 -0.1553 -0.1930
10074TIP3    H151713   4.757   2.720   3.001  0.4763 -0.1641 -0.2183
10074TIP3    H251714   4.669   2.622   2.925 -0.4125  0.6803 -0.3098
10075TIP3   OH251715   0.248   4.593   4.217 -0.1109  0.0636  0.0692
10075TIP3    H151716   0.178   4.548   4.264 -0.6010  1.1097  0.3660
10075TIP3    H251717   0.329   4.557   4.254 -0.4694  1.1122  2.0443
10076TIP3   OH251718   3.026   2.706   1.821 -0.1109  0.4294 -0.4574
10076TIP3    H151719   3.113   2.666   1.833 -0.1683  0.0566 -1.2466
10076TIP3    H251720   3.004   2.740   1.908 -1.4063 -4.0013  1.2713
10077TIP3   OH251721   2.950   1.871   3.112 -0.2964 -0.0226  0.5655
10077TIP3    H151722   3.012   1.927   3.066 -2.3021  1.2216 -0.7604
10077TIP3    H251723   2.963   1.784   3.074  0.2534  0.3355 -0.0856
10078TIP3   OH251724   5.630   2.620  13.808  0.0937  0.1786  0.2158
10078TIP3    H151725   5.659   2.568  13.733  0.4360 -0.2701  0.6489
10078TIP3    H251726   5.595   2.556  13.870  0.5804  0.4466  0.7839
10079TIP3   OH251727   6.750   3.570   2.629  0.5468  0.1969  0.2432
10079TIP3    H151728   6.685   3.608   2.569  0.1325 -2.1705 -0.9413
10079TIP3    H251729   6.747   3.626   2.706 -0.4350  2.1418 -1.1126
10080TIP3   OH251730   4.504   3.051  11.127  0.3141  0.2414  0.3189
10080TIP3    H151731   4.545   3.061  11.042 -1.0129 -0.1878 -0.4084
10080TIP3    H251732   4.425   3.105  11.123  0.1987  0.1668  1.2535
10081TIP3   OH251733   2.499   5.013   1.310 -0.2245 -0.7298 -0.3967
10081TIP3    H151734   2.479   5.106   1.297 -0.5058 -0.8533 -0.8904
10081TIP3    H251735   2.589   5.003   1.280  1.1201  0.0665  2.9263
10082TIP3   OH251736   5.419   6.286   1.007 -0.5044 -0.0241  0.2536
10082TIP3    H151737   5.328   6.257   0.999 -0.6241 -0.7551  3.0553
10082TIP3    H251738   5.420   6.374   0.971 -2.1474 -0.2872 -0.5207
10083TIP3   OH251739   4.551   1.288  14.361  0.0503 -0.5483  0.5455
10083TIP3    H151740   4.625   1.346  14.345  0.6798 -1.8719 -1.7860
10083TIP3    H251741   4.591   1.208  14.397 -0.0670 -1.5725 -1.4723
10084TIP3   OH251742   2.474   6.089   5.701  0.4707 -0.0694 -0.1296
10084TIP3    H151743   2.480   6.035   5.780  2.2145 -0.5928 -0.5753
10084TIP3    H251744   2.439   6.030   5.634 -0.5230  0.2294  0.1229
10085TIP3   OH251745   2.528   4.527  10.549 -1.1373 -0.3421 -0.3530
10085TIP3    H151746   2.578   4.599  10.511 -0.3230 -0.3775  0.6179
10085TIP3    H251747   2.443   4.530  10.504 -1.4255  1.7078  0.2117
10086TIP3   OH251748   1.954   1.384  12.682  0.4011  0.4236  0.3538
10086TIP3    H151749   1.888   1.387  12.613 -0.7373  0.7876  1.4329
10086TIP3    H251750   1.915   1.430  12.756  2.5568  2.2723  0.4642
10087TIP3   OH251751   3.576   4.320  14.066  0.4066 -0.0883  0.1319
10087TIP3    H151752   3.621   4.384  14.011  1.0112 -1.5533 -1.1629
10087TIP3    H251753   3.571   4.241  14.012  0.3703 -1.3857  1.9362
10088TIP3   OH251754   1.405   1.010   0.138  0.3251 -0.0076  0.4790
10088TIP3    H151755   1.341   1.051   0.196 -0.3308 -0.7176  0.2725
10088TIP3    H251756   1.441   1.082   0.087  0.5990  0.5664  1.4700
10089TIP3   OH251757   1.919   2.018   2.632  0.4958 -0.1189  0.2298
10089TIP3    H151758   1.985   2.024   2.564 -0.7759  0.6647 -0.9935
10089TIP3    H251759   1.946   1.943   2.686  2.4189  0.2701 -0.1304
10090TIP3   OH251760   5.672   3.102   2.014  0.3122 -0.6096  0.2384
10090TIP3    H151761   5.687   3.190   1.980  0.7186 -1.1486 -1.0554
10090TIP3    H251762   5.593   3.072   1.968  0.9880 -1.4305 -0.4432
10091TIP3   OH251763   1.248   0.412  15.518 -0.0660  0.2520  0.0746
10091TIP3    H151764   1.313   0.392  15.450  0.7588 -0.4543  1.0351
10091TIP3    H251765   1.250   0.507  15.525  0.3054  0.2886 -0.4321
10092TIP3   OH251766   6.642   3.039   4.719  0.1530  0.3135 -0.0991
10092TIP3    H151767   6.646   3.004   4.808  2.3200  0.4640 -0.0890
10092TIP3    H251768   6.570   3.101   4.722 -2.6921 -2.7397  0.3439
10093TIP3   OH251769   3.084   6.331  17.339 -0.4395  0.0820 -0.0904
10093TIP3    H151770   3.064   6.314  17.431  0.4964 -1.3586 -0.1145
10093TIP3    H251771   3.005   6.304  17.292 -1.1680  1.4332  0.3079
10094TIP3   OH251772   1.792   3.158   0.029 -0.3064  0.0442  0.6233
10094TIP3    H151773   1.744   3.105  -0.034 -0.6441  1.0722 -0.0149
10094TIP3    H251774   1.730   3.175   0.099 -1.1112  1.8042 -0.4422
10095TIP3   OH251775   3.553   5.254  14.813  0.0156  0.0491 -0.1141
10095TIP3    H151776   3.595   5.235  14.729 -1.7932  0.2115 -1.1218
10095TIP3    H251777   3.594   5.334  14.844  1.0668 -0.2944 -0.5889
10096TIP3   OH251778   4.153   6.005   2.620  0.4188  0.1230 -0.3614
10096TIP3    H151779   4.205   5.938   2.575  1.3154  0.9365 -0.5703
10096TIP3    H251780   4.176   5.996   2.712  1.6557  1.0735 -0.5561
10097TIP3   OH251781   1.581   3.883   2.208  0.1980  0.6398 -0.4306
10097TIP3    H151782   1.614   3.797   2.235  2.2924  0.6266 -2.6289
10097TIP3    H251783   1.490   3.885   2.236  0.2001 -2.1707 -0.0087
10098TIP3   OH251784   0.207   1.710  15.160  0.2868 -0.2022  0.6691
10098TIP3    H151785   0.233   1.620  15.139  0.6818 -0.2607  1.4059
10098TIP3    H251786   0.160   1.739  15.081  1.2771 -0.6010 -0.0909
10099TIP3   OH251787   2.360   0.456   5.012  0.5052  0.0148  0.0134
10099TIP3    H151788   2.440   0.422   5.052  1.3796 -0.2485 -1.8427
10099TIP3    H251789   2.290   0.400   5.047  1.4313 -1.2427 -0.0725
10100TIP3   OH251790   0.281   2.472  14.880  0.5604  0.2983  0.2756
10100TIP3    H151791   0.246   2.407  14.818 -0.6430  0.5824  0.6347
10100TIP3    H251792   0.263   2.435  14.966  2.1064 -0.0295  0.4991
10101TIP3   OH251793   2.909   6.661  11.711  0.6080  0.4779  0.9211
10101TIP3    H151794   2.872   6.581  11.749 -0.7814  0.9328  0.6111
10101TIP3    H251795   2.918   6.641  11.618 -1.8288  1.3280  0.4175
10102TIP3   OH251796   3.545   0.980   6.473 -0.0691  0.3055  0.7311
10102TIP3    H151797   3.542   0.889   6.503 -2.0024 -0.5760 -1.8603
10102TIP3    H251798   3.509   1.030   6.547 -1.4249 -1.3404  1.2614
10103TIP3   OH251799   6.643   5.321  12.536  0.4748  0.1313  0.5111
10103TIP3    H151800   6.605   5.241  12.572  1.1008 -0.5283 -0.2532
10103TIP3    H251801   6.737   5.307  12.542  0.5895  0.2293 -0.8704
10104TIP3   OH251802   1.720   3.234   5.745  0.2854  0.2224 -0.4886
10104TIP3    H151803   1.646   3.201   5.694  0.9717 -2.0629 -0.1179
10104TIP3    H251804   1.763   3.155   5.778  2.0436  1.5385  0.5132
10105TIP3   OH251805   4.392   3.076  13.455  0.2401 -0.2045  0.0446
10105TIP3    H151806   4.416   2.998  13.405  1.6632 -0.2220  0.7200
10105TIP3    H251807   4.458   3.083  13.524 -2.0669 -0.5979  2.4536
10106TIP3   OH251808   2.369   4.270   4.118 -0.1937  0.0518  0.8637
10106TIP3    H151809   2.350   4.290   4.209 -4.2488  1.4702 -0.0683
10106TIP3    H251810   2.353   4.353   4.071  0.0270 -1.0577 -1.3077
10107TIP3   OH251811   3.808   2.998   5.981 -0.9318  0.1579 -0.3374
10107TIP3    H151812   3.888   3.039   6.012 -1.0174  0.4253 -0.4703
10107TIP3    H251813   3.764   2.968   6.060 -0.3690 -0.6142 -0.3046
10108TIP3   OH251814   6.291   5.717  12.881 -0.1557  0.2666 -0.4670
10108TIP3    H151815   6.195   5.717  12.886 -0.1098  0.0793  3.6917
10108TIP3    H251816   6.314   5.805  12.852 -1.5165 -0.1052 -2.9143
10109TIP3   OH251817   5.743   6.310   2.102 -0.2960  0.3482 -0.0485
10109TIP3    H151818   5.757   6.311   2.197  0.5315  0.1711 -0.1624
10109TIP3    H251819   5.648   6.317   2.092 -0.4026  0.2322  0.7972
10110TIP3   OH251820   0.986   5.357   5.803 -0.4108  0.0529 -0.4278
10110TIP3    H151821   1.054   5.417   5.772 -0.1445 -0.5459 -1.0217
10110TIP3    H251822   0.911   5.414   5.821 -0.2867  0.5401 -1.3586
10111TIP3   OH251823   6.428   0.848   0.553  0.5368 -0.4349  0.2112
10111TIP3    H151824   6.485   0.900   0.497 -1.4617  1.5029 -0.1632
10111TIP3    H251825   6.464   0.859   0.641  2.2523 -1.4765 -0.3164
10112TIP3   OH251826   1.268   0.615   2.233 -0.0938  0.1081 -0.4475
10112TIP3    H151827   1.335   0.585   2.171 -0.2948 -1.2345 -0.0502
10112TIP3    H251828   1.233   0.694   2.193  2.7120  1.7203  0.0193
10113TIP3   OH251829   0.968   5.794  11.217  0.6132  0.3432  0.0826
10113TIP3    H151830   0.900   5.827  11.159  0.2687 -0.2630  0.1275
10113TIP3    H251831   1.048   5.794  11.163  0.9437  2.5528  0.5056
10114TIP3   OH251832   3.446   5.085  14.382 -0.0868 -0.2808 -0.1879
10114TIP3    H151833   3.380   5.047  14.441  2.3804 -2.3104  1.4960
10114TIP3    H251834   3.449   5.025  14.308 -1.4035  0.9086 -1.2879
10115TIP3   OH251835   6.718   1.808   5.413 -0.5002 -0.0297  0.2851
10115TIP3    H151836   6.640   1.837   5.461 -1.8190 -0.6541 -1.3807
10115TIP3    H251837   6.742   1.884   5.360  0.2142  0.2545  1.0029
10116TIP3   OH251838   5.179   4.009   5.787  0.4817  0.7067  0.2477
10116TIP3    H151839   5.120   4.067   5.835  0.6262 -0.5047  1.9909
10116TIP3    H251840   5.260   4.059   5.779 -0.6827  2.3835 -2.1599
10117TIP3   OH251841   1.383   2.020  16.891  0.7410  0.0254 -0.5416
10117TIP3    H151842   1.340   2.052  16.812 -0.5554 -1.7061 -0.5966
10117TIP3    H251843   1.465   1.981  16.859  0.3550 -0.4202 -1.0087
10118TIP3   OH251844   0.590   2.993  13.116  0.2176 -0.8345 -0.3371
10118TIP3    H151845   0.531   2.925  13.083  0.6654 -2.6375  2.2868
10118TIP3    H251846   0.677   2.965  13.089  0.2480 -0.2867 -0.8267
10119TIP3   OH251847   2.240   5.063  11.060  0.3105  0.2026  0.2050
10119TIP3    H151848   2.257   4.979  11.102 -0.3380  0.3075  0.6859
10119TIP3    H251849   2.146   5.078  11.073  0.2521  0.6004 -0.6132
10120TIP3   OH251850   3.456   6.576   1.158  0.4351  0.8012 -0.3560
10120TIP3    H151851   3.448   6.494   1.206 -2.5330  1.5135  0.5522
10120TIP3    H251852   3.428   6.555   1.069 -1.1628  0.9553  0.0870
10121TIP3   OH251853   4.801   5.722   1.317  0.1071 -0.1990  0.5610
10121TIP3    H151854   4.807   5.627   1.323  2.9560 -0.1126  0.0428
10121TIP3    H251855   4.706   5.739   1.315 -0.4903 -3.0394 -0.0806
10122TIP3   OH251856   3.147   3.919   5.108 -0.2783  0.3203 -0.1987
10122TIP3    H151857   3.189   3.997   5.144  0.0215 -0.6885  1.8046
10122TIP3    H251858   3.116   3.945   5.022  1.4711  2.0885 -0.3466
10123TIP3   OH251859   3.338   3.645  13.573  0.2944 -0.9417 -0.0500
10123TIP3    H151860   3.289   3.686  13.502  2.7072  2.3823  0.0055
10123TIP3    H251861   3.371   3.563  13.535 -0.1886 -0.2616 -2.0571
10124TIP3   OH251862   3.363   5.306   4.921  0.0987 -0.4685 -0.3767
10124TIP3    H151863   3.404   5.392   4.933  0.5700 -0.7233 -0.1105
10124TIP3    H251864   3.280   5.325   4.876  0.3840  0.0822 -0.6842
10125TIP3   OH251865   0.058   5.988  12.232  0.5646 -0.1919 -0.2852
10125TIP3    H151866   0.146   6.025  12.233  0.0683  1.0194 -0.0044
10125TIP3    H251867   0.045   5.960  12.141  0.8579  0.5596 -0.5618
10126TIP3   OH251868   4.227   3.189   0.136  0.0244 -0.4171  0.4865
10126TIP3    H151869   4.201   3.137   0.212  0.4883 -1.2410  0.1022
10126TIP3    H251870   4.226   3.127   0.063 -0.9792  0.4936 -0.3046
10127TIP3   OH251871   6.046   0.252   1.270  0.3233  0.0865 -0.2647
10127TIP3    H151872   6.060   0.333   1.222 -0.2251  0.1687 -0.2903
10127TIP3    H251873   6.123   0.199   1.250  2.3570  1.8070  2.2987
10128TIP3   OH251874   0.328   2.116   2.514 -0.2980  0.1762  0.5937
10128TIP3    H151875   0.251   2.096   2.567  0.4540  1.7737  2.4068
10128TIP3    H251876   0.402   2.085   2.566  0.3523 -1.1424 -1.0186
10129TIP3   OH251877   0.517   1.932  12.270 -0.2729  0.1507 -1.2803
10129TIP3    H151878   0.493   1.884  12.350  2.2474  0.1481 -0.4261
10129TIP3    H251879   0.518   1.865  12.202  0.3466 -0.4547 -0.6995
10130TIP3   OH251880   4.200   2.853  16.899 -0.3710 -0.1393  0.2252
10130TIP3    H151881   4.235   2.875  16.985 -0.8833  0.1592  0.3627
10130TIP3    H251882   4.278   2.842  16.844  0.0271 -1.9738  1.0903
10131TIP3   OH251883   4.551   5.244  11.712  0.0479  0.0331 -1.0058
10131TIP3    H151884   4.541   5.291  11.629  0.6517  0.9488 -0.5884
10131TIP3    H251885   4.495   5.291  11.773  1.0414  0.5404 -0.4619
10132TIP3   OH251886   1.297   4.715   2.054 -0.4814  0.6627  0.1114
10132TIP3    H151887   1.325   4.684   2.140  0.9121  0.4945 -0.3765
10132TIP3    H251888   1.204   4.692   2.049  0.0177 -1.6754  0.5469
10133TIP3   OH251889   3.956   2.118   1.911 -0.1045 -0.3024  0.6360
10133TIP3    H151890   3.949   2.023   1.924 -0.9826 -0.4360 -0.5917
10133TIP3    H251891   3.946   2.130   1.817  1.5818  0.9064  0.5661
10134TIP3   OH251892   6.638   6.170   0.837 -0.2352  0.7458 -0.0198
10134TIP3    H151893   6.569   6.221   0.878 -1.1722 -0.2762 -0.2813
10134TIP3    H251894   6.626   6.184   0.743  0.5600  1.3639 -0.0405
10135TIP3   OH251895   6.712   1.236  14.608 -0.7574  0.9037  0.2565
10135TIP3    H151896   6.641   1.290  14.643 -1.1140  0.5897  0.0253
10135TIP3    H251897   6.670   1.153  14.585 -0.4608  0.9612 -0.5369
10136TIP3   OH251898   4.397   4.158  14.631  0.4140  0.2258 -0.1472
10136TIP3    H151899   4.347   4.229  14.591 -1.8101 -0.6671  0.9257
10136TIP3    H251900   4.394   4.175  14.725  1.4271 -0.3148  0.0032
10137TIP3   OH251901   1.199   0.737  13.478  0.5093  0.4168  0.4557
10137TIP3    H151902   1.256   0.752  13.553 -0.3810 -1.1166  1.4979
10137TIP3    H251903   1.115   0.774  13.502  0.5303  0.9976 -0.3071
10138TIP3   OH251904   3.345   4.012  11.199  0.0110  0.3996 -0.0330
10138TIP3    H151905   3.318   3.920  11.209 -0.9137  0.4836 -1.3968
10138TIP3    H251906   3.291   4.044  11.127  1.2697  1.6501 -0.4496
10139TIP3   OH251907   2.796   3.314   6.339  0.3091  0.1993  0.3069
10139TIP3    H151908   2.869   3.284   6.393  0.7425 -0.2876 -0.5325
10139TIP3    H251909   2.718   3.281   6.385  0.6448  0.1593  0.8588
10140TIP3   OH251910   2.623   1.253  14.401 -0.2537  0.5503 -0.1973
10140TIP3    H151911   2.704   1.210  14.372 -0.2629 -1.1744  2.0891
10140TIP3    H251912   2.622   1.240  14.495 -2.4589  1.9179  0.0264
10141TIP3   OH251913   4.533   6.515   0.393 -0.0628 -0.4654 -0.3183
10141TIP3    H151914   4.489   6.430   0.386  1.4980 -1.3265 -0.0254
10141TIP3    H251915   4.486   6.572   0.332 -1.2359 -1.4877 -0.3932
10142TIP3   OH251916   2.930   1.110  17.449 -0.1173  0.1029  0.3377
10142TIP3    H151917   2.987   1.131  17.374 -1.0452  0.8492 -0.1814
10142TIP3    H251918   2.850   1.077  17.409 -0.4907  0.1766  1.0235
10143TIP3   OH251919   2.054   1.733   0.068  0.0805 -0.3074  0.1655
10143TIP3    H151920   1.987   1.721   0.135 -0.9405  1.3121 -0.4882
10143TIP3    H251921   2.090   1.820   0.085  1.1108 -0.6280 -0.2843
10144TIP3   OH251922   4.393   3.437  14.899  0.3600  0.0553  0.4710
10144TIP3    H151923   4.336   3.490  14.843  1.1908  0.9841  0.4850
10144TIP3    H251924   4.364   3.347  14.884 -1.7681  0.5609  1.2105
10145TIP3   OH251925   6.261   3.740   5.092  0.8765 -0.8039 -0.1286
10145TIP3    H151926   6.173   3.705   5.104  1.1176 -1.3103  0.2101
10145TIP3    H251927   6.279   3.728   4.999  0.6554 -0.8616 -0.1638
10146TIP3   OH251928   3.334   5.399   4.338  0.1961  0.2836 -0.4731
10146TIP3    H151929   3.330   5.329   4.273  2.0830 -0.2842 -0.0604
10146TIP3    H251930   3.348   5.353   4.421  1.0775  1.1140 -0.1464
10147TIP3   OH251931   3.171   4.477   3.556 -0.2719  0.9868  0.2558
10147TIP3    H151932   3.259   4.513   3.566  1.5759 -2.6166 -1.2985
10147TIP3    H251933   3.135   4.522   3.480  0.8323  1.4258 -0.0220
10148TIP3   OH251934   3.191   6.319  11.488 -0.3358  0.5669  0.0974
10148TIP3    H151935   3.229   6.231  11.487  2.0043  1.4879 -1.1243
10148TIP3    H251936   3.230   6.361  11.564 -2.4185  0.2299  1.4158
10149TIP3   OH251937   5.959   3.961  13.099 -0.1660  0.7357  0.2975
10149TIP3    H151938   5.954   3.866  13.100 -1.2386  0.7790  0.3949
10149TIP3    H251939   5.925   3.988  13.185 -0.3235  1.2232  0.0851
10150TIP3   OH251940   5.522   3.822  16.670 -0.1737  0.4673 -0.1475
10150TIP3    H151941   5.563   3.826  16.583  0.7102 -2.3946  0.0237
10150TIP3    H251942   5.428   3.819  16.652 -0.2781  3.8268 -0.7208
10151TIP3   OH251943   6.186   4.927  12.474 -0.0581  0.1529 -0.0648
10151TIP3    H151944   6.238   4.976  12.538  2.0804 -1.3854 -0.5240
10151TIP3    H251945   6.143   4.859  12.526  0.3549 -0.0813 -0.0302
10152TIP3   OH251946   1.280   3.825   4.391 -0.1523  0.1189  0.1235
10152TIP3    H151947   1.230   3.752   4.355 -0.1248 -1.0721  2.3514
10152TIP3    H251948   1.334   3.787   4.460 -0.7772  2.3323  1.9909
10153TIP3   OH251949   4.251   1.017  16.083 -0.0051  0.6046  0.3263
10153TIP3    H151950   4.269   0.944  16.023  0.6174  1.8054 -0.9955
10153TIP3    H251951   4.334   1.064  16.088 -0.2193  0.8855  1.6797
10154TIP3   OH251952   5.535   5.326  13.419 -0.1742 -0.0748  0.1979
10154TIP3    H151953   5.526   5.291  13.330 -2.0238  1.1167 -0.1386
10154TIP3    H251954   5.544   5.248  13.474  0.4973 -0.8526 -0.9565
10155TIP3   OH251955   1.657   6.488  12.940  0.4560 -0.0774  0.2209
10155TIP3    H151956   1.644   6.393  12.939  1.1296 -0.1698 -1.0812
10155TIP3    H251957   1.722   6.503  13.009  0.9814 -0.6531 -0.1442
10156TIP3   OH251958   3.146   6.469  15.258  0.3060 -0.2428 -0.2506
10156TIP3    H151959   3.104   6.420  15.329 -2.6407 -0.9739 -2.3037
10156TIP3    H251960   3.221   6.415  15.233 -1.6012 -2.7356 -1.0012
10157TIP3   OH251961   4.367   5.959  15.472  0.1644 -0.0811 -0.3473
10157TIP3    H151962   4.295   5.952  15.535 -0.2698  1.2148 -0.6695
10157TIP3    H251963   4.446   5.963  15.527 -0.2640  1.8405  0.2024
10158TIP3   OH251964   0.356   5.190  15.927 -0.5676 -0.1072 -0.6625
10158TIP3    H151965   0.372   5.281  15.901 -1.9952  0.2756 -0.3338
10158TIP3    H251966   0.294   5.157  15.863 -0.3482 -0.7316 -0.5574
10159TIP3   OH251967   4.918   1.222  11.576  0.4087 -0.3506  0.3033
10159TIP3    H151968   4.952   1.173  11.501 -0.1479 -2.3286  1.2827
10159TIP3    H251969   4.827   1.194  11.584 -0.2723  1.7216  0.2412
10160TIP3   OH251970   4.609   3.864   2.427 -0.0780  0.7714 -0.4102
10160TIP3    H151971   4.624   3.797   2.361 -0.6115  0.2096  0.0226
10160TIP3    H251972   4.535   3.831   2.478 -1.0127  2.1743 -0.8152
10161TIP3   OH251973   2.264   3.967  11.481  0.2112 -0.6477  0.0537
10161TIP3    H151974   2.181   4.010  11.460  0.1149 -1.6308 -1.8096
10161TIP3    H251975   2.320   4.038  11.514 -1.5567 -0.1055  2.0669
10162TIP3   OH251976   1.584   0.086   2.329  0.3350 -0.3280 -0.0183
10162TIP3    H151977   1.545   0.145   2.265  0.9551  0.1357  0.0197
10162TIP3    H251978   1.531   0.097   2.408  0.9452  0.8275  0.2553
10163TIP3   OH251979   2.406   6.594  15.485 -0.1382  0.4530 -0.1354
10163TIP3    H151980   2.386   6.682  15.516 -2.1339 -0.4331  1.3782
10163TIP3    H251981   2.469   6.606  15.415  0.2806  3.0141  0.5894
10164TIP3   OH251982   4.976   4.994  13.069 -0.0785  0.2186 -0.4996
10164TIP3    H151983   4.887   4.958  13.068  0.8121 -2.2178 -0.4840
10164TIP3    H251984   5.006   4.982  13.159  0.8691 -0.7465 -0.9145
10165TIP3   OH251985   0.716   5.488  12.089  0.4282 -0.5443 -0.5925
10165TIP3    H151986   0.811   5.485  12.082  0.4827  0.8159 -0.7290
10165TIP3    H251987   0.695   5.581  12.084 -0.8796 -0.7983 -0.1391
10166TIP3   OH251988   1.791   0.142   4.636  0.4088  0.8025  0.3965
10166TIP3    H151989   1.885   0.158   4.632  1.0388 -1.7135  2.4108
10166TIP3    H251990   1.772   0.089   4.558  0.5231  1.7082 -0.2648
10167TIP3   OH251991   0.030   2.038  14.104  0.3734  0.2612  0.2029
10167TIP3    H151992   0.083   2.068  14.178 -0.8257 -1.0945  1.6824
10167TIP3    H251993  -0.038   2.105  14.095  1.1212  0.9653 -0.3936
10168TIP3   OH251994   2.084   6.689  15.575 -0.4545 -0.1604  0.2766
10168TIP3    H151995   2.174   6.720  15.584 -0.8066  0.8498  0.4682
10168TIP3    H251996   2.051   6.683  15.664 -0.3873 -1.1667  0.2480
10169TIP3   OH251997   4.539   5.682   4.455 -0.0762 -0.0214 -0.0635
10169TIP3    H151998   4.516   5.589   4.447  0.1581 -0.2520  1.6347
10169TIP3    H251999   4.632   5.686   4.432  0.1987 -0.4096  0.9204
10170TIP3   OH252000   5.142   3.857  14.123  0.2457  0.2012  0.0284
10170TIP3    H152001   5.190   3.940  14.126  0.2545  0.1803  0.4109
10170TIP3    H252002   5.095   3.853  14.205  0.3581 -0.2439  0.0746
10171TIP3   OH252003   5.662   1.312   3.276 -0.1170 -0.6240 -0.0213
10171TIP3    H152004   5.639   1.235   3.224 -0.2461 -0.6793  0.1192
10171TIP3    H252005   5.676   1.381   3.211  1.3395 -1.0942 -0.2585
10172TIP3   OH252006   2.716   6.118  17.112  0.2046  0.4696  0.3233
10172TIP3    H152007   2.782   6.057  17.147 -0.0897  1.6552  3.3082
10172TIP3    H252008   2.642   6.063  17.089  0.6769 -0.5140  1.0627
10173TIP3   OH252009   0.611   4.365  15.476 -0.1449 -0.1425 -0.1127
10173TIP3    H152010   0.645   4.427  15.540  0.5718  0.0606 -0.6821
10173TIP3    H252011   0.612   4.281  15.521 -0.2422  0.1031  0.3514
10174TIP3   OH252012   1.635   5.163   6.523 -0.3209 -0.0158 -0.1065
10174TIP3    H152013   1.627   5.181   6.617 -0.8238 -1.0624  0.0623
10174TIP3    H252014   1.546   5.138   6.496 -0.1346  0.0732 -0.8184
10175TIP3   OH252015   4.594   0.282  11.675 -0.1747 -0.1847 -0.5473
10175TIP3    H152016   4.572   0.195  11.707  0.2451 -0.4558 -0.9846
10175TIP3    H252017   4.509   0.325  11.662 -0.3511  0.0563  1.2389
10176TIP3   OH252018   2.914   2.529  12.625 -0.5273 -0.0182 -0.3716
10176TIP3    H152019   2.855   2.605  12.630 -1.6953 -0.7567 -1.8392
10176TIP3    H252020   3.001   2.567  12.612 -0.3757  1.1522  3.1054
10177TIP3   OH252021   0.826   1.518  12.773  0.0522  0.4080  0.6220
10177TIP3    H152022   0.840   1.595  12.719 -0.9516 -0.9992 -1.7960
10177TIP3    H252023   0.889   1.454  12.742  0.7257  0.1263  2.4434
10178TIP3   OH252024   6.254   0.531  14.548 -0.0843  0.1832 -0.2810
10178TIP3    H152025   6.209   0.590  14.609  1.3533  0.7165  0.3021
10178TIP3    H252026   6.319   0.486  14.601  1.0353  0.4664 -1.3610
10179TIP3   OH252027   5.167   4.325   3.023  0.0878  0.2402 -0.1382
10179TIP3    H152028   5.197   4.240   3.056 -2.6454 -1.0506 -0.6849
10179TIP3    H252029   5.153   4.378   3.102 -1.9499 -1.2403  0.5879
10180TIP3   OH252030   5.091   4.779   3.417  0.5043 -0.0234  0.3634
10180TIP3    H152031   5.085   4.809   3.326 -1.4169  0.9063  0.7576
10180TIP3    H252032   5.173   4.817   3.449  0.6626  0.5397 -0.6654
10181TIP3   OH252033   5.943   5.699   4.562 -0.0006  0.3485  0.2435
10181TIP3    H152034   5.878   5.694   4.632  0.3171 -0.2539  0.5077
10181TIP3    H252035   5.952   5.792   4.544 -1.5452  0.4151 -0.3876
10182TIP3   OH252036   5.874   5.554   2.350  0.3916  0.0138 -0.3176
10182TIP3    H152037   5.919   5.612   2.290 -1.9838  1.6781 -0.6309
10182TIP3    H252038   5.905   5.466   2.327  0.9370  0.7685 -2.7023
10183TIP3   OH252039   3.954   1.249  11.010  0.6756  0.3816 -0.0818
10183TIP3    H152040   3.934   1.295  11.092 -0.2744 -0.2032  0.0348
10183TIP3    H252041   3.973   1.319  10.948  0.6322  0.8742  0.4442
10184TIP3   OH252042   2.397   3.660   4.251  0.1777 -0.1700  0.2329
10184TIP3    H152043   2.469   3.690   4.307  1.3808 -0.8688 -0.8887
10184TIP3    H252044   2.364   3.740   4.210  2.2652 -0.0953 -1.4594
10185TIP3   OH252045   0.428   5.013  12.305 -0.1819  0.4732 -0.6896
10185TIP3    H152046   0.442   5.092  12.253  0.7380  0.0399 -1.1306
10185TIP3    H252047   0.395   4.948  12.243  3.8794 -1.0329 -1.6342
10186TIP3   OH252048   0.219   5.688  14.694 -0.1217 -0.2079 -0.2542
10186TIP3    H152049   0.256   5.771  14.664  0.5608 -0.5377 -0.3587
10186TIP3    H252050   0.291   5.625  14.683 -0.9771 -1.0401 -1.2427
10187TIP3   OH252051   2.031   1.545  10.502  0.1097  0.4412 -0.1734
10187TIP3    H152052   1.971   1.558  10.429  0.4074 -0.0247 -0.5079
10187TIP3    H252053   1.983   1.575  10.579 -1.1114 -1.2802 -0.2223
10188TIP3   OH252054   3.624   1.127  12.284 -0.3479 -0.3815 -0.3539
10188TIP3    H152055   3.667   1.055  12.236 -0.2232 -1.7433  1.6898
10188TIP3    H252056   3.531   1.103  12.284 -0.3771 -0.2586 -0.1179
10189TIP3   OH252057   2.202   2.366  10.891  0.0073  0.2700 -0.1674
10189TIP3    H152058   2.157   2.374  10.975 -0.8407 -2.0200 -0.3350
10189TIP3    H252059   2.275   2.429  10.896  0.2618 -0.1528  2.4523
10190TIP3   OH252060   0.717   4.978  16.577 -0.1908 -0.2709 -0.0153
10190TIP3    H152061   0.734   5.064  16.539 -0.2706 -0.3738 -0.2866
10190TIP3    H252062   0.694   4.923  16.502 -2.7578  0.1085  0.4243
10191TIP3   OH252063   6.685   2.950   2.425  0.1069  0.3966 -0.2268
10191TIP3    H152064   6.779   2.966   2.431 -0.3310  4.0291 -0.6295
10191TIP3    H252065   6.657   2.930   2.514  1.1587 -0.0439  0.0108
10192TIP3   OH252066   1.851   3.156  17.119 -0.2028 -0.4549 -0.6661
10192TIP3    H152067   1.773   3.158  17.064  0.9540 -1.3060 -2.4194
10192TIP3    H252068   1.868   3.063  17.134 -0.6677 -0.2575  1.4772
10193TIP3   OH252069   6.159   5.338  11.313  0.3651 -0.4974 -0.0330
10193TIP3    H152070   6.168   5.367  11.223 -0.7991  1.8170  0.5360
10193TIP3    H252071   6.142   5.244  11.306  1.7445 -0.6667 -2.1031
10194TIP3   OH252072   4.057   5.266   1.842  0.4416 -0.2215  0.2664
10194TIP3    H152073   3.991   5.205   1.874 -0.1749  0.1512 -0.2408
10194TIP3    H252074   4.024   5.292   1.755  1.6798 -0.6507 -0.3475
10195TIP3   OH252075   0.731   5.448  14.794  0.8730  0.2683 -0.0431
10195TIP3    H152076   0.801   5.437  14.858  0.3107 -0.1504  0.5243
10195TIP3    H252077   0.680   5.367  14.800  0.7074  0.2969 -0.8992
10196TIP3   OH252078   6.146   1.835  12.655 -0.0698 -0.3979  0.1327
10196TIP3    H152079   6.231   1.819  12.615 -0.2902  1.7571 -1.3675
10196TIP3    H252080   6.120   1.751  12.692  1.3505 -1.8491 -1.9879
10197TIP3   OH252081   2.207   1.444   2.581  0.3453 -0.4504 -0.4804
10197TIP3    H152082   2.273   1.483   2.638 -0.2820 -1.9857  1.3843
10197TIP3    H252083   2.250   1.367   2.544  0.3583 -0.1115 -1.2007
10198TIP3   OH252084   4.233   5.837  14.343 -0.0092 -0.5736 -0.1951
10198TIP3    H152085   4.210   5.803  14.257  1.0449 -1.6523 -0.0742
10198TIP3    H252086   4.221   5.763  14.403  0.5586 -0.2322  0.3633
10199TIP3   OH252087   0.169   1.064  13.993  0.3369  0.1714  0.5178
10199TIP3    H152088   0.182   0.978  14.033 -1.8934 -0.5213 -0.0796
10199TIP3    H252089   0.144   1.120  14.066  0.1871 -0.1046  0.6840
10200TIP3   OH252090   1.286   0.562  16.823 -0.4563 -0.0448 -0.0688
10200TIP3    H152091   1.247   0.495  16.879 -1.1385  1.0644  0.8217
10200TIP3    H252092   1.211   0.610  16.787  0.0119  0.0195 -0.9694
10201TIP3   OH252093   2.833   1.296   2.975 -0.6401  0.3116 -0.1421
10201TIP3    H152094   2.905   1.286   2.912 -2.2302  0.1586 -2.0203
10201TIP3    H252095   2.817   1.207   3.007 -0.8186  0.1411 -0.6923
10202TIP3   OH252096   5.310   4.599  11.877 -0.3312 -0.0944  0.3899
10202TIP3    H152097   5.329   4.509  11.850  2.1354  0.5592 -0.3326
10202TIP3    H252098   5.281   4.592  11.968 -0.9255 -1.6548  0.1048
10203TIP3   OH252099   1.689   3.313   3.400  0.1558  0.0182  0.4451
10203TIP3    H152100   1.719   3.238   3.451 -1.1075  0.7798  2.3941
10203TIP3    H252101   1.632   3.362   3.459 -0.4919  1.5645 -1.3518
10204TIP3   OH252102   5.652   2.406  13.983 -0.2687 -0.3453  0.5292
10204TIP3    H152103   5.630   2.340  13.917  1.1850 -0.6042  0.2652
10204TIP3    H252104   5.727   2.369  14.029 -0.4753  0.4019  1.4958
10205TIP3   OH252105   6.342   4.965  11.361 -0.4410 -0.3931 -0.1282
10205TIP3    H152106   6.420   5.001  11.319 -1.3000  0.8018 -0.7393
10205TIP3    H252107   6.268   5.006  11.316 -1.4115  0.3421  1.9817
10206TIP3   OH252108   5.271   4.806   5.281 -0.3682 -0.0676 -0.0258
10206TIP3    H152109   5.251   4.880   5.224 -0.7167  0.0373  0.2296
10206TIP3    H252110   5.335   4.754   5.231 -0.1910  0.3530 -0.2439
10207TIP3   OH252111   1.192   4.293   4.929 -0.1086  0.5141  0.2144
10207TIP3    H152112   1.263   4.337   4.882 -0.5974  1.0961  0.0137
10207TIP3    H252113   1.140   4.364   4.967 -1.2649  0.1494 -0.6292
10208TIP3   OH252114   5.992   1.737  16.876  0.3564  0.3870  0.5117
10208TIP3    H152115   5.947   1.818  16.852  3.2313  1.4970 -1.8115
10208TIP3    H252116   5.926   1.668  16.867 -0.7210  1.6894 -4.0630
10209TIP3   OH252117   2.966   4.410  16.934 -0.1585  0.1092  0.4968
10209TIP3    H152118   3.053   4.379  16.959  0.0441 -0.7781 -1.1555
10209TIP3    H252119   2.983   4.484  16.876 -0.5443  0.4882  0.8566
10210TIP3   OH252120   3.479   5.694  12.652 -0.1810 -0.2576 -0.6538
10210TIP3    H152121   3.385   5.700  12.668 -0.0207  2.2437 -0.1557
10210TIP3    H252122   3.491   5.735  12.566  0.5775  1.2124  0.1009
10211TIP3   OH252123   3.325   6.436  14.644  0.6177  0.3289  0.2352
10211TIP3    H152124   3.336   6.343  14.665  4.3395  0.9240  1.6179
10211TIP3    H252125   3.311   6.437  14.550 -1.4380 -1.6728  0.4180
10212TIP3   OH252126   4.061   5.196   2.673 -0.5648  0.5234  0.1481
10212TIP3    H152127   4.137   5.225   2.623  0.5370  0.0538  1.4791
10212TIP3    H252128   3.994   5.261   2.655  0.1519  0.9581 -1.0497
10213TIP3   OH252129   2.475   3.964  15.750  0.0821  0.1919 -0.0424
10213TIP3    H152130   2.449   3.873  15.764  2.5301 -0.5909  0.0157
10213TIP3    H252131   2.528   3.986  15.827 -0.1786  1.5531 -0.2279
10214TIP3   OH252132   4.946   5.796  15.185  0.1195 -0.1073  0.0575
10214TIP3    H152133   4.982   5.787  15.097 -0.5744  0.8089 -0.3315
10214TIP3    H252134   5.007   5.746  15.241  1.2541  0.3266 -0.7524
10215TIP3   OH252135   0.883   1.873  15.584  0.1528  0.4233  0.0200
10215TIP3    H152136   0.925   1.912  15.506  0.3490  0.8049  0.3125
10215TIP3    H252137   0.943   1.894  15.656  1.1049 -1.8347 -0.0547
10216TIP3   OH252138   6.259   6.247  10.977 -0.7741  0.6191  0.1687
10216TIP3    H152139   6.165   6.253  10.997 -1.2679  0.4418 -1.8793
10216TIP3    H252140   6.279   6.154  10.985 -0.8372  0.6222  0.3632
10217TIP3   OH252141   3.911   2.592   0.397 -0.0346  0.4530  0.0695
10217TIP3    H152142   3.894   2.686   0.405 -1.2527  0.3372 -0.9607
10217TIP3    H252143   3.999   2.586   0.358 -0.5022  1.1960 -1.1384
10218TIP3   OH252144   6.404   3.149  16.197  0.2807 -0.1239 -0.2000
10218TIP3    H152145   6.377   3.070  16.245  2.8223 -0.4436  0.8171
10218TIP3    H252146   6.360   3.140  16.112 -2.0864 -0.9541  1.0158
10219TIP3   OH252147   2.751   5.486   5.870  0.1128 -0.0460  0.9572
10219TIP3    H152148   2.657   5.504   5.876 -1.1688 -4.4216 -1.6519
10219TIP3    H252149   2.761   5.439   5.788  4.4228 -1.0063  1.8077
10220TIP3   OH252150   4.643   4.509  14.293 -0.0467 -0.0259  0.2070
10220TIP3    H152151   4.644   4.600  14.264 -1.8584  0.1356  0.5186
10220TIP3    H252152   4.608   4.461  14.217 -0.3200 -0.2732  0.4876
10221TIP3   OH252153   5.854   1.494   1.596  0.3777 -0.3607  0.1067
10221TIP3    H152154   5.841   1.408   1.556 -0.9499  0.5337 -1.4637
10221TIP3    H252155   5.793   1.495   1.670 -1.9001  0.2931 -1.6638
10222TIP3   OH252156   5.808   1.696  11.558 -0.0690  0.8431  0.0910
10222TIP3    H152157   5.779   1.611  11.591 -0.2156  1.4966  1.7705
10222TIP3    H252158   5.761   1.707  11.475  0.8961 -1.2114 -0.7752
10223TIP3   OH252159   1.235   5.091   5.763 -0.1695  0.0223  0.3185
10223TIP3    H152160   1.173   5.068   5.832  0.2974 -0.9161  0.4351
10223TIP3    H252161   1.181   5.131   5.694 -0.5715  1.4396  1.4094
10224TIP3   OH252162   6.642   2.301  17.472 -0.3711  0.2810  0.1995
10224TIP3    H152163   6.597   2.334  17.395  0.2758  0.4693 -0.0995
10224TIP3    H252164   6.728   2.272  17.440 -0.0159  0.5556  0.8770
10225TIP3   OH252165   5.530   2.762   1.000  0.0269  0.4910 -0.1060
10225TIP3    H152166   5.520   2.804   1.086  0.8938 -1.8443  1.2298
10225TIP3    H252167   5.444   2.724   0.982 -0.4429  1.8065 -0.8028
10226TIP3   OH252168   5.965   6.608   6.591  0.0630 -0.1966 -0.3151
10226TIP3    H152169   5.910   6.531   6.577  0.9167 -0.8470 -0.1362
10226TIP3    H252170   5.971   6.649   6.504 -2.5027  1.1603  0.0297
10227TIP3   OH252171   0.749   5.051  12.902  0.1333  0.0966 -1.1464
10227TIP3    H152172   0.742   4.989  12.830 -1.1092  0.8132 -1.6855
10227TIP3    H252173   0.659   5.068  12.929  0.5142  0.6806 -0.1540
10228TIP3   OH252174   1.732   3.881  17.023  0.5875  0.5268 -0.5276
10228TIP3    H152175   1.717   3.975  17.026  0.1189  0.4334  0.1105
10228TIP3    H252176   1.667   3.847  16.961  1.9152  0.8304 -2.1617
10229TIP3   OH252177   2.072   2.082  14.368  0.0890 -0.0178  0.0605
10229TIP3    H152178   2.120   2.003  14.344 -0.6314 -0.4588  0.0471
10229TIP3    H252179   2.122   2.153  14.328  1.3791 -0.3465  1.0195
10230TIP3   OH252180   3.873   5.465  15.378  0.2169 -0.2452  0.0368
10230TIP3    H152181   3.819   5.408  15.433  1.2856 -1.8075 -0.4593
10230TIP3    H252182   3.850   5.441  15.289 -0.5216  1.3274 -0.2396
10231TIP3   OH252183   6.752   6.048  11.973 -0.2519  0.1712 -0.2012
10231TIP3    H152184   6.826   6.082  11.923  0.3486  0.3712  0.7924
10231TIP3    H252185   6.706   5.991  11.912  1.1787 -0.5957 -0.6153
10232TIP3   OH252186   5.585   2.626  15.864 -0.3804 -0.0849  0.9029
10232TIP3    H152187   5.583   2.608  15.769  1.0734 -2.0419  1.1781
10232TIP3    H252188   5.495   2.614  15.892 -0.8003  0.3376 -0.1945
10233TIP3   OH252189   5.492   4.468   4.656  0.0265  0.1030  0.4406
10233TIP3    H152190   5.478   4.562   4.669 -2.1457  0.0353 -0.9056
10233TIP3    H252191   5.556   4.464   4.584  0.0347  0.5454  0.4204
10234TIP3   OH252192   0.509   5.186   6.921  0.1695  0.3727  0.2762
10234TIP3    H152193   0.572   5.233   6.976  0.9911 -1.3189  0.8412
10234TIP3    H252194   0.537   5.206   6.832 -0.3385  2.0158  0.4395
10235TIP3   OH252195   3.267   5.138   2.259  0.6003  0.2294 -0.3125
10235TIP3    H152196   3.280   5.148   2.353 -1.5049 -1.1879  0.2252
10235TIP3    H252197   3.338   5.081   2.231  0.5394 -0.3726  0.6986
10236TIP3   OH252198   1.248   0.988  16.861  0.1218 -0.6298 -0.5160
10236TIP3    H152199   1.324   1.023  16.814  1.2199 -2.1751  0.0474
10236TIP3    H252200   1.205   1.066  16.897  1.0572  0.3295 -1.3924
10237TIP3   OH252201   0.168   2.951  13.843 -0.1641 -0.1050 -0.1240
10237TIP3    H152202   0.183   2.868  13.889 -0.1173 -1.0014 -1.6981
10237TIP3    H252203   0.120   2.926  13.764  2.1826  1.0031 -1.9983
10238TIP3   OH252204   5.415   5.811  16.287  0.3103  0.0594 -0.1255
10238TIP3    H152205   5.389   5.745  16.222  0.4794 -1.7530  1.5742
10238TIP3    H252206   5.435   5.761  16.366  2.4885  1.9809  0.6388
10239TIP3   OH252207   5.993   3.608   0.591 -0.6592 -0.4235 -0.9122
10239TIP3    H152208   5.977   3.610   0.686 -1.3967  2.5585 -1.0049
10239TIP3    H252209   5.989   3.515   0.568 -1.8069 -1.1331  1.7539
10240TIP3   OH252210   0.396   6.162  14.701  0.1635  0.3504  0.8898
10240TIP3    H152211   0.452   6.234  14.672 -0.6855  0.0392 -1.8309
10240TIP3    H252212   0.377   6.181  14.793  2.3057  2.0080  1.0521
10241TIP3   OH252213   4.633   6.586   1.217  0.2538  0.5185 -0.2805
10241TIP3    H152214   4.550   6.626   1.192 -0.6380  0.4490  2.2460
10241TIP3    H252215   4.620   6.492   1.204  0.2539  0.5766 -0.7053
10242TIP3   OH252216   3.877   5.652  12.203  0.4007  0.6623 -0.8444
10242TIP3    H152217   3.855   5.559  12.192  0.9521  0.6789 -2.3523
10242TIP3    H252218   3.792   5.694  12.217  0.2479 -0.1812  1.0486
10243TIP3   OH252219   4.307   3.211   0.448  0.0350 -0.4451 -0.4879
10243TIP3    H152220   4.294   3.123   0.483  0.1372 -0.1103  0.4343
10243TIP3    H252221   4.377   3.201   0.384  1.2094 -0.7767  0.7854
10244TIP3   OH252222   3.979   2.526  17.315 -0.2306 -0.2699  0.1576
10244TIP3    H152223   3.926   2.605  17.317  0.4751  0.2141  0.1441
10244TIP3    H252224   3.956   2.483  17.233  0.9209  1.0167 -0.8914
10245TIP3   OH252225   0.174   3.033  12.272 -0.0742 -0.4033  0.6278
10245TIP3    H152226   0.232   3.038  12.196  0.2619  0.4576  0.9381
10245TIP3    H252227   0.126   3.116  12.271  0.3583 -0.1327  1.6989
10246TIP3   OH252228   1.148   1.462  12.689  0.1837 -0.0062  0.3557
10246TIP3    H152229   1.176   1.553  12.684 -2.3155  0.7581 -1.9174
10246TIP3    H252230   1.121   1.440  12.600 -2.1779 -1.9461  1.4291
10247TIP3   OH252231   5.310   4.214   6.013  0.0238 -0.0762 -0.0571
10247TIP3    H152232   5.280   4.130   6.049  1.6624 -1.0233 -0.7870
10247TIP3    H252233   5.281   4.279   6.077 -2.7096 -0.9591 -0.2759
10248TIP3   OH252234   6.130   2.933   5.753 -0.2884  0.1804  0.9591
10248TIP3    H152235   6.118   2.989   5.676 -0.1487 -0.6585  0.3071
10248TIP3    H252236   6.224   2.940   5.773 -0.5266  1.2675  1.7469
10249TIP3   OH252237   2.332   0.970  16.812  0.3459 -0.0250 -0.2442
10249TIP3    H152238   2.311   1.059  16.838 -0.6293 -0.9117  2.2688
10249TIP3    H252239   2.303   0.964  16.721 -0.7761  1.8165 -0.0523
10250TIP3   OH252240   2.973   4.796  16.402 -0.7770  0.9216  0.6381
10250TIP3    H152241   3.014   4.756  16.326  1.6595  0.0638  2.2628
10250TIP3    H252242   2.974   4.890  16.384  1.4540  0.8864  0.3018
10251TIP3   OH252243   6.647   3.483  14.754 -0.4322  0.1077 -0.5244
10251TIP3    H152244   6.601   3.473  14.837 -0.9958  0.3031 -0.8045
10251TIP3    H252245   6.669   3.393  14.728 -0.3089  0.0423 -0.1993
10252TIP3   OH252246   6.291   4.979  17.359 -0.0055  0.2734  0.1360
10252TIP3    H152247   6.264   5.028  17.436  0.5447 -1.8031  1.7676
10252TIP3    H252248   6.295   4.888  17.389  0.8818 -0.5377 -2.1800
10253TIP3   OH252249   3.864   5.334  16.234  0.1425  0.1190 -0.4708
10253TIP3    H152250   3.842   5.426  16.249  0.7100  0.1806  0.0219
10253TIP3    H252251   3.960   5.332  16.234  0.1546 -0.2572 -1.8422
10254TIP3   OH252252   4.011   2.641  11.163  0.2777  0.3254 -0.0088
10254TIP3    H152253   4.081   2.644  11.228 -0.0753  0.5125  0.3687
10254TIP3    H252254   3.946   2.582  11.201  0.6643 -0.6196 -0.8010
10255TIP3   OH252255   4.017   1.638   4.309 -0.1173 -0.1837 -0.2413
10255TIP3    H152256   3.999   1.555   4.263 -0.3577 -0.3619  0.1741
10255TIP3    H252257   4.031   1.701   4.238  0.5567 -0.6799 -0.5664
10256TIP3   OH252258   6.602   5.438   3.683 -0.4919 -0.3118  0.0253
10256TIP3    H152259   6.652   5.459   3.763 -0.3274  0.3858 -0.2512
10256TIP3    H252260   6.669   5.417   3.618 -0.5156  0.8336 -0.4078
10257TIP3   OH252261   2.869   3.745  13.158  0.1847 -0.4019  0.1990
10257TIP3    H152262   2.953   3.790  13.171 -1.2109  1.9248  1.8390
10257TIP3    H252263   2.807   3.793  13.213 -2.2497 -2.0803 -0.9090
10258TIP3   OH252264   2.189   6.697  14.854  0.2551 -0.3160 -0.0248
10258TIP3    H152265   2.221   6.633  14.790 -0.6603  0.7589 -1.6297
10258TIP3    H252266   2.258   6.701  14.920  0.1584 -3.2355  0.3716
10259TIP3   OH252267   6.661   6.083  16.302  0.2214 -0.0375 -0.0699
10259TIP3    H152268   6.746   6.125  16.289  0.3500  0.2526  1.4690
10259TIP3    H252269   6.659   6.061  16.395 -2.5420  2.6182  0.6888
10260TIP3   OH252270   3.226   6.353  15.685 -0.0238  0.1568 -0.3270
10260TIP3    H152271   3.208   6.406  15.762 -1.0139 -0.8544  0.1655
10260TIP3    H252272   3.298   6.295  15.711 -0.7938 -0.6450  0.1002
10261TIP3   OH252273   5.426   3.675   2.502 -0.3945  0.2874 -0.2489
10261TIP3    H152274   5.334   3.684   2.479 -0.4318  1.9041  0.3816
10261TIP3    H252275   5.460   3.765   2.502  0.9692 -0.1969  0.3586
10262TIP3   OH252276   4.197   3.133  12.025 -0.1139 -0.2809 -0.0942
10262TIP3    H152277   4.269   3.176  11.979 -1.0293  2.3457  0.7857
10262TIP3    H252278   4.232   3.115  12.113 -0.9323  2.5128  0.8899
10263TIP3   OH252279   5.474   1.712  17.464 -0.0024  0.1682  0.7793
10263TIP3    H152280   5.505   1.664  17.540  0.6483 -0.3581  0.1922
10263TIP3    H252281   5.387   1.676  17.447 -0.5663  0.9574  1.8301
10264TIP3   OH252282   5.114   3.270   1.596 -0.8672 -0.7111 -0.1963
10264TIP3    H152283   5.178   3.216   1.550 -2.8136 -1.5953 -2.0522
10264TIP3    H252284   5.149   3.359   1.592  0.9835 -1.3752  0.3326
10265TIP3   OH252285   5.104   5.998   0.464 -0.3609  0.3371 -0.1127
10265TIP3    H152286   5.099   6.050   0.384 -0.8147 -1.2871 -1.1825
10265TIP3    H252287   5.180   5.942   0.451 -0.2489  0.2824  0.7532
10266TIP3   OH252288   0.411   3.690   6.396  0.1630 -0.8203  0.4767
10266TIP3    H152289   0.475   3.760   6.381 -0.5987 -0.4970 -1.6623
10266TIP3    H252290   0.371   3.711   6.480 -0.3399  1.5869 -0.2993
10267TIP3   OH252291   0.101   3.125   1.796  0.2663 -0.3471 -0.0324
10267TIP3    H152292   0.085   3.146   1.888 -1.1690 -1.4706  0.0071
10267TIP3    H252293   0.141   3.204   1.760 -0.3475  0.5863  1.2475
10268TIP3   OH252294   4.081   3.218  11.598  0.1798  0.2733  0.0919
10268TIP3    H152295   4.155   3.252  11.546  0.0651 -0.3203 -0.4721
10268TIP3    H252296   4.025   3.294  11.611  1.0799  0.8256  0.8715
10269TIP3   OH252297   2.072   6.104   5.076 -0.6241  0.5397 -0.0242
10269TIP3    H152298   2.046   6.145   5.159  0.0532 -0.2350  0.5969
10269TIP3    H252299   2.141   6.042   5.101 -0.4471  0.2541 -1.1672
10270TIP3   OH252300   3.867   3.475  11.012 -0.2413 -0.2000  0.9931
10270TIP3    H152301   3.874   3.570  11.018  1.2210 -0.2415  0.3035
10270TIP3    H252302   3.941   3.442  11.062 -0.2462 -0.9665  0.5046
10271TIP3   OH252303   1.553   5.110  13.449  0.0325 -0.3590  0.8158
10271TIP3    H152304   1.641   5.118  13.486  0.3684  2.8802 -0.3237
10271TIP3    H252305   1.495   5.145  13.516  0.1182  1.2565  0.0755
10272TIP3   OH252306   0.014   2.684   5.852  0.3739 -0.2002 -0.2014
10272TIP3    H152307   0.002   2.593   5.878  0.9376 -0.0281  0.6895
10272TIP3    H252308   0.051   2.679   5.764 -2.3642 -0.7739 -1.4233
10273TIP3   OH252309   0.706   2.642  13.598  0.1118 -0.1283 -0.3608
10273TIP3    H152310   0.720   2.731  13.630 -1.4281  0.2934 -0.7662
10273TIP3    H252311   0.660   2.654  13.515  2.1906 -1.2510 -1.7618
10274TIP3   OH252312   2.667   4.148   6.449  0.0332  0.3809  0.1559
10274TIP3    H152313   2.709   4.233   6.432 -0.2583  0.5524  0.2931
10274TIP3    H252314   2.576   4.161   6.423  0.1339 -0.0922 -0.4554
10275TIP3   OH252315   4.099   1.980  16.004  0.0850  0.2631 -0.3447
10275TIP3    H152316   4.146   2.059  15.980  0.0066 -0.1986 -2.1562
10275TIP3    H252317   4.014   2.011  16.037  0.3106  0.9505 -0.4018
10276TIP3   OH252318   4.908   5.790   2.318 -0.2328  0.3682 -0.5806
10276TIP3    H152319   5.000   5.766   2.317 -0.3939 -0.7086  2.2370
10276TIP3    H252320   4.885   5.802   2.226  2.2804 -0.9605 -1.4642
10277TIP3   OH252321   6.500   5.572   0.213 -0.5290 -0.2312 -0.1335
10277TIP3    H152322   6.446   5.553   0.137 -0.5902  0.6266 -0.3051
10277TIP3    H252323   6.547   5.490   0.230 -0.9225 -0.5883 -0.7560
10278TIP3   OH252324   6.451   1.708   3.078  0.0902 -0.0641 -0.2731
10278TIP3    H152325   6.463   1.659   3.160 -0.7745  0.8606  0.4341
10278TIP3    H252326   6.512   1.667   3.016  1.7971  0.0927  1.2066
10279TIP3   OH252327   4.791   4.189   0.122  0.0261  0.0423 -0.4589
10279TIP3    H152328   4.720   4.149   0.073 -0.0598 -0.8911  0.3907
10279TIP3    H252329   4.834   4.116   0.166  0.0811  0.8269  0.8572
10280TIP3   OH252330   3.224   2.124  14.783 -0.0768 -0.1386  0.2477
10280TIP3    H152331   3.288   2.172  14.835 -0.6801 -0.6869  1.5390
10280TIP3    H252332   3.233   2.033  14.811 -1.4395 -0.2200  0.4929
10281TIP3   OH252333   0.769   1.218   2.089  0.1292  0.1473 -0.1907
10281TIP3    H152334   0.800   1.293   2.139  1.4870  0.2053 -1.0628
10281TIP3    H252335   0.742   1.256   2.005  0.1385 -0.2445 -0.3708
10282TIP3   OH252336   5.941   3.399  13.284  0.2930  0.4353  0.7199
10282TIP3    H152337   5.865   3.342  13.272 -0.1225  1.2743 -1.1192
10282TIP3    H252338   6.016   3.341  13.274 -0.1299  0.0561 -0.4901
10283TIP3   OH252339   1.839   5.124  13.256 -0.0215 -0.0521 -0.2152
10283TIP3    H152340   1.916   5.111  13.311  0.5072 -0.1648 -0.9737
10283TIP3    H252341   1.853   5.067  13.181  0.7003  2.2746 -1.9377
10284TIP3   OH252342   4.115   1.219   5.355 -0.2910 -0.2846  0.6133
10284TIP3    H152343   4.021   1.208   5.371 -0.3011  1.0746  1.6816
10284TIP3    H252344   4.153   1.234   5.442  0.7842  0.0344  0.1093
10285TIP3   OH252345   4.471   5.839  11.307 -0.7144 -0.3477 -0.3171
10285TIP3    H152346   4.461   5.766  11.246  0.4337 -2.0976  1.4787
10285TIP3    H252347   4.562   5.867  11.296 -1.0442  0.6174 -0.7359
10286TIP3   OH252348   3.975   1.001  16.465  0.3012  0.0913 -0.3260
10286TIP3    H152349   3.911   1.064  16.433 -1.3948 -1.8748 -1.0213
10286TIP3    H252350   3.962   0.999  16.560  0.1464  0.5313 -0.3366
10287TIP3   OH252351   2.232   0.439  14.400  0.4181  0.6056  0.2195
10287TIP3    H152352   2.231   0.511  14.463 -2.0335  1.0541 -0.2466
10287TIP3    H252353   2.261   0.481  14.318 -1.8178  1.3509 -0.2634
10288TIP3   OH252354   3.407   4.295  11.503 -0.2833 -0.0832 -0.1299
10288TIP3    H152355   3.488   4.334  11.471 -0.2683 -0.7564 -0.9426
10288TIP3    H252356   3.381   4.350  11.577 -0.2000  1.3897 -1.1683
10289TIP3   OH252357   2.132   3.482   4.033 -1.1423  0.0360  0.3625
10289TIP3    H152358   2.203   3.430   4.071  0.1268  1.1937 -0.3255
10289TIP3    H252359   2.159   3.494   3.941 -0.9631  2.5602  0.6885
10290TIP3   OH252360   4.378   0.102   4.231 -0.6125 -0.7325  0.4142
10290TIP3    H152361   4.359   0.183   4.184  0.8941  0.2607  1.4290
10290TIP3    H252362   4.311   0.098   4.299 -0.2758  0.0649  0.8086
10291TIP3   OH252363   6.750   0.289   4.578  0.1778 -0.6235 -0.2301
10291TIP3    H152364   6.744   0.252   4.666 -0.5139 -0.5341 -0.2338
10291TIP3    H252365   6.685   0.359   4.577  1.0372  0.2018 -0.4200
10292TIP3   OH252366   6.301   0.241  13.565 -0.5484  0.7562  0.0189
10292TIP3    H152367   6.324   0.327  13.599  0.6777  1.2206 -1.8443
10292TIP3    H252368   6.366   0.224  13.497  0.4108 -2.4293  1.5145
10293TIP3   OH252369   5.926   2.681   6.118 -0.0750 -0.3551 -0.6408
10293TIP3    H152370   5.852   2.708   6.172  0.1490 -0.0570 -0.4818
10293TIP3    H252371   6.002   2.722   6.159  0.1415 -0.4171 -0.9772
10294TIP3   OH252372   5.075   5.972  11.763 -0.1072 -0.2035 -0.2481
10294TIP3    H152373   5.127   5.992  11.840 -0.6532  0.3647 -0.0161
10294TIP3    H252374   5.137   5.979  11.690  0.1785  0.3079  0.0393
10295TIP3   OH252375   4.174   4.014  16.082  0.3441  0.5902  0.0294
10295TIP3    H152376   4.244   4.009  16.147 -0.1902 -0.2027  0.5619
10295TIP3    H252377   4.093   4.009  16.133 -0.0980 -1.4813 -0.7488
10296TIP3   OH252378   0.391   3.489   2.277 -0.4243  0.1621  0.4035
10296TIP3    H152379   0.314   3.437   2.254  0.6436 -1.3854  0.1607
10296TIP3    H252380   0.428   3.444   2.353  0.6597  0.4369  0.0511
10297TIP3   OH252381   3.733   0.661  11.956  0.1008  0.2037  0.0265
10297TIP3    H152382   3.667   0.724  11.984 -1.4136 -2.4684  3.1197
10297TIP3    H252383   3.689   0.609  11.889  0.3757  0.6438 -0.5055
10298TIP3   OH252384   3.729   5.795  14.569 -0.2608  0.1586  0.1497
10298TIP3    H152385   3.701   5.768  14.481  0.2038  0.8565 -0.2162
10298TIP3    H252386   3.762   5.884  14.558  0.4254  0.0091  0.9118
10299TIP3   OH252387   3.060   1.343   2.597 -0.0842  0.0490 -0.2627
10299TIP3    H152388   3.110   1.294   2.663  2.1350  0.8035 -1.2735
10299TIP3    H252389   3.047   1.281   2.525 -0.3973 -0.0811 -0.0938
10300TIP3   OH252390   6.144   4.881   1.313 -0.3912 -0.1739  0.3464
10300TIP3    H152391   6.156   4.969   1.277  0.7777 -0.4446  0.0533
10300TIP3    H252392   6.086   4.893   1.388 -0.6483  0.7730  0.0035
10301TIP3   OH252393   5.085   0.356  13.734 -0.3562 -0.0106 -0.1343
10301TIP3    H152394   5.174   0.387  13.717  0.4975 -2.3938 -0.3667
10301TIP3    H252395   5.070   0.288  13.668 -0.4357 -3.0963  2.8042
10302TIP3   OH252396   3.148   5.367   5.171 -0.3172  0.0946 -0.1447
10302TIP3    H152397   3.191   5.451   5.155  0.3921  0.2688  2.3688
10302TIP3    H252398   3.189   5.308   5.108  0.8317  1.1145 -0.4071
10303TIP3   OH252399   3.222   5.714   3.414  0.1646  0.2603 -0.0187
10303TIP3    H152400   3.184   5.629   3.438  0.1836  0.1845 -0.2535
10303TIP3    H252401   3.166   5.778   3.458 -1.8095  0.2822 -2.3245
10304TIP3   OH252402   4.065   2.309  17.003 -0.3465 -0.3700  0.4929
10304TIP3    H152403   3.993   2.336  17.060 -0.8290  1.0309 -0.7154
10304TIP3    H252404   4.025   2.248  16.941 -0.0239 -1.1858  1.0784
10305TIP3   OH252405   1.467   5.034   5.642 -0.5948 -0.1436 -0.7485
10305TIP3    H152406   1.389   5.069   5.686 -0.4243 -0.5034 -0.1532
10305TIP3    H252407   1.442   4.946   5.614 -0.2842 -0.4095 -0.2120
10306TIP3   OH252408   2.540   2.231  11.488  0.0601 -0.0944 -0.0485
10306TIP3    H152409   2.567   2.252  11.399 -0.7465  0.0366 -0.2768
10306TIP3    H252410   2.621   2.217  11.536  0.4983 -0.2250 -0.8212
10307TIP3   OH252411   3.596   2.092  16.945 -0.7301 -0.2193 -0.5330
10307TIP3    H152412   3.570   2.184  16.954 -0.3585 -0.0183 -1.4730
10307TIP3    H252413   3.514   2.043  16.953 -0.7274  0.0309  1.9269
10308TIP3   OH252414   0.764   6.610  14.525 -0.6482  0.4976  0.1868
10308TIP3    H152415   0.773   6.647  14.613  2.8477  1.7889 -0.5465
10308TIP3    H252416   0.825   6.537  14.524 -0.7951  0.3819 -1.0961
10309TIP3   OH252417   1.001   4.395  10.350  0.7273  0.3515 -0.0633
10309TIP3    H152418   0.911   4.391  10.316  0.9010  1.0582 -0.6294
10309TIP3    H252419   0.991   4.386  10.445  0.3694 -3.9340 -0.3086
10310TIP3   OH252420   3.247   4.044  16.919  0.1908 -0.3078  0.1631
10310TIP3    H152421   3.238   3.973  16.982  0.4365 -1.2315 -0.8113
10310TIP3    H252422   3.338   4.041  16.891 -0.0238 -0.2147 -0.5777
10311TIP3   OH252423   1.691   3.558  15.596  0.0281  0.7625 -0.4164
10311TIP3    H152424   1.746   3.581  15.521  2.3611  0.7385  1.1691
10311TIP3    H252425   1.612   3.520  15.558  2.4713 -2.4008 -2.8513
10312TIP3   OH252426   0.976   6.603  13.840 -0.2131 -0.4192 -0.2438
10312TIP3    H152427   0.910   6.550  13.797  0.1824  1.2609 -3.1764
10312TIP3    H252428   0.936   6.689  13.849  1.0638  0.2500 -0.7652
10313TIP3   OH252429   6.290   4.275  12.435 -0.1903  0.2779  0.6437
10313TIP3    H152430   6.258   4.290  12.524  1.0468  0.4058  1.0791
10313TIP3    H252431   6.383   4.295  12.439  0.1010 -0.7681 -0.4368
10314TIP3   OH252432   5.595   5.043   3.232  0.1606 -0.0669 -0.3014
10314TIP3    H152433   5.629   5.021   3.145  1.8696  1.6222 -0.1354
10314TIP3    H252434   5.662   5.009   3.293 -0.0740  0.4389  0.2463
10315TIP3   OH252435   3.993   0.426   4.835  0.1355  0.1459 -0.5978
10315TIP3    H152436   4.024   0.398   4.921  0.9726 -0.3983 -1.0694
10315TIP3    H252437   3.926   0.492   4.854  1.1216  0.8817  0.4556
10316TIP3   OH252438   4.431   0.795   1.976  0.1656  0.3585 -0.5983
10316TIP3    H152439   4.387   0.808   2.060  1.1283 -1.7106  0.2854
10316TIP3    H252440   4.367   0.824   1.911 -1.6216 -0.4128  0.7256
10317TIP3   OH252441   4.703   2.443  15.793 -0.1495  0.1083  0.2365
10317TIP3    H152442   4.783   2.391  15.788 -1.0613 -1.4585  1.1245
10317TIP3    H252443   4.733   2.534  15.797  1.5610 -0.4336  0.2366
10318TIP3   OH252444   5.556   5.680   0.676 -0.2055 -0.0208  0.4484
10318TIP3    H152445   5.623   5.700   0.610 -0.9007 -0.6569 -0.4808
10318TIP3    H252446   5.494   5.623   0.630 -1.7545  1.0999  1.0689
10319TIP3   OH252447   4.300   4.876   4.084 -0.0418  0.3278 -1.1017
10319TIP3    H152448   4.283   4.786   4.056 -0.4234 -0.1572  0.5942
10319TIP3    H252449   4.223   4.925   4.055 -1.2056 -0.4912  0.4515
10320TIP3   OH252450   3.425   5.168   5.784  0.9152 -0.7233 -0.1731
10320TIP3    H152451   3.396   5.149   5.695  1.7083 -0.1011 -0.5791
10320TIP3    H252452   3.510   5.210   5.773  0.9486 -0.4899  0.8698
10321TIP3   OH252453   5.807   6.004  15.911 -0.3316  0.2279 -0.7374
10321TIP3    H152454   5.822   5.915  15.943 -0.6723  0.3951 -0.0978
10321TIP3    H252455   5.786   5.993  15.818 -0.5652 -0.3812 -0.6175
10322TIP3   OH252456   3.890   4.890   1.446  0.0292  0.2777 -0.1231
10322TIP3    H152457   3.809   4.881   1.497  0.4418  0.8045  0.6407
10322TIP3    H252458   3.930   4.971   1.479  1.8534 -0.9818  0.8727
10323TIP3   OH252459   5.583   1.094   1.342  0.0318  0.7206  0.7289
10323TIP3    H152460   5.597   1.020   1.401 -1.1885 -0.0339  0.1169
10323TIP3    H252461   5.500   1.075   1.299  0.8260  1.2831 -1.1775
10324TIP3   OH252462   4.072   5.108  16.013 -0.1082 -0.2004 -0.1015
10324TIP3    H152463   3.980   5.131  15.997  0.0490 -0.6617 -1.8449
10324TIP3    H252464   4.117   5.192  16.018 -0.8528  0.1132  2.5950
10325TIP3   OH252465   3.200   1.041   4.325 -0.3530  0.5190 -0.1933
10325TIP3    H152466   3.291   1.070   4.326  1.2826 -3.8808 -0.1342
10325TIP3    H252467   3.176   1.040   4.233  0.2272  0.3366 -0.3500
10326TIP3   OH252468   2.607   6.373  12.232  0.6639  0.4149  0.2578
10326TIP3    H152469   2.681   6.325  12.196 -0.0191  1.2268 -2.4851
10326TIP3    H252470   2.646   6.433  12.296  2.0691 -0.6334  0.4268
10327TIP3   OH252471   3.151   0.458  16.078  0.1466 -0.0377  0.0445
10327TIP3    H152472   3.073   0.513  16.068  1.2507  1.5159 -0.2797
10327TIP3    H252473   3.159   0.412  15.994 -0.3414 -0.1174  0.0390
10328TIP3   OH252474   0.346   3.781   3.435  0.1740 -0.2295 -0.7022
10328TIP3    H152475   0.251   3.772   3.439  0.2084 -0.2262  0.6903
10328TIP3    H252476   0.376   3.705   3.385 -0.5414 -0.3500 -0.9573
10329TIP3   OH252477   5.401   2.012  15.476 -0.4307  0.4010  0.0758
10329TIP3    H152478   5.381   2.053  15.560  0.8612  0.1208  0.5429
10329TIP3    H252479   5.495   2.025  15.465 -0.5451  0.2430 -1.2354
10330TIP3   OH252480   5.967   0.751  14.066  0.2523 -0.2722 -0.0826
10330TIP3    H152481   6.024   0.827  14.052 -1.7089  1.3325  0.2693
10330TIP3    H252482   5.928   0.766  14.152 -1.1392 -1.0143 -0.5526
10331TIP3   OH252483   5.951   3.187  14.074 -0.0391  0.3706 -0.0019
10331TIP3    H152484   5.953   3.154  13.984 -1.1816 -1.5203  0.6221
10331TIP3    H252485   5.871   3.240  14.078  0.3909  1.0513 -0.2774
10332TIP3   OH252486   3.871   5.422   4.437  0.9590 -0.3535 -0.1250
10332TIP3    H152487   3.951   5.391   4.396  0.3453 -1.2582 -0.6626
10332TIP3    H252488   3.817   5.344   4.450 -0.7542  0.4619 -1.7964
10333TIP3   OH252489   5.076   2.711  15.995  0.3790  0.3099 -0.4050
10333TIP3    H152490   5.162   2.721  15.954 -0.6257  1.7553 -2.2996
10333TIP3    H252491   5.031   2.646  15.942  0.2843 -0.5049  0.6290
10334TIP3   OH252492   0.768   0.269  16.135  0.0373 -0.0910 -0.4598
10334TIP3    H152493   0.698   0.249  16.072 -1.2577  0.2511  0.8225
10334TIP3    H252494   0.746   0.216  16.212 -0.2932  1.9463  0.9251
10335TIP3   OH252495   6.461   2.654   2.178 -0.4291 -0.2718  0.5402
10335TIP3    H152496   6.436   2.652   2.270  0.6114 -1.7525  0.8078
10335TIP3    H252497   6.450   2.564   2.148  0.3741 -0.0493 -0.4740
10336TIP3   OH252498   0.586   0.108  12.186  0.1577  0.3301  0.3233
10336TIP3    H152499   0.680   0.124  12.199  0.1114  0.2483  0.7475
10336TIP3    H252500   0.550   0.195  12.166  0.4503  0.2458 -0.6520
10337TIP3   OH252501   0.449   4.547   2.497  0.0353  0.4950  0.4095
10337TIP3    H152502   0.481   4.464   2.462 -0.1804  0.9873 -1.0249
10337TIP3    H252503   0.438   4.530   2.590 -1.6765 -1.6589 -0.0814
10338TIP3   OH252504   5.555   2.883   1.290  0.1294 -0.3540 -0.0256
10338TIP3    H152505   5.644   2.875   1.256  0.9326  4.1654  0.4022
10338TIP3    H252506   5.565   2.926   1.375 -2.4139 -1.4475  0.9459
10339TIP3   OH252507   1.738   6.726   4.402  0.4934  0.0345 -0.2043
10339TIP3    H152508   1.800   6.792   4.370  0.6897  0.5866  1.2473
10339TIP3    H252509   1.655   6.750   4.362  0.8491  0.3234 -0.7913
10340TIP3   OH252510   2.518   2.051  12.043 -0.0383  0.1478 -0.1676
10340TIP3    H152511   2.523   1.961  12.075 -2.1287 -0.5174 -1.5401
10340TIP3    H252512   2.610   2.077  12.034  0.6395 -2.0576 -0.3338
10341TIP3   OH252513   3.528   1.851   4.972  0.1255 -0.3941 -0.0416
10341TIP3    H152514   3.478   1.897   4.905 -0.3796 -2.0362 -0.8209
10341TIP3    H252515   3.487   1.878   5.054  0.6029  1.4483 -0.3519
10342TIP3   OH252516   3.522   5.473  15.202  0.1979 -0.1837 -0.3993
10342TIP3    H152517   3.569   5.556  15.212 -0.4300 -0.1006  2.9451
10342TIP3    H252518   3.440   5.498  15.159 -0.4632  1.1802  1.5282
10343TIP3   OH252519   4.983   2.237   5.376  0.0609 -0.8280  0.0401
10343TIP3    H152520   5.022   2.179   5.311  1.2112 -0.8079  0.6939
10343TIP3    H252521   4.993   2.325   5.339 -1.4190 -0.9848 -0.8149
10344TIP3   OH252522   5.044   0.686  16.404  0.4756 -0.1796 -0.2618
10344TIP3    H152523   5.127   0.644  16.383  0.6461  0.6141 -1.2498
10344TIP3    H252524   5.051   0.709  16.497  0.1405 -2.8124  0.5053
10345TIP3   OH252525   0.001   3.866  15.546 -0.2013  0.2042 -0.2787
10345TIP3    H152526  -0.047   3.932  15.498  0.2062 -0.4944 -1.7062
10345TIP3    H252527  -0.018   3.784  15.500 -0.4135 -0.6294  1.2274
10346TIP3   OH252528   1.102   5.682  12.463  0.3974  0.1129  0.3573
10346TIP3    H152529   1.135   5.635  12.540  0.9668  0.2060  0.1733
10346TIP3    H252530   1.114   5.622  12.390 -1.2068 -0.4273  0.4974
10347TIP3   OH252531   6.519   3.672   1.943 -0.2185 -0.7687 -0.4441
10347TIP3    H152532   6.520   3.660   1.848 -0.6573 -1.3302 -0.3803
10347TIP3    H252533   6.432   3.709   1.961  1.0097  2.5537 -0.6263
10348TIP3   OH252534   6.490   2.337  12.607  0.1806 -0.2409  0.6947
10348TIP3    H152535   6.496   2.331  12.703 -0.4135 -0.3596  0.7307
10348TIP3    H252536   6.446   2.256  12.580  0.8128 -0.4464  0.2680
10349TIP3   OH252537   5.318   3.429   2.712  0.1373 -0.5095 -0.4905
10349TIP3    H152538   5.302   3.441   2.618  1.0293  2.3320 -0.3852
10349TIP3    H252539   5.231   3.425   2.751 -0.2542 -0.1760 -1.3043
10350TIP3   OH252540   4.185   4.238   1.352  0.1843  0.5665 -0.2250
10350TIP3    H152541   4.155   4.305   1.292  2.5689  1.7545 -0.2024
10350TIP3    H252542   4.136   4.159   1.327 -2.6921  2.2243 -0.2537
10351TIP3   OH252543   0.816   5.960   3.383 -0.0635 -0.1543  0.1576
10351TIP3    H152544   0.735   5.928   3.423 -0.5199  0.2339 -0.4318
10351TIP3    H252545   0.878   5.888   3.392  0.2294  0.3345  2.6271
10352TIP3   OH252546   3.729   3.974  13.782  0.1997  0.0166  0.8720
10352TIP3    H152547   3.730   3.952  13.689  3.5576  0.9509  0.5592
10352TIP3    H252548   3.753   3.893  13.827  0.3674  0.0183  0.7829
10353TIP3   OH252549   5.254   1.621   2.023  0.6918 -0.0430 -0.2139
10353TIP3    H152550   5.338   1.648   2.060  0.7083 -0.5286  0.1152
10353TIP3    H252551   5.220   1.556   2.085 -0.6525  1.2497  0.4785
10354TIP3   OH252552   1.931   0.263   1.350 -0.6389  0.0462 -0.2448
10354TIP3    H152553   1.944   0.358   1.350 -0.4228  0.0175  0.1043
10354TIP3    H252554   2.019   0.227   1.349 -0.6906 -0.1481  0.9881
10355TIP3   OH252555   6.346   2.015  17.141  0.5951 -0.2826 -0.1800
10355TIP3    H152556   6.429   1.982  17.107  0.5488 -1.7043  1.0283
10355TIP3    H252557   6.347   1.993  17.234  0.1275  2.3308  0.5482
10356TIP3   OH252558   2.630   0.033  15.131  0.6830  0.3072  0.2824
10356TIP3    H152559   2.638   0.115  15.082  0.0965 -0.3422 -0.9575
10356TIP3    H252560   2.713   0.025  15.178  1.4538  0.7572 -0.9521
10357TIP3   OH252561   0.159   5.474   0.666  0.2506  0.1146 -0.6455
10357TIP3    H152562   0.237   5.499   0.616  0.7411  1.2579  0.6290
10357TIP3    H252563   0.189   5.402   0.723  0.5484  0.9159  0.2355
10358TIP3   OH252564   3.350   5.623  13.336  0.0910  0.3387  0.4198
10358TIP3    H152565   3.329   5.562  13.407 -1.7613 -1.8266 -1.8159
10358TIP3    H252566   3.272   5.678  13.329  0.1336  0.3334 -0.1093
10359TIP3   OH252567   6.393   4.448  16.974  0.2170  0.1347 -0.5325
10359TIP3    H152568   6.297   4.446  16.974  0.0718 -0.9163  3.4183
10359TIP3    H252569   6.415   4.540  16.990 -0.1582  0.2275 -0.5360
10360TIP3   OH252570   1.183   4.424   1.253  0.3132 -0.0518 -0.1379
10360TIP3    H152571   1.137   4.422   1.169 -1.1041  3.4705  0.3591
10360TIP3    H252572   1.134   4.363   1.308 -0.5282 -0.2572 -1.0756
10361TIP3   OH252573   0.039   1.471  13.114  0.4281  0.3565 -0.5571
10361TIP3    H152574   0.043   1.424  13.031 -0.9413  0.6201 -0.8119
10361TIP3    H252575   0.092   1.550  13.100 -1.0289  1.1945 -1.7687
10362TIP3   OH252576   6.149   2.850   5.114  0.2207  0.4107  0.4148
10362TIP3    H152577   6.128   2.910   5.042  0.4979  1.5370  1.2288
10362TIP3    H252578   6.147   2.906   5.192  1.5259 -0.4349  1.0884
10363TIP3   OH252579   3.163   3.577  13.794 -0.1409 -0.7051  0.3509
10363TIP3    H152580   3.230   3.616  13.737 -0.1091  0.1634  0.9599
10363TIP3    H252581   3.113   3.519  13.736 -0.5417  0.6639 -0.7238
10364TIP3   OH252582   1.203   2.681  15.897  0.1920  0.1627 -0.5019
10364TIP3    H152583   1.163   2.613  15.842 -1.7123  0.4704  0.4187
10364TIP3    H252584   1.282   2.706  15.850 -0.6222 -0.5853 -2.3837
10365TIP3   OH252585   6.046   6.546   3.010 -0.2138 -0.5604 -0.3133
10365TIP3    H152586   6.122   6.547   2.951  0.8251  0.1729  0.9896
10365TIP3    H252587   6.079   6.508   3.091 -1.3139 -0.4507  0.1989
10366TIP3   OH252588   4.449   1.597  16.163 -0.0905  0.4712 -1.1617
10366TIP3    H152589   4.453   1.521  16.106 -1.0228 -0.2071 -0.3555
10366TIP3    H252590   4.375   1.580  16.221  1.9938  0.1965  1.5900
10367TIP3   OH252591   4.600   0.710   3.579 -0.3990 -0.2098 -0.1378
10367TIP3    H152592   4.680   0.754   3.607 -0.6637 -0.6689  1.4517
10367TIP3    H252593   4.629   0.641   3.519  0.7652 -2.2606  2.5875
10368TIP3   OH252594   6.180   4.843   0.520 -0.5665 -0.3353 -0.4455
10368TIP3    H152595   6.093   4.850   0.559 -1.4434 -1.6871 -2.0417
10368TIP3    H252596   6.208   4.753   0.540  1.4015  0.6467  1.7755
10369TIP3   OH252597   6.072   1.368  16.264  0.7814  0.2732 -0.1216
10369TIP3    H152598   6.152   1.394  16.218 -0.3886 -0.4312 -2.6845
10369TIP3    H252599   6.092   1.281  16.299  0.5027 -0.8468 -2.5853
10370TIP3   OH252600   2.567   3.640   1.196 -0.0200  0.3297 -0.5498
10370TIP3    H152601   2.646   3.600   1.161  0.4633  0.2804  0.5601
10370TIP3    H252602   2.511   3.566   1.222  1.2516  0.2419  2.3592
10371TIP3   OH252603   4.118   2.098   7.077  0.3493  0.2267  0.0920
10371TIP3    H152604   4.102   2.186   7.042 -2.6638 -0.7442 -1.3056
10371TIP3    H252605   4.110   2.108   7.171 -0.9569  1.3427 -0.1049
10372TIP3   OH252606   3.157   3.561  14.064 -0.0932 -0.4870  0.2921
10372TIP3    H152607   3.155   3.563  13.968 -3.1524 -1.4811  0.2200
10372TIP3    H252608   3.153   3.468  14.086 -2.7746 -0.2394  1.2390
10373TIP3   OH252609   6.675   5.316  16.753 -0.1188 -0.3655  0.0809
10373TIP3    H152610   6.652   5.226  16.774  0.5010 -0.4240  0.5516
10373TIP3    H252611   6.713   5.351  16.834  2.5108 -0.6646 -0.9029
10374TIP3   OH252612   5.322   2.362  11.718 -0.5693  0.1540  0.2009
10374TIP3    H152613   5.413   2.385  11.739 -0.0558  0.0424 -1.7529
10374TIP3    H252614   5.310   2.393  11.629 -2.1634 -0.7136  0.0916
10375TIP3   OH252615   1.616   6.493   3.176 -0.4765  0.5672 -0.5752
10375TIP3    H152616   1.635   6.517   3.267  0.1298 -0.5329 -0.3921
10375TIP3    H252617   1.521   6.489   3.171 -0.5072  0.2069  0.1377
10376TIP3   OH252618   5.183   0.809  17.330  0.1677 -0.7427 -0.7870
10376TIP3    H152619   5.091   0.783  17.336  0.2934 -0.9833  0.4247
10376TIP3    H252620   5.187   0.866  17.253 -1.0127 -0.6482 -0.7998
10377TIP3   OH252621   3.638   1.994  16.278 -0.1568 -0.5277  0.0484
10377TIP3    H152622   3.576   2.062  16.251 -0.3451 -0.7057  0.0310
10377TIP3    H252623   3.723   2.029  16.253 -0.0238  0.7106  2.0442
10378TIP3   OH252624   4.774   4.366   1.605 -0.1334 -0.3609 -0.0255
10378TIP3    H152625   4.729   4.430   1.660 -0.8520 -0.4307 -0.5178
10378TIP3    H252626   4.818   4.418   1.538  1.1837 -0.2357  0.8903
10379TIP3   OH252627   3.419   1.866  11.775 -0.3614  0.2610  0.2237
10379TIP3    H152628   3.399   1.916  11.696 -2.0377  0.1077  0.5019
10379TIP3    H252629   3.358   1.792  11.772 -0.0810 -0.0434  1.3905
10380TIP3   OH252630   4.608   6.009  15.268  0.6097 -0.1601 -0.1075
10380TIP3    H152631   4.544   6.073  15.297  0.7558 -0.2410  0.3992
10380TIP3    H252632   4.683   6.021  15.326  0.8019 -0.5040 -0.2759
10381TIP3   OH252633   5.879   4.637   0.018  0.2001 -0.0111  0.4581
10381TIP3    H152634   5.945   4.694  -0.023  1.5022  1.0169  3.6626
10381TIP3    H252635   5.918   4.549   0.014  0.9013  0.2848  0.6245
10382TIP3   OH252636   3.009   5.241  11.315 -0.1455 -0.1996 -0.5672
10382TIP3    H152637   3.033   5.175  11.249 -0.4298 -0.3952 -0.4786
10382TIP3    H252638   3.033   5.324  11.276  0.8646 -0.3957 -0.4024
10383TIP3   OH252639   1.300   6.393   5.186  0.1864  0.3393  0.0466
10383TIP3    H152640   1.379   6.361   5.229  1.3420  1.4114 -1.1528
10383TIP3    H252641   1.333   6.458   5.123 -1.6952  1.0921 -0.2083
10384TIP3   OH252642   5.177   3.144  13.556  0.9060 -0.0254 -1.0230
10384TIP3    H152643   5.173   3.076  13.623  0.5045  3.1578  2.4662
10384TIP3    H252644   5.266   3.177  13.561  0.5373  1.0278 -1.2528
10385TIP3   OH252645   3.708   1.192   6.162 -0.0055  0.2076 -0.0546
10385TIP3    H152646   3.615   1.179   6.143 -0.2026  1.5347 -0.0438
10385TIP3    H252647   3.714   1.279   6.199  0.7163 -1.3214  3.8953
10386TIP3   OH252648   6.280   4.389  17.489 -0.7138 -0.1953 -0.0912
10386TIP3    H152649   6.273   4.368  17.395  2.4577  0.3641 -0.5715
10386TIP3    H252650   6.337   4.320  17.524  0.6699  1.2908  0.7126
10387TIP3   OH252651   0.602   6.490   6.162  0.3201  0.2861  0.5337
10387TIP3    H152652   0.677   6.496   6.221  1.4598 -0.6353 -0.7528
10387TIP3    H252653   0.640   6.500   6.074 -1.1573  0.4240 -0.1249
10388TIP3   OH252654   0.374   5.638  16.316  0.4365  0.2367  0.0422
10388TIP3    H152655   0.303   5.692  16.350 -0.5939  0.0076 -1.5976
10388TIP3    H252656   0.330   5.557  16.288  1.4270 -0.1353 -0.4812
10389TIP3   OH252657   2.562   2.187   0.269  0.4404 -0.1249 -0.6220
10389TIP3    H152658   2.629   2.196   0.336 -1.2694 -0.0049  1.1662
10389TIP3    H252659   2.523   2.101   0.285 -0.6649  0.3243 -0.7926
10390TIP3   OH252660   1.152   4.879   5.262 -0.2871 -0.1952  0.3572
10390TIP3    H152661   1.114   4.893   5.349  1.1525 -0.4002  1.0514
10390TIP3    H252662   1.137   4.786   5.244  1.0588 -0.6001  1.2347
10391TIP3   OH252663   6.003   2.245  13.540  0.3064  0.3866 -0.3997
10391TIP3    H152664   6.057   2.323  13.532 -0.4135  0.8917 -0.4192
10391TIP3    H252665   5.991   2.216  13.449 -1.2489  1.5404 -0.6078
10392TIP3   OH252666   0.475   0.053  11.812 -0.4632 -0.0381 -0.2648
10392TIP3    H152667   0.480  -0.003  11.890 -0.4674 -1.0879 -0.9928
10392TIP3    H252668   0.392   0.028  11.771 -0.5899  0.7015 -0.4629
10393TIP3   OH252669   4.837   4.852  12.427  0.2771 -0.5462 -0.0181
10393TIP3    H152670   4.746   4.856  12.455  0.0375  0.1293 -0.8467
10393TIP3    H252671   4.834   4.864  12.332  1.3052  1.0795  0.1007
10394TIP3   OH252672   6.293   6.603   4.071 -0.1070 -0.8841  0.3939
10394TIP3    H152673   6.226   6.663   4.103  0.4846 -0.4028  0.7501
10394TIP3    H252674   6.276   6.598   3.976 -1.7179 -2.1496  0.7130
10395TIP3   OH252675   6.268   0.780   6.088 -0.1067 -0.5058  0.6938
10395TIP3    H152676   6.288   0.688   6.073 -2.0039 -0.8864  0.2413
10395TIP3    H252677   6.249   0.786   6.182  0.1064 -0.5562  0.7402
10396TIP3   OH252678   2.446   3.238   0.097  0.4240  0.1799  0.0252
10396TIP3    H152679   2.460   3.320   0.144  0.6581  0.0671  0.1548
10396TIP3    H252680   2.447   3.262   0.005  0.6593  0.2945  0.0593
10397TIP3   OH252681   6.412   0.271  10.903 -0.0246 -0.1369  0.0819
10397TIP3    H152682   6.403   0.366  10.912  0.4010  0.0024 -0.8426
10397TIP3    H252683   6.401   0.237  10.992  0.7654  0.8539  0.5741
10398TIP3   OH252684   1.061   5.165   2.284  0.3411 -0.5688  0.3789
10398TIP3    H152685   1.105   5.204   2.208 -0.5423 -1.7493 -0.7813
10398TIP3    H252686   0.989   5.115   2.247  1.1490 -2.9585  1.7888
10399TIP3   OH252687   2.311   4.710  13.862  0.3608  0.1716 -0.2593
10399TIP3    H152688   2.396   4.705  13.819  0.0471 -1.9780 -0.7489
10399TIP3    H252689   2.328   4.685  13.953  0.4666  1.3069  0.0542
10400TIP3   OH252690   3.543   0.109  16.793 -0.3434 -0.1998 -0.0101
10400TIP3    H152691   3.502   0.029  16.826 -2.6906  0.2301 -1.5595
10400TIP3    H252692   3.513   0.178  16.852  1.0055 -0.3036  0.8376
10401TIP3   OH252693   5.853   4.927  13.201 -0.5201 -0.1701  0.2448
10401TIP3    H152694   5.827   4.842  13.165  0.0223  0.0784 -0.7560
10401TIP3    H252695   5.881   4.978  13.125 -1.5330  1.1753  0.7452
10402TIP3   OH252696   0.253   6.743   0.388  0.1107 -0.4358  0.0802
10402TIP3    H152697   0.197   6.665   0.388  0.4598 -0.7218  1.4114
10402TIP3    H252698   0.339   6.709   0.412  0.2834  0.3544  0.5912
10403TIP3   OH252699   3.920   6.757   0.829  0.1390  0.8193 -0.9583
10403TIP3    H152700   3.850   6.711   0.782  0.1223 -2.8238  2.1623
10403TIP3    H252701   3.881   6.779   0.913  2.5148 -1.0635  0.7634
10404TIP3   OH252702   4.825   0.911  12.277  0.6107  0.4112 -0.5441
10404TIP3    H152703   4.802   0.860  12.355  0.4965  0.9866 -0.1937
10404TIP3    H252704   4.908   0.875  12.248  0.0409 -0.6537 -0.9003
10405TIP3   OH252705   4.506   0.460   2.946 -0.6054 -0.2090 -0.6269
10405TIP3    H152706   4.530   0.391   2.883  0.4128  0.0588 -0.5524
10405TIP3    H252707   4.446   0.417   3.007 -0.7627 -0.7599 -1.1567
10406TIP3   OH252708   5.498   0.743  10.795  0.4143  0.0380 -0.3262
10406TIP3    H152709   5.490   0.659  10.749  0.5461  1.0565 -2.3266
10406TIP3    H252710   5.411   0.782  10.788  0.6501  0.5530 -0.4079
10407TIP3   OH252711   6.087   1.864   5.273  0.3410 -0.0535 -0.4000
10407TIP3    H152712   6.081   1.771   5.296 -0.4209  0.3057  0.9564
10407TIP3    H252713   6.157   1.898   5.328 -0.8119  0.6040  0.6994
10408TIP3   OH252714   1.194   3.021   0.558  0.1320 -0.2490 -0.2672
10408TIP3    H152715   1.128   2.969   0.513 -1.0294  1.3577 -0.5111
10408TIP3    H252716   1.179   3.006   0.651  1.1377 -1.8898 -0.3309
10409TIP3   OH252717   4.543   6.301   4.060 -0.4611 -0.6475  0.3339
10409TIP3    H152718   4.600   6.370   4.094  0.3941 -0.9872 -0.3725
10409TIP3    H252719   4.563   6.224   4.114  0.1803 -0.9228 -0.2909
10410TIP3   OH252720   6.748   6.067  14.002 -0.6380 -0.6396 -0.3777
10410TIP3    H152721   6.796   6.100  14.078  0.7570 -0.4164 -1.3053
10410TIP3    H252722   6.656   6.082  14.023 -0.1714  2.0556  0.0808
10411TIP3   OH252723   3.863   6.647   5.747 -0.0481  0.4902 -0.6568
10411TIP3    H152724   3.863   6.662   5.652 -0.8004  0.3358 -0.6881
10411TIP3    H252725   3.953   6.663   5.773 -0.2022  2.3854 -1.1091
10412TIP3   OH252726   3.098   1.148   5.600  0.7288 -0.2548 -0.2492
10412TIP3    H152727   3.102   1.127   5.693  2.8310 -0.3699 -0.3251
10412TIP3    H252728   3.004   1.160   5.582  0.4091  3.2815  2.6281
10413TIP3   OH252729   4.359   4.705   6.583  0.2796  0.7778 -0.2175
10413TIP3    H152730   4.276   4.658   6.573  0.5858  0.5173 -1.9056
10413TIP3    H252731   4.411   4.650   6.641 -0.5912  0.7760  0.5910
10414TIP3   OH252732   5.790   1.790   1.087  0.4286  0.1816  0.2294
10414TIP3    H152733   5.719   1.846   1.116  0.4855 -0.6234  2.0750
10414TIP3    H252734   5.769   1.770   0.995 -1.2055  0.7243  0.4525
10415TIP3   OH252735   3.824   4.208  13.910 -0.3152  0.3163 -0.1545
10415TIP3    H152736   3.850   4.164  13.992  1.6103 -0.1696 -0.9569
10415TIP3    H252737   3.796   4.137  13.853 -1.1569  0.5975 -0.0910
10416TIP3   OH252738   6.399   0.989   6.174 -0.0396 -0.7454  0.3453
10416TIP3    H152739   6.378   0.975   6.266  0.2772 -1.0662  0.3654
10416TIP3    H252740   6.358   0.916   6.128  0.7465 -1.1913  0.3476
10417TIP3   OH252741   6.699   4.986  13.091  0.2896 -0.1363  0.4361
10417TIP3    H152742   6.756   4.930  13.143 -1.2616 -0.5481  1.7504
10417TIP3    H252743   6.616   4.939  13.086 -0.0572  0.5697 -1.1978
10418TIP3   OH252744   0.191   3.688   5.582  0.3734 -0.0224  0.1621
10418TIP3    H152745   0.204   3.767   5.531 -0.8475 -0.4579 -0.8827
10418TIP3    H252746   0.222   3.617   5.526 -3.4287 -0.7903 -1.2725
10419TIP3   OH252747   5.282   5.262  14.475 -0.4412 -0.2890 -0.4938
10419TIP3    H152748   5.202   5.251  14.425 -0.6884 -1.4061  0.0968
10419TIP3    H252749   5.336   5.187  14.449  0.3867  0.3946 -0.8121
10420TIP3   OH252750   2.313   4.043  16.755 -0.0523  0.6147  0.1967
10420TIP3    H152751   2.227   4.051  16.796 -0.3743  0.5086 -0.4557
10420TIP3    H252752   2.295   4.012  16.667  0.7586 -1.2748  0.6344
10421TIP3   OH252753   0.766   6.126   2.348 -0.2747 -0.2879  0.4999
10421TIP3    H152754   0.798   6.161   2.431 -0.9507  0.7657  0.3285
10421TIP3    H252755   0.756   6.032   2.365  2.0833 -0.5591  0.8007
10422TIP3   OH252756   4.446   2.079   5.640  0.4349  0.0277  0.3926
10422TIP3    H152757   4.440   2.003   5.582 -0.7159 -0.3399  0.9662
10422TIP3    H252758   4.538   2.105   5.636  1.4827 -2.9080  2.0615
10423TIP3   OH252759   4.951   4.081   4.280 -0.4914  0.8582  0.2624
10423TIP3    H152760   4.878   4.041   4.326  0.5543 -0.2054  1.0531
10423TIP3    H252761   4.972   4.159   4.332  0.2419  0.0340  1.2608
10424TIP3   OH252762   2.471   3.616   2.075  0.2556  0.3074 -0.0675
10424TIP3    H152763   2.401   3.634   2.137  0.4200  0.6251  0.0280
10424TIP3    H252764   2.537   3.569   2.127  0.2888  0.3638 -0.0585
10425TIP3   OH252765   4.752   4.191   0.920 -0.0946 -0.0205 -0.3074
10425TIP3    H152766   4.845   4.167   0.917 -0.1684 -0.7406  1.7894
10425TIP3    H252767   4.752   4.282   0.949 -0.0441 -0.5359  1.4202
10426TIP3   OH252768   3.714   3.972  15.440  0.1067 -0.4252  0.2611
10426TIP3    H152769   3.756   4.057  15.426 -0.2363 -0.2302  0.3930
10426TIP3    H252770   3.720   3.957  15.535 -0.3209 -0.2828  0.3169
10427TIP3   OH252771   0.366   4.597  12.329  0.3208  0.1552  0.6987
10427TIP3    H152772   0.395   4.548  12.252  0.5402 -0.0545  0.9124
10427TIP3    H252773   0.272   4.610  12.317  0.4079  0.3785  0.2543
10428TIP3   OH252774   2.000   4.346   4.314 -0.7445 -0.1511 -0.0899
10428TIP3    H152775   2.092   4.369   4.327 -0.6606 -0.1260 -0.6887
10428TIP3    H252776   2.000   4.291   4.236 -0.7905 -3.3395  1.9941
10429TIP3   OH252777   4.490   5.281  13.850 -0.1043  0.2711 -0.8516
10429TIP3    H152778   4.453   5.225  13.781 -0.1415  0.6158 -1.1133
10429TIP3    H252779   4.473   5.233  13.931  0.4316 -0.4060 -1.1264
10430TIP3   OH252780   1.829   0.703   0.899  0.4517  0.0713 -0.1259
10430TIP3    H152781   1.809   0.681   0.808  0.4144 -0.4962  0.0180
10430TIP3    H252782   1.924   0.697   0.905  0.6758  2.1638 -0.6503
10431TIP3   OH252783   0.849   0.785   1.272  0.0137 -0.1982  0.1037
10431TIP3    H152784   0.809   0.704   1.303  1.7821 -0.4265  1.9828
10431TIP3    H252785   0.776   0.835   1.234 -1.3687 -2.0196  0.2457
10432TIP3   OH252786   3.097   4.673   0.283 -0.6054 -0.4231  0.9646
10432TIP3    H152787   3.054   4.667   0.369 -1.2051  1.2031  0.8253
10432TIP3    H252788   3.162   4.742   0.294 -0.7633 -0.1226  0.1008
10433TIP3   OH252789   3.667   1.478   0.001  0.3883 -0.2009  0.7992
10433TIP3    H152790   3.646   1.385   0.008  0.9494 -0.4481 -0.6114
10433TIP3    H252791   3.762   1.480  -0.013  0.2239  0.5277 -0.2671
10434TIP3   OH252792   5.776   3.314   5.136  0.0781 -0.2739 -0.6912
10434TIP3    H152793   5.700   3.267   5.170 -0.0902  0.3779 -0.1496
10434TIP3    H252794   5.744   3.402   5.117  0.5661 -0.1531 -0.9866
10435TIP3   OH252795   4.446   0.929  12.129  0.7487 -0.3032  0.3942
10435TIP3    H152796   4.537   0.921  12.156  1.3016 -0.3376 -1.3031
10435TIP3    H252797   4.440   0.872  12.051 -0.6643 -0.1394  0.3557
10436TIP3   OH252798   2.113   1.590  11.038 -0.3007 -0.8588 -0.4614
10436TIP3    H152799   2.045   1.540  10.993  1.7569 -2.9806 -1.4219
10436TIP3    H252800   2.186   1.529  11.049  1.8185  1.4870 -0.2763
10437TIP3   OH252801   5.761   1.594  16.803 -0.5749  0.7241  0.0726
10437TIP3    H152802   5.780   1.520  16.746 -0.3822  0.9737 -0.1890
10437TIP3    H252803   5.698   1.647  16.754 -2.2869 -0.2959  1.0894
10438TIP3   OH252804   2.160   2.044   0.704 -0.2171 -0.2560  0.3735
10438TIP3    H152805   2.144   1.952   0.722 -2.9711 -0.2198 -1.3247
10438TIP3    H252806   2.095   2.090   0.759  0.6393  0.6437  0.6542
10439TIP3   OH252807   2.619   5.881  17.389  0.1167 -0.0528 -0.2035
10439TIP3    H152808   2.611   5.843  17.476  0.5099 -1.3300 -0.6959
10439TIP3    H252809   2.591   5.972  17.399 -1.0743 -0.5201  0.9840
10440TIP3   OH252810   4.911   5.102  13.552 -0.3332  0.0789 -0.0287
10440TIP3    H152811   4.938   5.076  13.640 -0.0629  0.6686  0.0652
10440TIP3    H252812   4.920   5.197  13.551 -4.1596  0.6437  0.6328
10441TIP3   OH252813   0.358   2.289   4.490 -0.3391  0.4881  0.7572
10441TIP3    H152814   0.315   2.374   4.497 -2.4301 -0.3391 -0.8739
10441TIP3    H252815   0.339   2.260   4.401  1.8645 -0.9191  0.6698
10442TIP3   OH252816   1.983   2.210  16.548  0.0562 -0.2403  0.7122
10442TIP3    H152817   1.973   2.115  16.550 -1.3181 -0.1621 -0.6205
10442TIP3    H252818   2.065   2.226  16.594  0.4587 -2.0943  0.7343
10443TIP3   OH252819   5.711   1.469   1.955 -0.1590 -0.8355 -0.5383
10443TIP3    H152820   5.689   1.466   2.048 -3.3149  0.0516 -1.1043
10443TIP3    H252821   5.736   1.560   1.939  1.6097 -1.2696 -0.3735
10444TIP3   OH252822   4.453   4.874  12.937  0.2458 -0.6716  0.5219
10444TIP3    H152823   4.394   4.879  12.861  0.5512 -1.4218  0.2220
10444TIP3    H252824   4.401   4.908  13.010 -0.5935 -1.3850  0.2726
10445TIP3   OH252825   3.106   4.571   1.859  0.1174 -0.7081  0.5876
10445TIP3    H152826   3.016   4.541   1.868  0.3466 -1.7598 -0.3237
10445TIP3    H252827   3.116   4.589   1.765  0.5660  0.4021  0.8304
10446TIP3   OH252828   0.721   3.479  16.113  0.2436 -0.2586 -0.0692
10446TIP3    H152829   0.723   3.526  16.030 -0.6971  0.8214  0.4909
10446TIP3    H252830   0.692   3.544  16.177  1.1742 -1.0097  1.1544
10447TIP3   OH252831   3.486   0.712   2.645 -0.2027  0.0296  0.2214
10447TIP3    H152832   3.498   0.710   2.550 -0.3495  1.4729  0.1435
10447TIP3    H252833   3.393   0.734   2.656 -0.1682 -0.0641  0.6991
10448TIP3   OH252834   3.997   5.583   0.767 -0.4935 -0.2406  0.0369
10448TIP3    H152835   4.012   5.552   0.856  0.5339  1.6290  0.5794
10448TIP3    H252836   4.044   5.521   0.711  0.3051 -0.4756  0.9372
10449TIP3   OH252837   0.923   2.596   2.509  0.3070  0.4300 -0.5307
10449TIP3    H152838   0.888   2.618   2.595 -1.0398  1.1452 -1.2248
10449TIP3    H252839   0.921   2.679   2.461  0.2496 -0.1235 -1.5047
10450TIP3   OH252840   0.034   5.838  15.112 -0.4194 -0.4882  0.2798
10450TIP3    H152841   0.104   5.774  15.099  0.1253  0.0410  0.5639
10450TIP3    H252842   0.019   5.839  15.206 -0.6673 -0.4467  0.2414
10451TIP3   OH252843   1.238   1.671  17.338  0.4529 -0.6103 -0.1218
10451TIP3    H152844   1.298   1.731  17.383  0.5977 -0.6942 -0.2042
10451TIP3    H252845   1.170   1.728  17.303  2.4161  0.0338 -3.3008
10452TIP3   OH252846   4.428   6.109   5.751 -0.4079 -1.0239  0.5210
10452TIP3    H152847   4.465   6.181   5.802 -0.3419  0.0175 -0.9166
10452TIP3    H252848   4.369   6.064   5.811 -0.7057  0.4480  1.3750
10453TIP3   OH252849   1.946   5.395   3.542  0.2493  0.5272  0.3753
10453TIP3    H152850   1.884   5.324   3.522  1.4036  0.0031 -1.6065
10453TIP3    H252851   1.891   5.473   3.549 -0.8785 -0.2978  1.0753
10454TIP3   OH252852   0.059   3.374  13.372  0.0370 -0.0349 -0.1779
10454TIP3    H152853   0.096   3.322  13.443 -1.7865 -0.4706  0.5042
10454TIP3    H252854   0.115   3.355  13.296  1.9799  0.3967  1.0823
10455TIP3   OH252855   5.564   2.500   4.108  0.1309 -0.3386  0.0878
10455TIP3    H152856   5.484   2.528   4.152  0.4888 -2.3542  2.2270
10455TIP3    H252857   5.587   2.417   4.151  3.0920 -0.0926 -0.8089
10456TIP3   OH252858   4.735   5.376   3.405 -0.1104 -0.0786 -0.2411
10456TIP3    H152859   4.808   5.331   3.447  0.8288  1.7467  0.1722
10456TIP3    H252860   4.670   5.386   3.475 -1.1824 -2.3954 -0.7936
10457TIP3   OH252861   1.033   1.448   1.207 -0.2437 -0.7630  0.1352
10457TIP3    H152862   1.036   1.386   1.134 -0.9336 -1.0965  0.3843
10457TIP3    H252863   1.003   1.530   1.167  0.9142 -0.5051 -0.2413
10458TIP3   OH252864   6.482   3.252   4.834 -0.1768 -0.3951 -0.0667
10458TIP3    H152865   6.419   3.287   4.770 -0.6956  0.9989  1.1456
10458TIP3    H252866   6.428   3.221   4.906  0.4256 -1.5638 -0.1082
10459TIP3   OH252867   0.554   5.786   2.768 -0.1912 -0.5916 -0.4016
10459TIP3    H152868   0.552   5.744   2.854  1.7301 -2.1788 -1.0375
10459TIP3    H252869   0.494   5.733   2.714 -3.0725  1.6494  0.3418
10460TIP3   OH252870   2.852   5.328   0.005 -0.0765 -0.4023  0.4670
10460TIP3    H152871   2.820   5.264   0.068  0.8462 -1.4828 -0.1268
10460TIP3    H252872   2.777   5.344  -0.053 -0.1493 -1.3982  0.2720
10461TIP3   OH252873   4.786   5.695   5.879  0.0143  0.2212 -0.1009
10461TIP3    H152874   4.790   5.781   5.921  0.6159  0.2627 -0.2443
10461TIP3    H252875   4.698   5.663   5.900  0.3655  0.1398  1.4147
10462TIP3   OH252876   5.911   2.727  15.808  0.1913  0.2222 -0.1415
10462TIP3    H152877   5.898   2.638  15.776 -0.8324  0.6329 -0.9258
10462TIP3    H252878   5.842   2.778  15.766  0.2232  1.2275  0.9639
10463TIP3   OH252879   4.157   2.667  12.230 -0.1375 -0.3110 -0.4890
10463TIP3    H152880   4.234   2.698  12.279 -0.8909 -0.9594  1.1763
10463TIP3    H252881   4.188   2.589  12.185  0.4582  0.0565 -0.7391
10464TIP3   OH252882   0.441   0.606  15.340  0.3132 -0.1035  0.2705
10464TIP3    H152883   0.534   0.582  15.338 -0.2594 -2.6328  0.3363
10464TIP3    H252884   0.440   0.700  15.322  2.7926 -0.2449 -1.0612
10465TIP3   OH252885   4.990   1.267   0.461 -0.4677  0.0732 -0.8330
10465TIP3    H152886   4.902   1.232   0.448 -1.1749  1.7795 -0.9010
10465TIP3    H252887   5.047   1.207   0.413 -1.5308 -1.2888 -0.4501
10466TIP3   OH252888   3.649   0.056  17.253  0.8009 -0.5909 -0.1453
10466TIP3    H152889   3.730   0.065  17.203  0.2411 -1.6807 -1.3281
10466TIP3    H252890   3.652  -0.034  17.286  0.4329 -0.3845  0.4601
10467TIP3   OH252891   1.652   5.772   1.070 -0.5906  0.7942 -0.1593
10467TIP3    H152892   1.575   5.783   1.014 -0.1397  1.7796 -0.6036
10467TIP3    H252893   1.616   5.754   1.157 -1.3770  2.6372 -0.0646
10468TIP3   OH252894   3.346   4.854  15.260  0.2269  0.1138 -0.1806
10468TIP3    H152895   3.344   4.935  15.310 -1.8233  0.6918 -1.1040
10468TIP3    H252896   3.415   4.802  15.301  0.3621  1.5897  1.5614
10469TIP3   OH252897   1.649   1.527  11.599  0.1009  0.4173 -0.6904
10469TIP3    H152898   1.723   1.493  11.549 -0.0927 -0.2181 -0.5679
10469TIP3    H252899   1.647   1.472  11.678  0.3806  1.3836 -0.0031
10470TIP3   OH252900   0.988   1.474  16.390  0.4388 -0.0023 -0.0974
10470TIP3    H152901   0.941   1.394  16.369  1.3410 -0.7018  0.4917
10470TIP3    H252902   0.943   1.542  16.340 -1.0455 -0.6715  0.2659
10471TIP3   OH252903   5.753   4.157   5.502 -0.4639  0.4211  0.0849
10471TIP3    H152904   5.842   4.150   5.537 -0.6184  0.5622  0.5113
10471TIP3    H252905   5.698   4.119   5.570 -0.7894  0.9011  0.0902
10472TIP3   OH252906   2.016   3.962  13.008  0.3580  0.5710 -0.4419
10472TIP3    H152907   2.057   3.966  13.095  2.2313 -0.6835 -1.2168
10472TIP3    H252908   1.923   3.949  13.027  0.8496 -0.7089  1.3864
10473TIP3   OH252909   1.115   6.717   2.311  0.1420 -0.4719 -0.3236
10473TIP3    H152910   1.187   6.712   2.249  0.3557 -1.8556 -0.0027
10473TIP3    H252911   1.158   6.723   2.397 -0.1105 -1.1670 -0.1400
10474TIP3   OH252912   5.844   3.195  12.844 -0.0460  0.0520  0.0397
10474TIP3    H152913   5.767   3.252  12.839  1.7480  2.6552  0.0763
10474TIP3    H252914   5.866   3.193  12.937 -2.5136 -4.4674  0.8423
10475TIP3   OH252915   1.910   4.186  11.967 -0.6044  0.2856  0.1415
10475TIP3    H152916   1.974   4.204  12.036 -0.3262 -0.7647  0.1737
10475TIP3    H252917   1.852   4.262  11.968 -0.2259  0.5776  1.1082
10476TIP3   OH252918   1.303   0.297   1.966  0.1818  0.3517 -0.7493
10476TIP3    H152919   1.395   0.270   1.972  0.4717  1.5982  1.0073
10476TIP3    H252920   1.307   0.385   1.928 -0.1206  1.1087  0.9000
10477TIP3   OH252921   3.938   5.670  11.116  0.4451 -0.0849 -0.3766
10477TIP3    H152922   3.868   5.693  11.055  1.6600  0.9077 -1.4390
10477TIP3    H252923   4.009   5.638  11.061  0.6047 -1.7702  0.7316
10478TIP3   OH252924   3.873   5.354  11.571 -0.4165  0.4291 -0.1257
10478TIP3    H152925   3.941   5.298  11.535 -0.6753 -0.2361  0.3980
10478TIP3    H252926   3.860   5.422  11.505  0.8094  0.6164 -0.1850
10479TIP3   OH252927   0.993   4.409  10.629 -0.0945  0.3325 -0.4313
10479TIP3    H152928   1.072   4.462  10.637  1.2445 -1.7210  0.9437
10479TIP3    H252929   0.923   4.465  10.662  1.2128  1.3332  0.7505
10480TIP3   OH252930   0.779   6.067  10.693 -0.0430 -0.1880  0.7189
10480TIP3    H152931   0.798   5.988  10.643 -0.0400  0.5464 -0.4562
10480TIP3    H252932   0.851   6.126  10.673 -1.0407  0.8263  0.0402
10481TIP3   OH252933   1.951   2.262   2.738  0.0232 -0.1050 -0.0379
10481TIP3    H152934   1.945   2.167   2.729  1.2496 -0.0914 -1.3966
10481TIP3    H252935   1.865   2.289   2.769  0.0083 -1.7540  1.5122
10482TIP3   OH252936   2.166   1.587   3.421  0.3151  0.0190 -0.3256
10482TIP3    H152937   2.131   1.653   3.362  0.4275 -1.5210 -2.2017
10482TIP3    H252938   2.093   1.566   3.480  0.3760  1.9705  0.5264
10483TIP3   OH252939   2.934   0.156  12.727 -0.4147  0.4519 -0.1668
10483TIP3    H152940   2.956   0.194  12.812 -0.3727  1.3443 -0.5642
10483TIP3    H252941   2.856   0.204  12.699 -1.5332 -1.1088  0.1931
10484TIP3   OH252942   1.425   2.488   0.303  0.3614  0.0730  0.1155
10484TIP3    H152943   1.444   2.537   0.383 -0.6965  1.1007 -0.2397
10484TIP3    H252944   1.495   2.512   0.243  0.8247 -0.2354  0.5245
10485TIP3   OH252945   1.867   2.156   2.266 -0.0423  0.2255 -0.3658
10485TIP3    H152946   1.835   2.243   2.291 -0.6815  0.3623 -1.6134
10485TIP3    H252947   1.950   2.147   2.313 -0.5570  1.0016  0.7386
10486TIP3   OH252948   4.841   4.869  15.471 -0.2526  0.2577  0.1969
10486TIP3    H152949   4.756   4.895  15.506 -0.8993  1.5277 -2.0983
10486TIP3    H252950   4.822   4.790  15.420  0.6714 -1.5568  2.4456
10487TIP3   OH252951   1.162   0.100   5.772  0.3500 -0.4233  0.4873
10487TIP3    H152952   1.135   0.036   5.837  0.6814 -0.3459  0.7058
10487TIP3    H252953   1.116   0.180   5.795 -1.3727 -0.9916 -0.7629
10488TIP3   OH252954   4.025   4.702  12.280  0.4413  0.0358  0.1581
10488TIP3    H152955   3.968   4.758  12.228  1.1257  0.1287 -0.4994
10488TIP3    H252956   3.964   4.643  12.326 -0.1627 -0.1607 -0.8624
10489TIP3   OH252957   2.014   0.097  14.057 -0.2496  0.1798  0.2501
10489TIP3    H152958   2.013   0.118  14.150  0.5996 -0.2906  0.3787
10489TIP3    H252959   2.097   0.133  14.024 -0.8729  0.9686 -0.4803
10490TIP3   OH252960   2.383   5.481  12.872 -0.4637  0.1250  0.0932
10490TIP3    H152961   2.442   5.487  12.948 -0.2342 -0.5836 -0.0227
10490TIP3    H252962   2.304   5.440  12.906 -0.8449  0.9401  0.2145
10491TIP3   OH252963   4.553   5.206  14.839  0.3808 -1.2702  0.0332
10491TIP3    H152964   4.478   5.257  14.810  1.5824  0.1384 -0.7800
10491TIP3    H252965   4.578   5.245  14.923  2.2468  0.6583 -1.3095
10492TIP3   OH252966   2.106   0.446   5.555 -0.2987 -0.8217 -0.5952
10492TIP3    H152967   2.089   0.507   5.627  0.8013 -1.6645  0.4056
10492TIP3    H252968   2.025   0.447   5.505 -0.7283  0.5710  0.0549
10493TIP3   OH252969   4.025   6.485  16.406 -0.2857 -0.4295  0.5457
10493TIP3    H152970   4.085   6.493  16.333 -1.7784  0.7635 -0.6260
10493TIP3    H252971   3.985   6.399  16.396 -1.2082  0.1086 -0.6845
10494TIP3   OH252972   0.622   1.669  14.644 -0.5905  0.0983  0.7160
10494TIP3    H152973   0.688   1.706  14.703 -1.1834  1.3869  0.5895
10494TIP3    H252974   0.538   1.698  14.679 -1.0891 -1.0560  0.5501
10495TIP3   OH252975   1.394   6.666  13.424 -0.0359  0.2824 -0.3542
10495TIP3    H152976   1.388   6.689  13.517 -0.8689  0.9565 -0.5575
10495TIP3    H252977   1.448   6.735  13.386  0.1780  0.0920 -0.3913
10496TIP3   OH252978   0.055   4.484  16.344 -0.3212 -0.0875  0.3132
10496TIP3    H152979  -0.005   4.411  16.362 -0.4697  0.0020  0.1840
10496TIP3    H252980   0.140   4.441  16.329 -0.2420 -0.1798  0.9804
10497TIP3   OH252981   5.227   5.530   2.479  0.2438  0.0729 -0.2575
10497TIP3    H152982   5.301   5.554   2.535 -0.7940  0.7280  0.8809
10497TIP3    H252983   5.223   5.434   2.485  0.7618  0.0626 -0.0175
10498TIP3   OH252984   6.339   2.222   2.251 -0.4866 -0.0547  0.1704
10498TIP3    H152985   6.298   2.147   2.208  0.3690 -0.6590  0.3853
10498TIP3    H252986   6.267   2.266   2.296 -0.6785 -2.1230  2.0625
10499TIP3   OH252987   6.735   4.446  11.555 -0.0155 -0.2214  0.1283
10499TIP3    H152988   6.793   4.518  11.580 -1.3586  0.3136  1.8469
10499TIP3    H252989   6.647   4.482  11.561 -0.6375 -1.5044 -0.7592
10500TIP3   OH252990   1.441   0.401   1.656 -0.3392  0.5324 -0.3504
10500TIP3    H152991   1.469   0.333   1.595 -0.8159  1.0565 -1.1742
10500TIP3    H252992   1.507   0.469   1.648 -2.0779  2.1385 -2.9059
10501TIP3   OH252993   6.451   0.081  13.359 -0.0815  0.1929  0.2045
10501TIP3    H152994   6.537   0.059  13.323  0.0367 -0.1543  0.6973
10501TIP3    H252995   6.402   0.115  13.284  0.1389 -0.5944 -0.3086
10502TIP3   OH252996   5.000   4.820  15.696 -0.4424 -0.5446 -0.1224
10502TIP3    H152997   4.940   4.853  15.630 -1.4904 -0.5666  0.7843
10502TIP3    H252998   5.088   4.840  15.662 -0.9868  1.2457 -0.5920
10503TIP3   OH252999   4.633   2.755   1.191 -0.3477 -0.5366  0.3556
10503TIP3    H153000   4.615   2.740   1.097  1.5823  0.4502 -0.2079
10503TIP3    H253001   4.724   2.784   1.194 -0.4065 -0.4348  2.5583
10504TIP3   OH253002   4.812   1.742  16.860  0.0706  0.1101  0.4195
10504TIP3    H153003   4.851   1.817  16.904 -2.0901  1.4194  0.2318
10504TIP3    H253004   4.864   1.730  16.780 -0.6375  2.6340 -0.4966
10505TIP3   OH253005   0.845   3.396   2.703  0.0188 -0.3994 -0.2935
10505TIP3    H153006   0.803   3.328   2.651 -1.5531 -0.6606  1.2042
10505TIP3    H253007   0.898   3.348   2.768  0.9999 -0.1089 -0.8528
10506TIP3   OH253008   3.923   2.819  14.772  0.6393 -0.6606  0.0976
10506TIP3    H153009   3.961   2.781  14.852 -0.7949 -2.5143 -0.0469
10506TIP3    H253010   3.862   2.885  14.803  2.1302  0.6397  0.3990
10507TIP3   OH253011   5.344   3.538  13.162  0.5973 -0.1995  0.5385
10507TIP3    H153012   5.320   3.563  13.251  0.6883  0.5648  0.3484
10507TIP3    H253013   5.364   3.444  13.169 -0.1794 -0.3274  1.1551
10508TIP3   OH253014   1.089   0.257   3.232 -0.0013 -0.4229  0.1975
10508TIP3    H153015   1.149   0.242   3.305 -0.0305 -0.0448  0.3053
10508TIP3    H253016   1.091   0.352   3.218  0.8020 -0.5970 -0.9923
10509TIP3   OH253017   1.648   1.211   4.335  0.4984 -0.9078 -0.0167
10509TIP3    H153018   1.649   1.119   4.359  2.1506 -1.0269 -0.4837
10509TIP3    H253019   1.739   1.239   4.338  0.0726  0.6371 -0.2079
10510TIP3   OH253020   2.780   5.719   1.831  1.1107  0.1747  0.9715
10510TIP3    H153021   2.759   5.784   1.765  2.0967 -1.3509 -0.9720
10510TIP3    H253022   2.701   5.710   1.884  0.2360  1.3387 -0.1047
10511TIP3   OH253023   6.474   2.220   6.344 -0.1736 -0.0919  0.0233
10511TIP3    H153024   6.479   2.168   6.264  0.1026 -0.1704  0.0904
10511TIP3    H253025   6.389   2.264   6.339 -0.3077 -0.3669 -0.1469
10512TIP3   OH253026   4.051   1.775   0.842 -0.1598 -0.0225  0.1024
10512TIP3    H153027   4.005   1.819   0.913 -1.3338  0.0483 -0.6662
10512TIP3    H253028   4.120   1.836   0.816 -1.1394  0.9429 -0.2896
10513TIP3   OH253029   1.279   5.801  17.297 -0.4632  0.1991  0.6549
10513TIP3    H153030   1.275   5.888  17.258  1.6837 -0.2906 -0.8105
10513TIP3    H253031   1.228   5.746  17.239 -0.8576  0.2634  0.9388
10514TIP3   OH253032   5.956   6.087   5.700 -0.6575 -0.9704 -0.7140
10514TIP3    H153033   5.934   6.177   5.725  1.4137 -0.2900 -1.1560
10514TIP3    H253034   5.952   6.086   5.605  2.6178 -0.3177 -0.9656
10515TIP3   OH253035   3.093   5.962  14.854 -0.3484  0.1568 -0.0818
10515TIP3    H153036   3.084   5.884  14.907  0.5177  0.6074  0.7541
10515TIP3    H253037   3.003   5.993  14.841 -0.6031 -0.2591  0.6672
10516TIP3   OH253038   4.567   5.915   1.107 -0.1003 -0.1959  0.0569
10516TIP3    H153039   4.532   5.925   1.018 -1.9503 -0.7878  0.6611
10516TIP3    H253040   4.528   5.833   1.138 -0.6943  0.7368  1.9171
10517TIP3   OH253041   2.265   3.594   6.273  0.2774 -0.3470 -0.3613
10517TIP3    H153042   2.297   3.542   6.199  1.3309  0.5034 -0.5353
10517TIP3    H253043   2.255   3.531   6.344  0.5196 -0.9608 -0.8578
10518TIP3   OH253044   0.983   0.964   0.075 -0.7506 -0.9865  0.6154
10518TIP3    H153045   1.013   0.878   0.044  0.4262 -0.5214  0.3951
10518TIP3    H253046   1.034   1.027   0.023 -3.2311 -0.0757 -0.9111
10519TIP3   OH253047   5.445   6.437  15.426  0.2548  0.4547  0.1643
10519TIP3    H153048   5.444   6.489  15.346 -0.9264  0.3587  0.1021
10519TIP3    H253049   5.385   6.483  15.485 -0.0250 -0.2977  0.4666
10520TIP3   OH253050   3.864   4.883   3.597  0.5822  0.0560  1.0950
10520TIP3    H153051   3.939   4.892   3.539 -0.7605  2.4129 -0.4237
10520TIP3    H253052   3.878   4.948   3.665  0.0288  0.3759  0.9090
10521TIP3   OH253053   5.996   1.364  14.105 -0.1019 -0.3226 -0.7375
10521TIP3    H153054   5.931   1.318  14.053 -0.8717 -0.4887  0.3259
10521TIP3    H253055   6.078   1.318  14.088 -0.4838 -0.8390 -1.2077
10522TIP3   OH253056   2.797   6.432   1.622 -0.1784 -0.5024 -0.6387
10522TIP3    H153057   2.705   6.455   1.628 -0.2195 -0.8942  0.5728
10522TIP3    H253058   2.812   6.374   1.697  1.8878  2.5056  1.5004
10523TIP3   OH253059   5.146   6.136   1.295  0.0675  0.6788  0.5303
10523TIP3    H153060   5.131   6.143   1.389  0.2011 -1.4498  0.7445
10523TIP3    H253061   5.238   6.161   1.283  0.8208 -1.4978  1.3505
10524TIP3   OH253062   4.848   3.152  16.975  0.8411  0.1437  0.5591
10524TIP3    H153063   4.784   3.089  17.008 -0.1900  1.2472  0.7076
10524TIP3    H253064   4.846   3.224  17.039  2.3540  0.1322  0.6547
10525TIP3   OH253065   2.293   1.939  13.489  0.2833  0.0568  0.1205
10525TIP3    H153066   2.375   1.906  13.528  2.2957 -0.9895 -4.3410
10525TIP3    H253067   2.237   1.862  13.482 -0.2970  0.3548  1.3417
10526TIP3   OH253068   1.964   5.856   5.855  0.0388  0.3746  0.5218
10526TIP3    H153069   1.898   5.828   5.918 -0.2036 -1.5289 -0.4840
10526TIP3    H253070   2.000   5.774   5.820  1.7040  1.3590 -0.2261
10527TIP3   OH253071   3.129   6.754   2.501 -0.6361 -0.1397  0.0775
10527TIP3    H153072   3.073   6.819   2.542  0.4596  0.3031  0.9214
10527TIP3    H253073   3.212   6.800   2.487 -0.3701 -0.8719 -0.8398
10528TIP3   OH253074   5.586   5.704  15.526  0.8597  0.5206 -0.0430
10528TIP3    H153075   5.610   5.746  15.444  0.2643 -0.9620 -1.0324
10528TIP3    H253076   5.494   5.679  15.514  0.7914  0.2093  1.0357
10529TIP3   OH253077   5.235   5.776  17.418 -0.9138  0.2415 -0.2383
10529TIP3    H153078   5.225   5.869  17.437 -0.1161  0.1482  0.7187
10529TIP3    H253079   5.194   5.764  17.332 -0.1915  1.6405 -0.8026
10530TIP3   OH253080   2.445   4.523   6.180 -0.2474  0.8647  0.3649
10530TIP3    H153081   2.539   4.533   6.161 -0.5355  0.5280 -1.4411
10530TIP3    H253082   2.412   4.613   6.183 -0.1308  0.9595 -0.6541
10531TIP3   OH253083   1.611   2.755   1.032  0.1346 -0.2289  0.3211
10531TIP3    H153084   1.648   2.842   1.043 -1.0300  0.1110  1.9212
10531TIP3    H253085   1.632   2.709   1.114 -0.0278 -1.1620 -0.1391
10532TIP3   OH253086   5.615   5.430   4.010  0.2393 -0.9204  0.2971
10532TIP3    H153087   5.706   5.445   4.035  0.1115  0.5626 -0.0057
10532TIP3    H253088   5.576   5.386   4.085  0.8577 -0.2040  1.0586
10533TIP3   OH253089   2.339   5.798   2.073  0.4558  0.1152 -0.8681
10533TIP3    H153090   2.262   5.743   2.083 -0.4012  1.2666 -1.0264
10533TIP3    H253091   2.413   5.738   2.089 -0.4516 -0.9756 -0.6311
10534TIP3   OH253092   0.547   3.019  15.664 -0.7572 -0.9409  0.3124
10534TIP3    H153093   0.589   3.007  15.579  0.8472 -1.1761  1.1008
10534TIP3    H253094   0.507   2.934  15.683  0.1017 -1.3282  0.4207
10535TIP3   OH253095   2.482   0.875  15.049  1.0131  0.5259  0.2934
10535TIP3    H153096   2.438   0.790  15.051 -0.0469  1.0665  0.7202
10535TIP3    H253097   2.549   0.870  15.117  0.5931  0.2287  0.6826
10536TIP3   OH253098   4.919   1.411   4.564  0.1126 -0.1439  0.1506
10536TIP3    H153099   4.987   1.414   4.498 -0.7595 -1.1832 -0.8396
10536TIP3    H253100   4.914   1.500   4.598  2.9321 -0.3316  1.3068
10537TIP3   OH253101   6.660   5.182  14.258  0.2307  0.5381  0.1811
10537TIP3    H153102   6.720   5.141  14.320 -0.1858 -0.3832 -0.0098
10537TIP3    H253103   6.693   5.155  14.172 -1.1043 -0.9464  0.0985
10538TIP3   OH253104   1.036   5.697  15.410  1.2054  0.1840  0.0172
10538TIP3    H153105   1.074   5.734  15.331 -0.1229 -1.0707 -1.2577
10538TIP3    H253106   1.055   5.603  15.404  2.1360  0.2085  1.8218
10539TIP3   OH253107   0.251   2.761   5.540  0.6685  0.2490 -1.0481
10539TIP3    H153108   0.250   2.856   5.543 -0.1906  0.2201  0.6130
10539TIP3    H253109   0.335   2.736   5.580  0.0238  0.2930  0.3646
10540TIP3   OH253110   0.530   0.906   4.362 -0.5065  0.0499 -0.2046
10540TIP3    H153111   0.518   0.980   4.303  0.4211 -0.1686 -0.6865
10540TIP3    H253112   0.623   0.885   4.356 -0.3334  0.1962  1.5377
10541TIP3   OH253113   1.959   2.352   3.134  0.1143 -0.0919  0.2652
10541TIP3    H153114   1.942   2.284   3.070  1.8783  0.8222 -1.3023
10541TIP3    H253115   1.947   2.434   3.086  0.6981  0.6431  1.3166
10542TIP3   OH253116   1.397   6.104  13.441  0.3065  0.0078  0.3523
10542TIP3    H153117   1.336   6.048  13.393  0.5272 -0.3141  0.4497
10542TIP3    H253118   1.457   6.137  13.374 -1.4161  2.3063 -0.2113
10543TIP3   OH253119   5.416   0.018  12.720 -0.2533  0.5011  0.8008
10543TIP3    H153120   5.371   0.099  12.745 -1.3594  0.2029 -0.1300
10543TIP3    H253121   5.461   0.039  12.639  0.3349  0.4644  1.1116
10544TIP3   OH253122   5.694   1.193   5.101 -0.1515 -0.6900  0.2944
10544TIP3    H153123   5.750   1.155   5.033 -0.7699 -1.3054  0.1040
10544TIP3    H253124   5.754   1.232   5.164  0.4453 -0.4220 -0.4277
10545TIP3   OH253125   1.011   1.856   6.310  0.3994  0.0475 -0.0427
10545TIP3    H153126   1.024   1.927   6.373 -0.3712  0.3429 -0.2074
10545TIP3    H253127   0.977   1.784   6.362  0.1352  0.1631 -0.0546
10546TIP3   OH253128   2.460   2.614   4.598 -0.4286 -0.1613 -0.4573
10546TIP3    H153129   2.377   2.580   4.564 -0.8078  0.4348 -0.1461
10546TIP3    H253130   2.489   2.677   4.531  0.5775 -1.5082 -1.3271
10547TIP3   OH253131   4.922   2.643   0.404  0.7815 -0.7302  0.4463
10547TIP3    H153132   4.987   2.681   0.346  1.2607 -0.4564  1.1407
10547TIP3    H253133   4.838   2.673   0.370  1.1024  0.1729  0.4212
10548TIP3   OH253134   0.543   5.187   2.219 -0.0470  0.5059  0.2799
10548TIP3    H153135   0.476   5.226   2.276 -0.4131 -0.5273  0.5658
10548TIP3    H253136   0.624   5.232   2.244 -0.1661 -0.0419  1.7573
10549TIP3   OH253137   0.737   4.769   2.249  0.0323  0.5112 -0.0664
10549TIP3    H153138   0.728   4.729   2.336 -1.0287 -0.1246 -0.4530
10549TIP3    H253139   0.797   4.711   2.202  0.4557  0.7505  0.1712
10550TIP3   OH253140   3.993   0.673  13.694  0.1793 -0.5768 -0.0979
10550TIP3    H153141   3.995   0.650  13.786  0.6485  0.7619  0.2586
10550TIP3    H253142   3.935   0.749  13.690  0.5201 -0.3425 -0.8209
10551TIP3   OH253143   4.184   3.833   1.414 -0.5615  0.0331 -0.2460
10551TIP3    H153144   4.273   3.860   1.436  0.9644 -1.9006 -3.3809
10551TIP3    H253145   4.165   3.763   1.477 -0.3336  1.1306  1.0964
10552TIP3   OH253146   0.067   5.767  13.460 -0.4146  0.3322  0.6169
10552TIP3    H153147   0.038   5.718  13.537 -1.6734  2.3561  1.5079
10552TIP3    H253148  -0.005   5.757  13.397  0.7961 -1.6853 -0.5672
10553TIP3   OH253149   2.031   3.162  13.247  0.1804 -0.4010  0.0928
10553TIP3    H153150   1.995   3.121  13.325  0.0449 -0.8709 -0.2142
10553TIP3    H253151   2.118   3.193  13.274  1.1496 -2.6657 -0.1729
10554TIP3   OH253152   0.145   4.039  15.273  0.4041 -0.0724  0.6418
10554TIP3    H153153   0.072   4.100  15.285 -1.7451 -2.3875  0.2657
10554TIP3    H253154   0.173   4.053  15.183 -1.8494 -1.3141 -0.3474
10555TIP3   OH253155   6.050   6.495   4.428  0.3528  0.2363  0.3558
10555TIP3    H153156   6.042   6.412   4.380 -2.4028  1.0324 -0.7153
10555TIP3    H253157   6.031   6.472   4.519  0.1224 -0.4088  0.1501
10556TIP3   OH253158   0.883   0.104  13.857 -0.2556  0.2043 -0.6244
10556TIP3    H153159   0.794   0.116  13.824 -0.0505  0.0839 -1.2519
10556TIP3    H253160   0.873   0.090  13.951 -0.8418  0.8379 -0.5875
10557TIP3   OH253161   6.592   6.259   3.686  0.3142 -0.5961 -0.0968
10557TIP3    H153162   6.561   6.172   3.661 -0.7822 -0.1035 -0.5349
10557TIP3    H253163   6.561   6.272   3.775 -1.5552  0.2219 -0.8161
10558TIP3   OH253164   0.990   0.020  12.818 -0.4775  0.1857  0.2721
10558TIP3    H153165   0.980   0.100  12.870 -1.9234  0.5203 -0.4896
10558TIP3    H253166   1.067   0.037  12.764 -1.8144  1.8867 -1.2406
10559TIP3   OH253167   2.013   4.319   3.656 -0.1034  0.9112  0.4675
10559TIP3    H153168   2.101   4.348   3.678  0.4322 -1.0117  1.0660
10559TIP3    H253169   2.004   4.233   3.697 -2.3358  1.1207  0.5840
10560TIP3   OH253170   2.303   0.891  14.476  0.3735  0.4293  0.0584
10560TIP3    H153171   2.210   0.909  14.463  0.3591 -0.8007 -1.9342
10560TIP3    H253172   2.348   0.955  14.421  0.7809  1.4663  1.5364
10561TIP3   OH253173   3.570   0.068   0.494 -0.2135 -0.7137  0.0653
10561TIP3    H153174   3.644   0.125   0.513 -0.9839  0.0231  0.9428
10561TIP3    H253175   3.579   0.047   0.401  0.4977  0.2344 -0.0910
10562TIP3   OH253176   1.534   5.936   1.355 -0.6727 -0.4849  0.1833
10562TIP3    H153177   1.521   5.965   1.264 -3.1499 -0.8683  0.3711
10562TIP3    H253178   1.581   5.853   1.347  0.6353  0.2993 -0.6399
10563TIP3   OH253179   6.387   0.434   2.648  0.2367 -0.2243  0.2714
10563TIP3    H153180   6.328   0.455   2.575 -0.4494  1.0659  1.1630
10563TIP3    H253181   6.331   0.433   2.725  1.2733  0.4442  1.0639
10564TIP3   OH253182   3.131   5.077   1.013 -0.2352 -0.1008  0.0706
10564TIP3    H153183   3.053   5.091   1.067  0.1014 -2.5166  1.3381
10564TIP3    H253184   3.183   5.155   1.026 -1.2090  0.3670  1.4548
10565TIP3   OH253185   0.423   4.628  14.492 -0.3261 -0.5714 -0.4645
10565TIP3    H153186   0.362   4.567  14.450  0.0091 -0.7017 -0.7749
10565TIP3    H253187   0.509   4.587  14.480 -0.1450 -0.2385 -0.3087
10566TIP3   OH253188   6.232   2.207   4.070  0.2245  0.2194  0.3200
10566TIP3    H153189   6.263   2.265   4.139 -0.9812  0.7973  0.4048
10566TIP3    H253190   6.293   2.219   3.998  0.1857  1.3498  0.4642
10567TIP3   OH253191   5.905   4.957   4.819  0.5398  0.0354  0.3382
10567TIP3    H153192   5.986   5.006   4.806  0.5171  0.2196  0.8836
10567TIP3    H253193   5.911   4.884   4.757  1.1188  0.0517  0.3699
10568TIP3   OH253194   3.372   4.284  12.365 -0.1316  0.0191  0.1400
10568TIP3    H153195   3.410   4.366  12.397 -1.7724  0.4635  1.0664
10568TIP3    H253196   3.360   4.297  12.271  1.9054 -0.1308 -0.1791
10569TIP3   OH253197   2.601   2.590  10.703 -0.4463 -0.0782 -0.0135
10569TIP3    H153198   2.575   2.544  10.623 -0.3007  0.7414 -0.5450
10569TIP3    H253199   2.662   2.531  10.746  0.5178  0.0187 -1.1918
10570TIP3   OH253200   2.090   2.916   2.213  0.4426 -0.3391 -0.1157
10570TIP3    H153201   2.059   3.006   2.209  0.7938 -0.1919  0.3805
10570TIP3    H253202   2.173   2.921   2.261  0.1067 -1.0147  0.5634
10571TIP3   OH253203   5.046   1.828   2.933  0.0905  0.0307  0.7355
10571TIP3    H153204   5.015   1.771   2.863  3.5875  1.5889 -2.3867
10571TIP3    H253205   5.095   1.770   2.991 -0.7227 -0.8802  0.5409
10572TIP3   OH253206   3.821   2.911  13.816 -0.4783 -0.3338  0.2794
10572TIP3    H153207   3.740   2.902  13.865  0.1867  0.6809  1.6315
10572TIP3    H253208   3.800   2.974  13.747 -0.8227  0.0046  0.6860
10573TIP3   OH253209   4.998   2.398   1.211 -0.0278  0.2323  0.1994
10573TIP3    H153210   5.093   2.408   1.208 -0.0682  0.5607 -0.0986
10573TIP3    H253211   4.975   2.357   1.127  0.0030 -1.2514  0.8994
10574TIP3   OH253212   5.603   3.837   3.866 -0.8287 -0.4928  0.1107
10574TIP3    H153213   5.666   3.878   3.807 -1.8592 -0.0323 -0.7112
10574TIP3    H253214   5.598   3.746   3.836 -2.0432 -0.0346 -1.1554
10575TIP3   OH253215   4.682   0.694   2.016  0.0136  0.1086  0.0695
10575TIP3    H153216   4.630   0.636   2.072 -0.7861  0.7928  0.0672
10575TIP3    H253217   4.620   0.762   1.989  0.4679 -0.0407 -1.4113
10576TIP3   OH253218   2.447   3.946  17.296  0.3426 -0.4190  0.3162
10576TIP3    H153219   2.400   3.998  17.231  0.7311 -0.6737 -0.1669
10576TIP3    H253220   2.512   4.005  17.332 -0.3002 -0.0785  0.9533
10577TIP3   OH253221   5.333   0.892   0.974  0.4895  0.5338  0.4734
10577TIP3    H153222   5.332   0.830   1.047 -0.5092  0.0095  0.0269
10577TIP3    H253223   5.245   0.886   0.936  0.5636  1.8046  0.0675
10578TIP3   OH253224   3.634   2.810  16.673  0.0635  0.1029 -0.4103
10578TIP3    H153225   3.589   2.725  16.672 -0.1006  0.1913 -0.7689
10578TIP3    H253226   3.710   2.798  16.616 -0.5342  0.4961 -1.3149
10579TIP3   OH253227   5.125   4.196   2.311 -0.6560  0.5919 -0.4728
10579TIP3    H153228   5.050   4.141   2.333 -0.3647  0.6948  0.8627
10579TIP3    H253229   5.184   4.186   2.385  0.7009  0.4469 -1.5279
10580TIP3   OH253230   2.847   2.071  13.296  0.6688 -0.4370  0.5922
10580TIP3    H153231   2.832   1.978  13.279  1.9848 -0.4759 -0.6005
10580TIP3    H253232   2.760   2.110  13.296  0.1379 -1.5948  0.5539
10581TIP3   OH253233   1.038   2.747   0.565 -0.2194  0.4085  0.0911
10581TIP3    H153234   1.127   2.752   0.529 -0.2524 -0.7595 -0.2029
10581TIP3    H253235   0.987   2.809   0.513  0.5909  1.7358  0.8299
10582TIP3   OH253236   3.892   0.251  13.369  0.1881  0.5626 -0.5156
10582TIP3    H153237   3.938   0.248  13.285 -0.1921  1.0137 -0.7416
10582TIP3    H253238   3.887   0.159  13.397  1.2398  0.5147 -0.4755
10583TIP3   OH253239   3.054   3.547   3.949  0.2479 -0.7097 -0.5058
10583TIP3    H153240   3.056   3.634   3.909  2.6523  0.3629  1.6278
10583TIP3    H253241   2.964   3.537   3.982  0.0289  1.1669 -0.4502
10584TIP3   OH253242   4.281   2.527  16.124 -0.2587 -0.2312  0.0175
10584TIP3    H153243   4.289   2.581  16.203 -3.7009 -0.8083  0.9229
10584TIP3    H253244   4.312   2.441  16.151  1.5319  0.2722 -0.2789
10585TIP3   OH253245   5.522   0.310   4.972 -0.5419  0.1089  0.2503
10585TIP3    H153246   5.434   0.329   4.939 -0.3944  0.9814  0.3499
10585TIP3    H253247   5.538   0.219   4.945 -0.4509  0.7379 -2.0243
10586TIP3   OH253248   5.812   6.568   5.258  0.1323 -0.6947 -0.1072
10586TIP3    H153249   5.839   6.639   5.317  2.0880 -1.1157 -0.4194
10586TIP3    H253250   5.749   6.517   5.308  1.5702 -0.9125  1.5503
10587TIP3   OH253251   3.466   0.663  15.222 -0.0022 -0.2296 -0.0965
10587TIP3    H153252   3.431   0.581  15.258 -1.7079  0.5809  0.2084
10587TIP3    H253253   3.558   0.644  15.204  0.2550 -1.5115  2.1491
10588TIP3   OH253254   3.762   2.322  14.101  0.3640 -0.1109  0.1484
10588TIP3    H153255   3.759   2.374  14.182 -0.4458 -0.7972  0.5818
10588TIP3    H253256   3.688   2.354  14.050 -0.7985 -1.5205  0.8779
10589TIP3   OH253257   1.222   0.213   1.695 -0.5281 -0.4696 -0.0497
10589TIP3    H153258   1.301   0.268   1.694 -0.0113 -1.1886  0.8253
10589TIP3    H253259   1.219   0.175   1.607  0.7662 -1.3578  0.2598
10590TIP3   OH253260   0.398   1.514  13.115 -0.3251 -0.6789  0.0841
10590TIP3    H153261   0.477   1.517  13.062 -0.9001 -0.7793 -0.8131
10590TIP3    H253262   0.414   1.445  13.180  0.5778 -0.2190  0.3598
10591TIP3   OH253263   6.108   2.922   5.376 -0.3043 -0.9203 -0.0527
10591TIP3    H153264   6.187   2.889   5.419 -0.1493 -1.0902 -0.4582
10591TIP3    H253265   6.037   2.895   5.434  0.1277  2.7322  2.5252
10592TIP3   OH253266   2.174   5.979   6.447 -0.3077  0.0410 -0.3911
10592TIP3    H153267   2.266   5.985   6.472 -0.7770 -0.9457  1.7850
10592TIP3    H253268   2.163   5.890   6.414 -0.8701 -0.5491  1.2944
10593TIP3   OH253269   2.159   4.338  13.404  0.3709  0.0707  0.1440
10593TIP3    H153270   2.177   4.347  13.310 -1.5216  0.1028 -0.2656
10593TIP3    H253271   2.245   4.344  13.446  1.4677 -1.4582 -1.6828
10594TIP3   OH253272   0.448   0.624   0.725  0.2184  0.3507  0.0442
10594TIP3    H153273   0.361   0.582   0.724  0.9512 -1.3044 -1.7428
10594TIP3    H253274   0.431   0.714   0.696 -0.7786 -0.4174 -2.0136
10595TIP3   OH253275   1.846   5.394   1.602 -0.5519  0.3137 -0.5291
10595TIP3    H153276   1.937   5.376   1.626 -0.9671 -0.6293  0.4009
10595TIP3    H253277   1.844   5.386   1.506  0.1733 -0.4856 -0.4853
10596TIP3   OH253278   1.339   2.491   5.405 -0.2261  0.5733  0.3136
10596TIP3    H153279   1.297   2.535   5.331 -1.5321  0.9742  1.2568
10596TIP3    H253280   1.375   2.562   5.458 -0.0133  0.3407  0.4858
10597TIP3   OH253281   6.494   1.966  12.740  0.1947 -0.1305  0.4356
10597TIP3    H153282   6.418   2.014  12.772 -0.4384 -0.4965 -0.4663
10597TIP3    H253283   6.506   1.998  12.650  1.3976  0.2609  0.7208
10598TIP3   OH253284   1.703   5.998  14.461 -0.4898 -0.4628 -0.3353
10598TIP3    H153285   1.749   6.060  14.518  0.7944  1.5001 -3.2607
10598TIP3    H253286   1.610   6.012  14.481 -0.1446  1.2257  0.2652
10599TIP3   OH253287   3.420   5.682   2.477 -0.0451  0.3267 -0.2685
10599TIP3    H153288   3.508   5.679   2.512 -0.5373 -0.1858  0.9794
10599TIP3    H253289   3.400   5.590   2.456  0.2303  0.6152 -1.9177
10600TIP3   OH253290   5.737   6.378   2.379  0.4702  0.3313 -0.3483
10600TIP3    H153291   5.794   6.385   2.455  1.2437  0.7329 -0.9498
10600TIP3    H253292   5.665   6.321   2.408 -0.6143  2.4549  1.4568
10601TIP3   OH253293   3.677   5.707  13.579 -0.1058 -0.1623  0.2695
10601TIP3    H153294   3.649   5.698  13.487  2.5608 -1.9712 -0.4672
10601TIP3    H253295   3.637   5.790  13.607 -1.7759  0.0032 -2.2010
10602TIP3   OH253296   1.354   1.056   5.873  0.2864 -0.1169 -0.1003
10602TIP3    H153297   1.324   1.077   5.785  0.4117 -1.6209 -0.5351
10602TIP3    H253298   1.276   1.064   5.928 -0.2304 -1.0063 -0.6833
10603TIP3   OH253299   4.993   3.552  13.837  0.0321  0.2320  0.0678
10603TIP3    H153300   5.017   3.643  13.820 -0.0328  0.1607 -0.4164
10603TIP3    H253301   5.000   3.509  13.752  1.1807 -0.4759  0.4858
10604TIP3   OH253302   0.783   0.575   1.838  0.1929  0.0810  0.6707
10604TIP3    H153303   0.716   0.529   1.789  1.6595  0.1222 -1.5084
10604TIP3    H253304   0.744   0.591   1.924 -1.7789 -1.7020  0.1735
10605TIP3   OH253305   3.671   6.151  12.066 -0.2381  0.1574  0.0322
10605TIP3    H153306   3.592   6.100  12.081 -0.6878  1.2487  1.7051
10605TIP3    H253307   3.640   6.241  12.054  0.7025  0.5182  0.1934
10606TIP3   OH253308   5.334   0.745  11.767 -0.1976  0.1993  0.6001
10606TIP3    H153309   5.305   0.831  11.737 -0.2118  0.4357  1.2843
10606TIP3    H253310   5.309   0.740  11.859  0.0538 -0.4255  0.6476
10607TIP3   OH253311   2.473   0.261   3.375  0.1223 -0.2069 -0.2547
10607TIP3    H153312   2.438   0.186   3.327 -1.0337  0.1874 -0.0593
10607TIP3    H253313   2.476   0.231   3.466  1.2461 -0.5745 -0.4079
10608TIP3   OH253314   6.612   0.721  12.454 -0.2307  0.0402 -0.2334
10608TIP3    H153315   6.543   0.675  12.501  0.6687 -1.0806  0.0297
10608TIP3    H253316   6.673   0.749  12.523 -1.5165  3.0722 -0.1816
10609TIP3   OH253317   3.001   6.014   5.144  0.1816  0.0156 -0.0485
10609TIP3    H153318   2.993   6.047   5.234  0.2849 -0.8696  0.2992
10609TIP3    H253319   2.913   5.983   5.122 -0.2793  1.8234 -0.9193
10610TIP3   OH253320   6.213   1.372  17.224  0.7240  1.1021 -0.2367
10610TIP3    H153321   6.217   1.361  17.129  1.0163 -0.7767 -0.0367
10610TIP3    H253322   6.120   1.368  17.244  0.7029  0.8342 -0.3786
10611TIP3   OH253323   3.063   5.287  13.913  0.3181  0.2091  0.0682
10611TIP3    H153324   3.007   5.331  13.849 -1.7583 -0.0687  1.5887
10611TIP3    H253325   3.003   5.233  13.964  1.9227  0.2052  2.0698
10612TIP3   OH253326   2.543   5.156  12.159 -0.0800 -0.6857 -0.2962
10612TIP3    H153327   2.475   5.092  12.137 -1.3084 -0.0498  1.4006
10612TIP3    H253328   2.495   5.229  12.198  1.6242 -0.5103  1.6269
10613TIP3   OH253329   1.799   3.791  13.232  0.0081 -0.3260 -0.0935
10613TIP3    H153330   1.852   3.737  13.173  0.7101 -0.0475  0.2723
10613TIP3    H253331   1.833   3.880  13.218  1.2017 -0.4369  1.7859
10614TIP3   OH253332   5.643   0.990   0.611  0.2667  0.0018 -0.1788
10614TIP3    H153333   5.640   0.934   0.689  0.4888  0.3603  0.0884
10614TIP3    H253334   5.551   1.000   0.586  0.2221 -0.4412 -0.1966
10615TIP3   OH253335   2.378   1.543   0.524  0.4751 -0.4211  0.6449
10615TIP3    H153336   2.320   1.474   0.492  0.0152 -0.3978  1.3981
10615TIP3    H253337   2.383   1.529   0.618  1.0170  0.0966  0.7035
10616TIP3   OH253338   5.770   4.804   1.229  0.2988  0.1267 -0.1230
10616TIP3    H153339   5.791   4.869   1.162  0.4020  0.0127 -0.2021
10616TIP3    H253340   5.680   4.824   1.255 -0.6925 -1.3686 -2.0904
10617TIP3   OH253341   5.553   4.948  13.780  0.1952  0.1019  0.8577
10617TIP3    H153342   5.482   4.885  13.763  0.3193  0.2499 -0.3138
10617TIP3    H253343   5.617   4.898  13.831  0.7106 -1.0422 -0.8114
10618TIP3   OH253344   0.529   0.710   0.046  0.4407 -0.1013  0.4193
10618TIP3    H153345   0.595   0.664   0.097 -0.0343  0.7137  1.8434
10618TIP3    H253346   0.554   0.802   0.052 -0.1543  0.1006 -0.0495
10619TIP3   OH253347   2.015   5.994   1.366 -0.1256 -0.0427  0.4089
10619TIP3    H153348   1.971   5.978   1.282  0.7839 -0.3788 -0.0214
10619TIP3    H253349   1.945   6.021   1.425 -0.9351 -0.7130 -0.2126
10620TIP3   OH253350   2.522   0.090  13.082  0.1658  0.1317  0.3229
10620TIP3    H153351   2.614   0.112  13.093  0.8152 -1.2611 -1.7047
10620TIP3    H253352   2.490   0.153  13.016  0.3128 -0.8315 -0.6902
10621TIP3   OH253353   6.059   5.629  11.125 -0.3169 -0.1778 -0.3413
10621TIP3    H153354   6.015   5.576  11.058  0.0699 -0.3175 -0.4885
10621TIP3    H253355   6.144   5.649  11.087 -0.7666  1.2703 -0.6547
10622TIP3   OH253356   4.339   3.704  10.817  0.4856  0.6916  0.4213
10622TIP3    H153357   4.249   3.702  10.783  0.3709  1.5000  0.6631
10622TIP3    H253358   4.392   3.733  10.743  0.4341  1.0287  0.5169
10623TIP3   OH253359   4.022   3.025  14.137 -0.0064 -0.4394 -0.1174
10623TIP3    H153360   3.956   2.973  14.182  1.1016 -0.9248  1.0255
10623TIP3    H253361   4.041   2.977  14.057  0.1836 -1.2046  0.3802
10624TIP3   OH253362   0.099   1.180  15.106 -0.1961  0.0867 -0.4435
10624TIP3    H153363   0.135   1.141  15.027 -0.6045 -0.1968 -0.4966
10624TIP3    H253364   0.121   1.118  15.176 -1.2313 -0.4826 -0.5975
10625TIP3   OH253365   3.895   1.872  12.668  0.0683  0.2150 -0.0339
10625TIP3    H153366   3.890   1.803  12.734 -0.4803 -0.3206 -0.6159
10625TIP3    H253367   3.954   1.837  12.602  1.6169  1.2608  0.7313
10626TIP3   OH253368   2.561   2.614   5.789  0.3256 -0.2287  0.3983
10626TIP3    H153369   2.558   2.567   5.706 -0.0157  0.0198  0.2689
10626TIP3    H253370   2.647   2.592   5.826  1.6662  1.7766 -1.2649
10627TIP3   OH253371   2.407   5.893  12.211 -0.2492  0.8618  0.0583
10627TIP3    H153372   2.375   5.949  12.281 -2.0579 -0.7901  0.6678
10627TIP3    H253373   2.458   5.825  12.256  0.0490  0.7753 -0.4059
10628TIP3   OH253374   3.857   1.266  15.316  0.5980  0.0605 -0.1848
10628TIP3    H153375   3.791   1.302  15.256  1.3777  1.5438 -0.1976
10628TIP3    H253376   3.811   1.196  15.363 -0.6372  0.2847 -1.0088
10629TIP3   OH253377   1.462   0.576   5.676 -0.4118 -0.0427  0.5786
10629TIP3    H153378   1.433   0.626   5.753  0.4050 -0.5310  1.2146
10629TIP3    H253379   1.381   0.549   5.633 -0.8923  2.0152  0.0778
10630TIP3   OH253380   2.815   2.211  11.547 -0.6425 -0.7792  0.4675
10630TIP3    H153381   2.791   2.141  11.608  1.3159 -2.2696 -0.3479
10630TIP3    H253382   2.887   2.256  11.591  0.0362 -1.1537 -0.2356
10631TIP3   OH253383   0.059   2.392   0.789 -0.0632  0.0486 -0.5504
10631TIP3    H153384   0.095   2.468   0.834  2.2965 -0.7347 -0.9852
10631TIP3    H253385   0.002   2.430   0.722  0.8610  1.4497 -0.5980
10632TIP3   OH253386   0.355   1.999  16.871 -0.5079 -0.0190  0.3816
10632TIP3    H153387   0.449   1.991  16.860 -0.6133  0.5520 -1.0624
10632TIP3    H253388   0.336   2.092  16.856 -1.3428 -0.1969  0.2744
10633TIP3   OH253389   5.069   2.068   1.919 -0.2275  0.8825 -0.1740
10633TIP3    H153390   5.141   2.010   1.897 -0.9664 -0.1889  0.1718
10633TIP3    H253391   5.098   2.113   1.998 -0.1541  0.0487  0.2831
10634TIP3   OH253392   5.253   5.407  12.063 -0.6016 -0.5754 -0.2127
10634TIP3    H153393   5.344   5.435  12.058 -0.9742  0.9272  0.7341
10634TIP3    H253394   5.222   5.441  12.147 -2.4255  0.2575 -1.1560
10635TIP3   OH253395   4.205   4.462  16.372  0.5324 -0.5874  0.4277
10635TIP3    H153396   4.288   4.448  16.328 -0.2870  0.4886 -1.5744
10635TIP3    H253397   4.219   4.428  16.461  3.0575 -0.4866  0.1371
10636TIP3   OH253398   5.220   2.797   4.857 -0.1884  0.8099  0.5544
10636TIP3    H153399   5.190   2.738   4.926 -1.4216  1.5203  0.6449
10636TIP3    H253400   5.272   2.863   4.903  0.3348  0.3848  0.5832
10637TIP3   OH253401   6.294   2.298   2.624  0.0357 -0.1941  0.3020
10637TIP3    H153402   6.220   2.344   2.585 -0.5080 -0.4658  1.0085
10637TIP3    H253403   6.256   2.222   2.668  0.7714 -0.5375  0.3648
10638TIP3   OH253404   3.893   1.864   1.074  0.4219  0.1122  0.4749
10638TIP3    H153405   3.850   1.893   0.994  2.4724  1.1628 -0.3082
10638TIP3    H253406   3.857   1.919   1.143  0.6403  1.1091 -0.1936
10639TIP3   OH253407   6.423   5.152  12.919 -0.2120 -0.5223  0.4626
10639TIP3    H153408   6.474   5.232  12.930 -1.1480  0.4551 -1.5888
10639TIP3    H253409   6.333   5.178  12.937 -0.7661 -0.6013 -1.8451
10640TIP3   OH253410   0.089   3.861  12.876  0.4774  0.3607  0.1555
10640TIP3    H153411   0.180   3.890  12.880 -0.0150  1.8589  1.1995
10640TIP3    H253412   0.088   3.778  12.924  0.8180  1.7323  2.6905
10641TIP3   OH253413   4.288   4.831  10.998 -0.2622 -0.1209  0.7124
10641TIP3    H153414   4.209   4.834  10.944  0.4267  1.2753 -0.2931
10641TIP3    H253415   4.348   4.774  10.950  0.0433  0.4294  0.4313
10642TIP3   OH253416   2.447   4.388   1.572 -0.2050  0.1343  0.3190
10642TIP3    H153417   2.365   4.438   1.574 -0.0489  0.3799  0.7266
10642TIP3    H253418   2.467   4.370   1.664  1.2367  1.8244  0.3987
10643TIP3   OH253419   1.441   6.698  17.405  0.2147  0.8246 -0.3594
10643TIP3    H153420   1.396   6.614  17.400  0.0523  0.9546 -1.3578
10643TIP3    H253421   1.389   6.757  17.350  0.5665  1.4681 -0.0218
10644TIP3   OH253422   4.151   2.540  13.430 -0.0413  0.0319  0.0693
10644TIP3    H153423   4.108   2.625  13.429 -0.2536 -0.0519 -1.8327
10644TIP3    H253424   4.184   2.529  13.341  2.5025 -0.6346  1.0264
10645TIP3   OH253425   3.994   1.005   4.839  0.2257  0.2451  0.2297
10645TIP3    H153426   3.953   0.931   4.793 -0.1065 -0.1967  1.1916
10645TIP3    H253427   3.937   1.079   4.820  0.8139  0.3776 -1.1232
10646TIP3   OH253428   4.936   3.008   0.173  0.1891  0.2955  0.3568
10646TIP3    H153429   4.926   3.096   0.208 -0.5334  0.0463  0.8145
10646TIP3    H253430   4.986   2.961   0.240  1.8384  0.7206 -0.5356
10647TIP3   OH253431   6.451   2.992  11.524 -0.1862 -0.4809 -0.0555
10647TIP3    H153432   6.411   2.928  11.583 -1.7646 -1.4412 -2.0719
10647TIP3    H253433   6.497   3.052  11.583 -2.5156 -0.7731  2.2781
10648TIP3   OH253434   2.434   4.537  17.072 -0.4296 -0.3595  0.1205
10648TIP3    H153435   2.352   4.573  17.040 -0.4957 -1.8839 -1.5953
10648TIP3    H253436   2.502   4.596  17.040 -0.7953  0.8470  1.4574
10649TIP3   OH253437   0.918   4.041  14.989 -0.1325  0.2361  0.3157
10649TIP3    H153438   0.925   3.969  14.926  1.7555  1.8986 -1.5044
10649TIP3    H253439   0.965   4.010  15.066 -0.5187 -0.9727  0.0927
10650TIP3   OH253440   5.209   5.045   1.742 -0.8089  0.5029  0.1447
10650TIP3    H153441   5.201   4.998   1.825 -1.3139  1.4514  0.6531
10650TIP3    H253442   5.295   5.021   1.708 -1.4352 -1.5274 -0.0869
10651TIP3   OH253443   4.359   2.511  13.684  0.3598 -0.8858  0.0149
10651TIP3    H153444   4.314   2.489  13.603  0.7990  2.8229 -1.4818
10651TIP3    H253445   4.291   2.547  13.741  0.7279  1.4879 -0.9121
10652TIP3   OH253446   1.532   0.073  14.405 -0.0061  0.3302  0.4602
10652TIP3    H153447   1.581   0.149  14.376 -0.1228 -0.1196 -1.0180
10652TIP3    H253448   1.599   0.009  14.430  0.1659  0.0699 -0.6149
10653TIP3   OH253449   0.854   4.114   3.981 -0.0058 -0.2349 -0.2012
10653TIP3    H153450   0.790   4.055   3.942  1.1869 -2.5019  1.0378
10653TIP3    H253451   0.843   4.103   4.076 -0.4431  2.4241  0.1531
10654TIP3   OH253452   2.687   2.660  16.206  0.3318 -0.6689  0.0624
10654TIP3    H153453   2.676   2.670  16.301  0.9624 -0.4491  0.1143
10654TIP3    H253454   2.613   2.709  16.169 -0.0684 -0.9740  0.4414
10655TIP3   OH253455   2.941   1.547   3.383  0.4323  0.5945  0.7194
10655TIP3    H153456   2.863   1.568   3.330 -0.0003 -1.0322  0.6685
10655TIP3    H253457   2.975   1.633   3.409 -0.2724  1.4015 -0.8353
10656TIP3   OH253458   1.745   5.888   4.245 -0.0403 -0.0302 -0.7018
10656TIP3    H153459   1.788   5.818   4.196 -1.1121  0.3273 -2.2480
10656TIP3    H253460   1.787   5.887   4.331  0.5269 -2.0282 -0.9435
10657TIP3   OH253461   0.364   2.417   0.265 -0.3494  0.6159  0.2114
10657TIP3    H153462   0.430   2.480   0.296 -0.2187  0.0964  0.9989
10657TIP3    H253463   0.391   2.333   0.303 -0.3236  0.0001 -1.1093
10658TIP3   OH253464   3.624   6.602   4.943  0.8246  0.1478  0.2544
10658TIP3    H153465   3.559   6.535   4.920  2.1468 -0.6487 -1.3827
10658TIP3    H253466   3.646   6.583   5.034  1.1402 -1.6545 -0.1483
10659TIP3   OH253467   4.511   1.298  12.741 -0.4337  0.3094  0.2593
10659TIP3    H153468   4.567   1.374  12.726  0.4860 -0.4635 -0.3284
10659TIP3    H253469   4.453   1.295  12.665  0.6152 -0.4804 -0.5519
10660TIP3   OH253470   5.316   5.345  11.164 -0.0758 -0.2151  0.3396
10660TIP3    H153471   5.300   5.256  11.196  1.3189 -0.6330 -0.0700
10660TIP3    H253472   5.396   5.373  11.210 -0.8134  1.0727  0.9175
10661TIP3   OH253473   2.186   3.958  11.170 -0.0209 -0.2338 -0.5001
10661TIP3    H153474   2.175   3.874  11.126  1.3583 -0.7643  0.1207
10661TIP3    H253475   2.134   3.951  11.250  1.2936 -1.1007  0.3120
10662TIP3   OH253476   0.597   1.242   2.517 -0.1752  0.4339  0.1056
10662TIP3    H153477   0.572   1.251   2.425 -0.6892 -1.0416  0.0625
10662TIP3    H253478   0.615   1.148   2.528 -0.1287  0.5762  1.5054
10663TIP3   OH253479   1.420   0.573  16.309  0.0400  0.0516  0.0969
10663TIP3    H153480   1.344   0.522  16.280  0.9095 -1.5003  0.4213
10663TIP3    H253481   1.495   0.532  16.265  0.8390  0.6962  0.8231
10664TIP3   OH253482   0.605   2.731   6.538  0.0914 -0.0210  0.6051
10664TIP3    H153483   0.658   2.717   6.616  0.8388  1.9270  0.5041
10664TIP3    H253484   0.586   2.825   6.539 -0.1412 -0.0073 -1.3880
10665TIP3   OH253485   6.685   0.084   1.329  0.7830  0.3615 -0.0845
10665TIP3    H153486   6.629   0.039   1.392 -0.5758  1.7806 -0.2318
10665TIP3    H253487   6.774   0.072   1.364  0.2626 -0.6912  0.9325
10666TIP3   OH253488   3.620   6.190  15.076  1.1015 -0.2449 -0.4744
10666TIP3    H153489   3.650   6.206  15.166  1.2972 -1.2245 -0.3523
10666TIP3    H253490   3.687   6.230  15.021  1.4482 -0.4238 -0.1864
10667TIP3   OH253491   0.504   4.819   2.985  0.1560  0.2799  0.3746
10667TIP3    H153492   0.491   4.913   2.974  1.3540  0.4394  0.1945
10667TIP3    H253493   0.573   4.812   3.051 -0.6193 -0.5029  1.1266
10668TIP3   OH253494   4.027   3.859  12.328 -0.4163 -0.0636  0.0044
10668TIP3    H153495   4.099   3.796  12.335 -0.5476 -0.6422 -2.8219
10668TIP3    H253496   4.014   3.871  12.234 -2.1621  2.2033  0.4375
10669TIP3   OH253497   2.383   3.657  15.146  0.2672 -0.5213  0.2466
10669TIP3    H153498   2.385   3.671  15.052  1.3087 -0.8948  0.2063
10669TIP3    H253499   2.439   3.581  15.161  1.4725  0.5277  1.3328
10670TIP3   OH253500   5.599   2.068   0.148 -0.2776 -0.2389 -0.2353
10670TIP3    H153501   5.530   2.010   0.180 -2.6436  2.3701 -0.2781
10670TIP3    H253502   5.560   2.115   0.075  2.0657  0.3661 -1.2095
10671TIP3   OH253503   0.676   1.831   4.546  0.3593 -0.2421 -0.1616
10671TIP3    H153504   0.746   1.896   4.560  0.2797  0.1131 -1.3000
10671TIP3    H253505   0.596   1.877   4.570  0.5347 -0.9173  1.9781
10672TIP3   OH253506   4.464   3.669   6.054  0.7476 -0.8540  0.0105
10672TIP3    H153507   4.381   3.663   6.101  0.7743 -2.4928 -0.0929
10672TIP3    H253508   4.508   3.745   6.092 -0.6732 -0.1195  0.2479
10673TIP3   OH253509   1.849   3.616  17.057 -0.1317 -0.3162 -0.2221
10673TIP3    H153510   1.903   3.612  17.136  2.6214  0.8381 -1.8632
10673TIP3    H253511   1.825   3.709  17.049  1.3383 -0.0007 -1.6840
10674TIP3   OH253512   2.231   2.417  17.377  0.3975 -0.1223  0.5254
10674TIP3    H153513   2.200   2.501  17.412  0.4758  0.6094 -1.0851
10674TIP3    H253514   2.326   2.426  17.374  0.4598 -0.5777  1.0934
10675TIP3   OH253515   0.004   3.186   2.724  0.3391  1.0616  0.2179
10675TIP3    H153516  -0.010   3.263   2.779 -0.7288  1.2858 -0.3576
10675TIP3    H253517   0.075   3.211   2.665 -2.6730  3.2586 -2.8556
10676TIP3   OH253518   1.519   0.858   2.012 -0.4780 -0.0349  0.3415
10676TIP3    H153519   1.614   0.857   2.005 -0.4395 -1.9202  0.6018
10676TIP3    H253520   1.491   0.928   1.953  1.0451  0.2048 -0.1229
10677TIP3   OH253521   4.564   0.535  10.766 -0.7458 -0.0627 -0.6548
10677TIP3    H153522   4.493   0.590  10.730  0.9947  1.3492 -2.1315
10677TIP3    H253523   4.576   0.568  10.855 -0.2745  1.4667 -1.2462
10678TIP3   OH253524   0.339   3.553   3.257  0.1225 -0.4253 -0.1121
10678TIP3    H153525   0.330   3.476   3.313 -0.1190 -0.0382  0.3910
10678TIP3    H253526   0.427   3.546   3.220  0.8845  0.1161  1.5384
10679TIP3   OH253527   0.136   0.674   3.952 -0.0513  0.3460 -0.0857
10679TIP3    H153528   0.182   0.663   4.035  0.8464 -0.0623 -0.6170
10679TIP3    H253529   0.095   0.760   3.958 -0.5903  0.0190  1.0554
10680TIP3   OH253530   1.830   2.978   3.250 -0.0561  0.3723  0.1337
10680TIP3    H153531   1.896   3.044   3.232  0.9771 -1.0488 -1.6236
10680TIP3    H253532   1.747   3.022   3.235  0.5700  1.5891  0.1748
10681TIP3   OH253533   6.218   3.248   4.933 -0.5302 -0.2613 -0.2147
10681TIP3    H153534   6.183   3.304   5.003  0.3858  0.3033 -0.1932
10681TIP3    H253535   6.165   3.270   4.856 -2.2575 -1.6482  0.5065
10682TIP3   OH253536   0.255   3.950  11.741 -0.4345 -0.2434  0.6790
10682TIP3    H153537   0.166   3.919  11.758  0.4496 -2.0545  2.4502
10682TIP3    H253538   0.306   3.918  11.815  1.8096  0.2637 -0.5551
10683TIP3   OH253539   3.993   3.553   1.584 -0.0523 -0.1855 -0.2280
10683TIP3    H153540   4.087   3.562   1.601  0.1162 -1.2689 -0.5243
10683TIP3    H253541   3.962   3.643   1.574  1.1892  0.1573 -1.2887
10684TIP3   OH253542   3.251   1.928   0.271  0.2294  0.0724 -0.1044
10684TIP3    H153543   3.181   1.919   0.336  1.0016 -0.0661  0.7241
10684TIP3    H253544   3.300   1.847   0.277  0.6512  0.2967 -0.4561
10685TIP3   OH253545   1.076   0.086  15.951  0.2127  0.2988  0.1319
10685TIP3    H153546   1.143   0.148  15.923  0.3166 -0.2000 -0.7874
10685TIP3    H253547   1.053   0.038  15.871 -0.0066 -0.7015  0.7685
10686TIP3   OH253548   5.781   3.240   2.362 -0.2898  0.3373 -0.3966
10686TIP3    H153549   5.794   3.176   2.292  1.5356 -0.8896  0.9500
10686TIP3    H253550   5.764   3.187   2.440  3.1023  1.2269  1.1595
10687TIP3   OH253551   1.318   1.676   3.183  0.0721 -0.2105  0.1449
10687TIP3    H153552   1.356   1.611   3.243  0.4690  0.0155  0.1404
10687TIP3    H253553   1.229   1.645   3.168 -1.8375  2.2388  4.6820
10688TIP3   OH253554   4.612   3.658   5.811 -0.5056 -0.2116  0.1352
10688TIP3    H153555   4.699   3.656   5.852 -0.7741  0.8929  0.8044
10688TIP3    H253556   4.551   3.658   5.884 -1.0159  0.8415 -0.2778
10689TIP3   OH253557   4.548   5.102  16.564 -0.7042  0.1009  0.2452
10689TIP3    H153558   4.513   5.023  16.605  0.6743  0.4040  2.1173
10689TIP3    H253559   4.479   5.167  16.575 -0.2202  0.2888  2.5649
10690TIP3   OH253560   4.793   0.736  13.226 -0.1329  0.1241 -0.2729
10690TIP3    H153561   4.818   0.828  13.234 -1.0763  0.2441  2.1515
10690TIP3    H253562   4.855   0.690  13.283  0.5514 -0.8250 -1.7301
10691TIP3   OH253563   2.668   3.135   5.725 -0.5129  0.7122 -0.4825
10691TIP3    H153564   2.729   3.188   5.674  0.7682  0.4924  0.7754
10691TIP3    H253565   2.684   3.160   5.815 -1.8227  0.1400 -0.0640
10692TIP3   OH253566   2.897   0.418  14.557 -0.0269 -0.5016  0.0463
10692TIP3    H153567   2.931   0.416  14.468  1.2387 -2.4479  0.5157
10692TIP3    H253568   2.945   0.488  14.601 -1.5907  1.3878 -1.0663
10693TIP3   OH253569   0.672   2.774   1.170 -0.4182  0.1241  0.0908
10693TIP3    H153570   0.750   2.764   1.224 -0.2718 -1.0127 -0.3144
10693TIP3    H253571   0.652   2.686   1.139 -1.9135  0.3849  0.2510
10694TIP3   OH253572   1.737   1.795  12.125  0.0085  0.0615  0.3548
10694TIP3    H153573   1.646   1.779  12.150 -0.4615  1.8959  0.0053
10694TIP3    H253574   1.745   1.754  12.039 -0.5259 -0.0600  0.3561
10695TIP3   OH253575   5.471   5.944   2.594  0.1611 -0.1641  0.4824
10695TIP3    H153576   5.381   5.973   2.582  0.7969  1.4522 -0.9282
10695TIP3    H253577   5.466   5.874   2.659 -2.2265 -0.9585 -0.4650
10696TIP3   OH253578   3.064   3.106  16.705 -0.0383  0.2393 -0.0433
10696TIP3    H153579   3.048   3.014  16.727  1.1682  0.1444  0.5057
10696TIP3    H253580   3.099   3.144  16.785 -2.9647  1.8882  0.6176
10697TIP3   OH253581   4.771   2.186  14.695 -0.2093 -0.6009  0.5990
10697TIP3    H153582   4.725   2.246  14.753 -0.6342 -0.5571  0.2236
10697TIP3    H253583   4.856   2.227  14.678 -0.8995  0.4385 -0.5208
10698TIP3   OH253584   0.562   3.321   0.056  0.5661  0.1671 -0.2779
10698TIP3    H153585   0.494   3.350   0.117 -0.4426  0.9476 -1.7294
10698TIP3    H253586   0.517   3.258  -0.001  1.1221  0.4917 -1.0846
10699TIP3   OH253587   0.356   3.661   1.933 -0.1639  0.3204  0.2538
10699TIP3    H153588   0.337   3.633   1.844  1.2976  1.1377 -0.3442
10699TIP3    H253589   0.308   3.599   1.989 -0.5510 -0.6059 -1.0688
10700TIP3   OH253590   3.630   5.786   0.172 -0.0811 -0.1186 -0.3215
10700TIP3    H153591   3.713   5.743   0.193 -0.0282 -0.4876 -1.2834
10700TIP3    H253592   3.598   5.742   0.094 -1.6063 -0.5376  0.4974
10701TIP3   OH253593   1.801   5.606  11.711 -0.3041 -0.7655 -0.2805
10701TIP3    H153594   1.722   5.606  11.657  0.7821  2.8117 -2.1992
10701TIP3    H253595   1.873   5.602  11.648  1.0557 -0.5939  1.2035
10702TIP3   OH253596   2.364   2.080  15.808 -0.1898 -0.1495  0.0238
10702TIP3    H153597   2.325   2.133  15.878 -2.5450 -1.6389 -0.0468
10702TIP3    H253598   2.437   2.035  15.850 -0.1461  0.7202  0.9101
10703TIP3   OH253599   0.706   3.549   1.585 -0.2241 -0.8222  0.0030
10703TIP3    H153600   0.743   3.612   1.646 -1.0387  0.3052 -0.6364
10703TIP3    H253601   0.762   3.471   1.594  1.7246  0.4826 -0.2702
10704TIP3   OH253602   2.906   4.774   3.167  0.0405  0.0387 -0.0498
10704TIP3    H153603   2.859   4.691   3.170  1.2944 -0.8167 -1.9274
10704TIP3    H253604   2.996   4.752   3.192  1.2364  0.0084 -3.7293
10705TIP3   OH253605   4.247   2.283  11.381 -0.0957 -0.7328  0.4691
10705TIP3    H153606   4.168   2.298  11.433 -0.5992  1.3996 -0.7880
10705TIP3    H253607   4.293   2.213  11.427 -1.5735 -0.4607  2.5112
10706TIP3   OH253608   0.584   6.718   0.799  0.0695 -0.3291  0.4280
10706TIP3    H153609   0.582   6.625   0.821  4.4592 -0.2362  2.3143
10706TIP3    H253610   0.547   6.761   0.876  0.9904 -0.4835  0.9755
10707TIP3   OH253611   0.386   1.220   4.459  0.3402 -0.2199  0.1890
10707TIP3    H153612   0.422   1.153   4.401 -1.9979 -0.8064 -0.6899
10707TIP3    H253613   0.409   1.303   4.417 -1.8502 -0.6281 -2.0632
10708TIP3   OH253614   0.453   4.833   1.442 -0.0289  0.0959  0.2280
10708TIP3    H153615   0.426   4.903   1.502 -0.9482  0.3879 -0.4949
10708TIP3    H253616   0.436   4.869   1.355  1.7652 -0.1140 -0.2542
10709TIP3   OH253617   1.893   4.591  14.181  0.2893  0.5886  0.5707
10709TIP3    H153618   1.896   4.593  14.276 -0.7098 -3.5587  0.8780
10709TIP3    H253619   1.959   4.526  14.156  0.2050  1.2407 -1.5927
10710TIP3   OH253620   2.474   0.924   4.028 -0.3734  0.0492 -0.3574
10710TIP3    H153621   2.565   0.934   4.000 -0.4915  0.2376 -0.6719
10710TIP3    H253622   2.459   0.999   4.086 -0.9214  1.1476 -1.8490
10711TIP3   OH253623   1.825   5.292  12.499 -0.1172  0.1191 -0.3578
10711TIP3    H153624   1.798   5.219  12.444 -1.5887  0.8269 -0.6132
10711TIP3    H253625   1.801   5.370  12.450  2.2696  0.8597 -0.5148
10712TIP3   OH253626   5.582   0.548  11.481 -0.8595 -0.4701  0.4706
10712TIP3    H153627   5.545   0.615  11.539  0.7430 -1.3480  2.6419
10712TIP3    H253628   5.616   0.481  11.540 -1.5297 -2.7800 -1.5866
10713TIP3   OH253629   4.850   5.377   1.678 -0.0625  0.1108  0.2073
10713TIP3    H153630   4.868   5.287   1.705 -0.9144 -0.0427  0.3001
10713TIP3    H253631   4.769   5.371   1.628 -0.1146  0.8278  0.1993
10714TIP3   OH253632   4.569   5.292   6.197 -0.1248  0.2456 -0.2521
10714TIP3    H153633   4.607   5.240   6.267 -0.1324  1.2624  0.5367
10714TIP3    H253634   4.549   5.229   6.128  3.8583 -0.2688 -1.1752
10715TIP3   OH253635   1.054   3.703   3.204  0.0236 -0.5455 -0.4279
10715TIP3    H153636   1.004   3.757   3.144 -0.3800 -0.8502 -0.3701
10715TIP3    H253637   1.093   3.635   3.149  2.3949  1.0461 -0.8893
10716TIP3   OH253638   5.514   2.188  12.324 -0.3178 -0.1914 -0.1569
10716TIP3    H153639   5.498   2.198  12.230 -3.0723 -0.9372  0.1369
10716TIP3    H253640   5.463   2.257  12.365  0.8386  0.1116  0.8201
10717TIP3   OH253641   5.067   6.116  13.661 -0.2186  0.7374 -0.3342
10717TIP3    H153642   5.038   6.059  13.732  0.0161  0.1399 -0.7177
10717TIP3    H253643   5.118   6.059  13.603 -2.5623  0.5803 -2.3793
10718TIP3   OH253644   3.704   1.042   0.335 -0.2380  0.1496  0.7811
10718TIP3    H153645   3.623   1.021   0.381 -0.9490 -1.3841 -1.0172
10718TIP3    H253646   3.714   1.136   0.344 -3.2285  0.6834 -0.4367
10719TIP3   OH253647   5.618   3.960   1.197  0.3057  0.2867 -0.0629
10719TIP3    H153648   5.690   3.964   1.259  1.6684  0.9934 -1.6060
10719TIP3    H253649   5.583   4.049   1.194 -0.4834  0.0058  0.4849
10720TIP3   OH253650   0.738   6.734   2.568  0.0381 -0.3756  0.3687
10720TIP3    H153651   0.805   6.709   2.505 -0.4208 -1.2120  0.1979
10720TIP3    H253652   0.686   6.801   2.523 -0.5144 -1.2346 -0.3009
10721TIP3   OH253653   1.756   4.989  17.497 -0.3159 -0.1413  0.2238
10721TIP3    H153654   1.678   5.037  17.470  0.0640  1.3666  1.6903
10721TIP3    H253655   1.823   5.056  17.510  0.9178 -1.3010  0.0781
10722TIP3   OH253656   3.963   1.305   3.881 -0.0393  0.1385 -0.0495
10722TIP3    H153657   3.934   1.239   3.818  1.4642 -3.5704  2.8058
10722TIP3    H253658   4.048   1.335   3.847 -1.6167  2.3746 -2.4097
10723TIP3   OH253659   2.749   4.381  14.105  0.0502  0.1709  0.4105
10723TIP3    H153660   2.756   4.473  14.129 -3.0583  0.4288  0.7420
10723TIP3    H253661   2.691   4.343  14.171  0.6024 -1.8625 -0.1885
10724TIP3   OH253662   1.610   1.253   2.762 -0.0410 -0.0754  0.5561
10724TIP3    H153663   1.698   1.278   2.737 -0.4568  0.7877 -0.0753
10724TIP3    H253664   1.608   1.158   2.752  1.1666 -0.2482  1.7453
10725TIP3   OH253665   6.066   4.888  13.831  0.1602  0.3412  0.0003
10725TIP3    H153666   6.055   4.800  13.794 -0.1789  1.3903 -2.5653
10725TIP3    H253667   6.017   4.885  13.913 -0.3714 -1.6814 -0.3190
10726TIP3   OH253668   5.873   0.628  16.787 -0.2259 -0.1443 -0.6533
10726TIP3    H153669   5.902   0.689  16.719 -0.7638 -0.0226 -0.7783
10726TIP3    H253670   5.923   0.654  16.865  0.6499 -0.5102 -1.0848
10727TIP3   OH253671   3.026   5.060  17.205 -0.4987  0.2289  0.1607
10727TIP3    H153672   3.022   5.040  17.298 -0.1633  0.7648  0.2928
10727TIP3    H253673   2.967   5.134  17.193  0.6959  1.2349  0.2508
10728TIP3   OH253674   0.522   4.285  14.020  0.2049 -0.3401  0.4877
10728TIP3    H153675   0.473   4.218  13.973 -0.7951 -0.4923  1.6818
10728TIP3    H253676   0.540   4.246  14.106 -0.1587  0.8083  1.1047
10729TIP3   OH253677   2.795   2.829  13.825  0.2671 -0.0113  0.4548
10729TIP3    H153678   2.740   2.862  13.755  0.1938  0.4134  0.7115
10729TIP3    H253679   2.760   2.742  13.845 -0.8182  0.5653  1.1560
10730TIP3   OH253680   5.571   1.724   4.554 -0.2695  0.0828  0.3025
10730TIP3    H153681   5.518   1.677   4.490 -1.5828 -1.7441  2.5621
10730TIP3    H253682   5.515   1.796   4.582 -0.2841  0.0183  0.4384
10731TIP3   OH253683   1.472   5.352   3.679  0.0244  0.5618  0.2971
10731TIP3    H153684   1.389   5.372   3.722  0.2024  0.8238  0.5302
10731TIP3    H253685   1.466   5.259   3.656 -0.2574  0.5334  0.4810
10732TIP3   OH253686   5.609   1.287   1.757 -0.1714  0.2459 -0.0230
10732TIP3    H153687   5.537   1.321   1.703 -2.5280 -1.4688  1.7825
10732TIP3    H253688   5.614   1.348   1.830  0.7562  0.7619 -0.5052
10733TIP3   OH253689   1.978   0.329  17.446  0.2542  0.0635  0.3591
10733TIP3    H153690   1.913   0.382  17.399  0.1770  0.1559  0.5684
10733TIP3    H253691   2.054   0.328  17.388 -0.6600 -1.8789 -0.9051
10734TIP3   OH253692   1.003   5.836   0.248  0.0343 -0.0434  0.0263
10734TIP3    H153693   1.047   5.823   0.165 -0.7501  0.3197 -0.4651
10734TIP3    H253694   0.970   5.749   0.272  1.5976 -0.4582  0.7586
10735TIP3   OH253695   0.698   2.675  14.290  0.0637  0.6419  0.4453
10735TIP3    H153696   0.716   2.588  14.326  0.6283  1.3961  2.0862
10735TIP3    H253697   0.610   2.667  14.253 -1.0110  0.0204  2.9102
10736TIP3   OH253698   0.160   5.548  16.619 -0.4675 -0.1874  0.4367
10736TIP3    H153699   0.086   5.572  16.564 -0.4423  0.1531  0.5494
10736TIP3    H253700   0.145   5.594  16.702  0.2660  0.5198  0.1928
10737TIP3   OH253701   2.324   2.813   5.799 -0.0146  0.1312 -0.4231
10737TIP3    H153702   2.342   2.802   5.892  1.0940 -1.3667 -0.7874
10737TIP3    H253703   2.409   2.807   5.756 -0.3230  2.1198 -1.4655
10738TIP3   OH253704   5.763   5.495  13.416  0.3781 -0.5336 -0.3157
10738TIP3    H153705   5.776   5.519  13.325  0.5254  1.2500  0.1411
10738TIP3    H253706   5.678   5.450  13.417 -0.4195  0.8886 -1.1052
10739TIP3   OH253707   0.276   5.067  16.317  0.7654 -0.0411 -0.2331
10739TIP3    H153708   0.241   5.018  16.391 -1.0213 -0.6252 -1.3987
10739TIP3    H253709   0.366   5.087  16.342  0.3788 -0.6432  1.8676
10740TIP3   OH253710   4.137   2.596  15.922  0.0125 -0.7727 -0.2922
10740TIP3    H153711   4.203   2.573  15.988  1.3843 -1.3662 -1.7885
10740TIP3    H253712   4.131   2.692  15.927  2.0592 -0.5578 -1.0419
10741TIP3   OH253713   3.170   0.104   6.319 -0.3362 -0.3101 -0.1803
10741TIP3    H153714   3.193   0.106   6.226 -0.3949 -1.3629 -0.2277
10741TIP3    H253715   3.231   0.166   6.360 -0.0911 -0.0889 -0.8714
10742TIP3   OH253716   0.081   5.701  17.201 -0.0443  0.2582 -0.6167
10742TIP3    H153717   0.171   5.670  17.195 -0.6022 -1.4007 -0.9830
10742TIP3    H253718   0.056   5.684  17.292  0.1441  1.1609 -0.3866
10743TIP3   OH253719   1.298   5.365  15.819  0.3182  0.2348  0.0211
10743TIP3    H153720   1.203   5.355  15.815  0.4823 -2.7021  1.0531
10743TIP3    H253721   1.332   5.314  15.746  1.1476  0.0949  0.4836
10744TIP3   OH253722   5.751   6.248   4.455  1.0719  0.7003 -0.3926
10744TIP3    H153723   5.728   6.182   4.520 -0.5933  0.9201 -0.7143
10744TIP3    H253724   5.807   6.202   4.393  1.4004  0.0793  0.3522
10745TIP3   OH253725   6.579   2.884   4.516  0.0051 -0.2493  0.2848
10745TIP3    H153726   6.613   2.931   4.592  0.7558 -2.6438  1.5502
10745TIP3    H253727   6.646   2.895   4.449  1.4164 -1.5254  1.4093
10746TIP3   OH253728   0.150   1.295   5.402  0.0037  0.1036  0.0603
10746TIP3    H153729   0.159   1.389   5.385 -1.7261 -0.0385 -2.0437
10746TIP3    H253730   0.128   1.289   5.495  4.1045  1.4148  1.3349
10747TIP3   OH253731   5.339   2.708   3.839  0.3561 -0.5281 -0.2624
10747TIP3    H153732   5.336   2.769   3.766 -2.5537 -0.6875 -0.3948
10747TIP3    H253733   5.431   2.704   3.863  0.8982  2.5843 -1.3451
10748TIP3   OH253734   2.216   0.920   1.525 -0.2909 -0.8028  0.4715
10748TIP3    H153735   2.180   0.983   1.463  0.8670 -0.2745  0.3186
10748TIP3    H253736   2.147   0.855   1.535 -1.8363  0.8664  1.2148
10749TIP3   OH253737   0.453   3.649   3.812 -0.2063  0.0826 -0.4470
10749TIP3    H153738   0.417   3.714   3.753 -0.0875  2.1133  1.5883
10749TIP3    H253739   0.478   3.576   3.755 -1.8085  1.1303 -2.6190
10750TIP3   OH253740   5.576   5.160  17.024  0.1140 -0.0213  0.3612
10750TIP3    H153741   5.596   5.074  16.987 -2.8963 -0.0441 -1.5790
10750TIP3    H253742   5.649   5.216  16.997  0.8419 -1.3878 -0.5930
10751TIP3   OH253743   6.630   1.097   4.328 -0.2650  0.4916 -0.1193
10751TIP3    H153744   6.552   1.067   4.281 -0.4830  0.5939  0.1754
10751TIP3    H253745   6.700   1.094   4.263 -0.5827  0.7213 -0.4766
10752TIP3   OH253746   1.845   5.003   5.232  0.5412 -0.0480  0.6001
10752TIP3    H153747   1.757   5.038   5.219  1.1278  1.6920  1.0027
10752TIP3    H253748   1.832   4.909   5.247 -1.4137  0.4281  2.3980
10753TIP3   OH253749   0.292   6.127   2.958 -0.5863 -0.0059  0.6359
10753TIP3    H153750   0.371   6.124   2.904 -0.5603  2.6413  0.3880
10753TIP3    H253751   0.227   6.079   2.907  0.4880 -1.0656  0.2080
10754TIP3   OH253752   3.032   0.542  11.343 -0.0314 -0.0629  0.0167
10754TIP3    H153753   3.114   0.495  11.327  0.7234  1.2730 -0.1590
10754TIP3    H253754   3.033   0.615  11.281 -1.1589  0.2184  0.2987
10755TIP3   OH253755   6.203   6.000  13.613 -0.7727  0.4627 -0.5610
10755TIP3    H153756   6.269   6.042  13.668 -0.8148  0.2948 -0.3833
10755TIP3    H253757   6.128   6.059  13.617 -1.1616 -0.0824  0.4351
10756TIP3   OH253758   2.284   2.925   6.734  0.2115 -0.2139 -0.2734
10756TIP3    H153759   2.190   2.936   6.745  0.4585  1.0583  0.8905
10756TIP3    H253760   2.302   2.838   6.769 -0.5484 -0.5416 -0.6755
10757TIP3   OH253761   6.131   3.777   3.315 -0.2721  0.1988  0.1397
10757TIP3    H153762   6.122   3.770   3.410 -1.3909  1.8484  0.1973
10757TIP3    H253763   6.067   3.715   3.280 -1.0188  0.7800  0.4735
10758TIP3   OH253764   1.683   2.430  11.820  0.2707  0.1257 -0.6850
10758TIP3    H153765   1.635   2.493  11.766 -0.3760  0.7943  0.6046
10758TIP3    H253766   1.619   2.403  11.886  0.9093 -0.9904 -0.5011
10759TIP3   OH253767   6.154   5.938  13.990  0.1500 -0.0011  0.1296
10759TIP3    H153768   6.239   5.963  13.954  0.3587 -1.4093 -0.4347
10759TIP3    H253769   6.120   6.018  14.030  1.6896  0.6096  0.2800
10760TIP3   OH253770   4.409   0.278   2.549 -0.3905  0.0692 -0.0215
10760TIP3    H153771   4.322   0.306   2.520 -0.0109  0.3141 -0.9372
10760TIP3    H253772   4.391   0.209   2.613 -1.3196  1.7192  1.5926
10761TIP3   OH253773   5.355   4.471   0.550  0.0860 -0.3463  0.2733
10761TIP3    H153774   5.261   4.485   0.546 -0.1338 -1.5685  0.9007
10761TIP3    H253775   5.387   4.540   0.609 -0.2121  0.9082 -0.9922
10762TIP3   OH253776   3.241   1.988  11.566 -0.2385 -0.8069  0.7598
10762TIP3    H153777   3.173   1.998  11.632 -1.5217  0.9463 -0.7252
10762TIP3    H253778   3.195   1.998  11.483  1.9067  1.0880 -0.3005
10763TIP3   OH253779   2.070   5.436  13.418  0.4787  0.5176 -0.3457
10763TIP3    H153780   2.066   5.512  13.360 -0.4133 -1.1727 -2.6785
10763TIP3    H253781   2.002   5.451  13.483  0.7267  1.9741 -0.3921
10764TIP3   OH253782   3.459   0.881  15.414 -0.3352  0.3694  0.6468
10764TIP3    H153783   3.549   0.857  15.435 -0.9729 -1.3307  1.6788
10764TIP3    H253784   3.424   0.805  15.367 -2.8030 -1.6466  5.0766
10765TIP3   OH253785   6.028   4.213  15.651  0.1576 -0.3559 -0.0685
10765TIP3    H153786   6.036   4.134  15.704  0.6678  0.1782  0.6601
10765TIP3    H253787   6.107   4.263  15.668 -1.4553  1.7562  1.8899
10766TIP3   OH253788   5.540   1.866   3.832 -0.7976  0.0346 -0.4649
10766TIP3    H153789   5.539   1.961   3.816  0.5144  0.1958  0.2907
10766TIP3    H253790   5.449   1.839   3.818 -1.1231  1.3401 -1.0501
10767TIP3   OH253791   5.310   0.826   4.610  0.6112 -0.1551  0.2354
10767TIP3    H153792   5.384   0.770   4.589 -0.3806 -1.0502 -1.0176
10767TIP3    H253793   5.286   0.867   4.527 -1.3023 -1.1573  0.2235
10768TIP3   OH253794   3.327   6.248  12.607  0.1136 -0.5641 -0.3325
10768TIP3    H153795   3.412   6.246  12.652  0.2407 -1.1572 -0.5966
10768TIP3    H253796   3.267   6.206  12.668 -0.0786  0.1856  0.0147
10769TIP3   OH253797   4.363   3.269   5.953  0.3604  0.3860  0.2163
10769TIP3    H153798   4.439   3.306   5.998  0.0204  2.0992 -0.5293
10769TIP3    H253799   4.360   3.315   5.868 -1.5310  0.4456  0.2561
10770TIP3   OH253800   3.633   6.275   6.013 -0.1922 -0.2425  0.1653
10770TIP3    H153801   3.632   6.287   6.108  1.0351  0.7569  0.0672
10770TIP3    H253802   3.672   6.355   5.979 -0.3615 -0.7082 -1.1779
10771TIP3   OH253803   4.952   5.594  13.866 -0.0369 -0.8475 -0.5399
10771TIP3    H153804   4.870   5.563  13.827 -0.5078  0.3816 -0.5795
10771TIP3    H253805   4.940   5.579  13.960  0.1348 -1.6383 -0.6365
10772TIP3   OH253806   3.955   0.940   0.344  0.2632  0.0433 -0.4353
10772TIP3    H153807   3.871   0.985   0.335 -0.0649 -0.5404 -0.4187
10772TIP3    H253808   3.972   0.939   0.438  1.7331  2.6753 -0.5735
10773TIP3   OH253809   5.660   6.336  13.176 -0.5105 -0.8161 -0.3576
10773TIP3    H153810   5.641   6.284  13.254  1.8653  0.5275  1.2180
10773TIP3    H253811   5.755   6.340  13.172 -0.6020  0.4447 -2.4632
10774TIP3   OH253812   1.377   0.416  13.985  0.4485 -0.5616  0.1729
10774TIP3    H153813   1.298   0.361  13.993 -0.2324  0.3256 -0.2682
10774TIP3    H253814   1.376   0.471  14.063  2.6478 -3.0082  2.0850
10775TIP3   OH253815   4.423   5.771  11.919 -0.1006  0.3673 -0.4255
10775TIP3    H153816   4.473   5.713  11.976  1.5948  2.7850  0.7537
10775TIP3    H253817   4.479   5.785  11.843 -1.3166 -0.9466 -1.6164
10776TIP3   OH253818   3.571   4.825   2.181 -0.2228 -0.1312  0.2449
10776TIP3    H153819   3.575   4.796   2.090  0.8964  0.3375  0.1208
10776TIP3    H253820   3.482   4.805   2.209 -0.6314 -0.1461 -0.9981
10777TIP3   OH253821   5.572   0.644  12.167  0.1741 -0.5276  0.0059
10777TIP3    H153822   5.615   0.587  12.231 -1.1627 -0.8474  0.6672
10777TIP3    H253823   5.617   0.728  12.176  0.7627 -0.8866  0.5436
10778TIP3   OH253824   5.199   0.405  12.650  0.2318 -0.1903  0.6081
10778TIP3    H153825   5.270   0.468  12.638 -0.3632  0.8749  2.3355
10778TIP3    H253826   5.120   0.453  12.625 -0.0335 -0.9577 -0.0851
10779TIP3   OH253827   1.320   0.102  14.910  0.0996  0.0345  0.0914
10779TIP3    H153828   1.401   0.118  14.959  0.8602 -0.2327 -1.0377
10779TIP3    H253829   1.292   0.188  14.880 -0.0080  0.1202  0.4334
10780TIP3   OH253830   3.615   4.006   3.836 -0.2899 -0.2973 -0.1240
10780TIP3    H153831   3.634   3.943   3.768  0.1978  0.9121 -1.1469
10780TIP3    H253832   3.695   4.058   3.844 -0.9046  0.6380  0.1874
10781TIP3   OH253833   3.835   2.769   2.966  0.2019 -0.2103  0.0494
10781TIP3    H153834   3.749   2.809   2.977  0.7054  1.2098 -0.9570
10781TIP3    H253835   3.829   2.719   2.885  0.7865  1.2784 -0.9541
10782TIP3   OH253836   6.154   5.768   2.815 -0.3125  0.1046  0.7666
10782TIP3    H153837   6.071   5.805   2.787 -0.4238 -0.0449  0.9029
10782TIP3    H253838   6.220   5.825   2.774 -0.4612 -0.4852 -0.3231
10783TIP3   OH253839   5.849   0.336   0.990  0.6369  0.2042  0.1461
10783TIP3    H153840   5.818   0.387   0.915  3.4744  1.2159 -0.4505
10783TIP3    H253841   5.917   0.391   1.030  1.4552 -1.7094  1.5104
10784TIP3   OH253842   6.525   0.959   3.299 -0.0174  0.5422  0.4876
10784TIP3    H153843   6.452   0.923   3.248  0.3198  0.3727  0.1180
10784TIP3    H253844   6.574   0.881   3.327  0.1976  0.6694  0.4644
10785TIP3   OH253845   3.211   1.494  15.562  0.5852  0.5299 -0.5055
10785TIP3    H153846   3.165   1.572  15.592 -0.1618  0.3522 -1.1625
10785TIP3    H253847   3.180   1.480  15.472 -0.9139 -1.7243  0.2743
10786TIP3   OH253848   5.809   3.394  12.565  0.2341 -0.1775 -0.1717
10786TIP3    H153849   5.802   3.471  12.507  0.1891 -0.5099 -0.6132
10786TIP3    H253850   5.870   3.421  12.634  1.2591 -0.1917 -1.0513
10787TIP3   OH253851   0.515   5.156  12.627  0.0536 -0.2644 -0.1687
10787TIP3    H153852   0.469   5.179  12.708  1.2746  0.0176  0.4614
10787TIP3    H253853   0.552   5.070  12.645  0.4125 -0.1552 -0.3865
10788TIP3   OH253854   3.805   2.133  15.577 -0.0330  0.3448 -0.2351
10788TIP3    H153855   3.883   2.187  15.581 -1.2268  2.1212 -0.0830
10788TIP3    H253856   3.837   2.044  15.591  1.9460  1.0196 -0.2130
10789TIP3   OH253857   3.356   1.081   1.112 -0.4769 -0.3692  0.2272
10789TIP3    H153858   3.341   1.156   1.170  2.4415  0.5753 -0.0702
10789TIP3    H253859   3.385   1.011   1.171 -2.1972 -0.9726  0.3892
10790TIP3   OH253860   2.117   4.493  13.844 -0.1850  0.1465 -0.0442
10790TIP3    H153861   2.042   4.478  13.786  0.4404  0.8056 -1.0610
10790TIP3    H253862   2.126   4.588  13.847  0.8402  0.0655 -0.2408
10791TIP3   OH253863   3.579   4.698  15.736  0.0976 -0.3729 -0.0115
10791TIP3    H153864   3.665   4.690  15.776 -0.3461 -0.7558  0.9132
10791TIP3    H253865   3.525   4.633  15.783 -1.3369  1.6085  1.2555
10792TIP3   OH253866   4.952   2.507  16.150 -0.2534  0.4584 -0.1930
10792TIP3    H153867   5.000   2.577  16.106 -0.4078 -0.1609 -1.3880
10792TIP3    H253868   4.861   2.537  16.150 -0.3162  0.2755 -0.6875
10793TIP3   OH253869   6.449   5.829  16.104  0.3474 -0.9108 -0.4868
10793TIP3    H153870   6.398   5.783  16.171  0.9657 -1.7128 -0.5605
10793TIP3    H253871   6.472   5.762  16.041 -0.2211 -0.1615 -1.5273
10794TIP3   OH253872   3.574   4.972  16.593  0.3706 -0.0170 -0.2688
10794TIP3    H153873   3.656   4.976  16.642 -0.0773  1.1426  0.4274
10794TIP3    H253874   3.553   5.063  16.574 -0.8711 -0.2710 -0.2168
10795TIP3   OH253875   0.511   3.116  14.730 -0.1648  0.0509  0.0125
10795TIP3    H153876   0.450   3.057  14.775 -1.5972  1.4995  0.0744
10795TIP3    H253877   0.584   3.060  14.706 -1.9802 -2.0498 -1.0266
10796TIP3   OH253878   0.605   1.097   0.990  0.2856  0.4367  0.0191
10796TIP3    H153879   0.690   1.089   1.034  0.8116  1.1164 -0.8213
10796TIP3    H253880   0.609   1.183   0.947 -1.0641  0.7349  0.4443
10797TIP3   OH253881   5.629   0.580  16.909  0.3511  0.0817  0.7816
10797TIP3    H153882   5.717   0.562  16.876  0.6660 -0.6250  1.9287
10797TIP3    H253883   5.644   0.625  16.992 -0.3917  0.7384  0.5724
10798TIP3   OH253884   5.660   5.049   4.751 -0.0103 -0.4697  0.2383
10798TIP3    H153885   5.680   5.050   4.657 -2.7248  0.0472 -0.4221
10798TIP3    H253886   5.744   5.035   4.793  1.0758 -2.5224 -2.3367
10799TIP3   OH253887   4.523   4.221   4.462  0.4199  0.0644  0.1362
10799TIP3    H153888   4.457   4.181   4.405 -0.6062  0.4153  1.0448
10799TIP3    H253889   4.539   4.307   4.423  0.5530 -0.1293 -0.2407
10800TIP3   OH253890   1.882   1.359   1.228 -0.2843  0.4507  0.1450
10800TIP3    H153891   1.860   1.275   1.268 -0.4856 -0.1229 -1.1198
10800TIP3    H253892   1.973   1.376   1.255  0.0068 -0.5413 -0.1859
10801TIP3   OH253893   3.217   1.196  11.993 -0.1919 -0.1927  0.4947
10801TIP3    H153894   3.234   1.149  11.912  0.3810  1.3650 -0.3382
10801TIP3    H253895   3.174   1.132  12.049  0.3870 -1.6292 -0.6273
10802TIP3   OH253896   1.035   5.797   3.791 -0.3022 -0.0703  0.4528
10802TIP3    H153897   1.077   5.747   3.861 -1.3511 -1.6693 -0.0137
10802TIP3    H253898   0.957   5.836   3.833 -0.2981 -0.0614  0.4522
10803TIP3   OH253899   1.747   2.485   2.822 -0.5309  0.0142  0.1396
10803TIP3    H153900   1.826   2.509   2.870 -1.3862  0.7704  1.2052
10803TIP3    H253901   1.754   2.533   2.740 -0.1316  0.4848  0.4437
10804TIP3   OH253902   5.600   5.189   2.608 -0.3417 -0.2690  0.7396
10804TIP3    H153903   5.598   5.267   2.662  1.0455 -0.2262  0.7792
10804TIP3    H253904   5.581   5.220   2.520  1.1501  0.3069  0.5879
10805TIP3   OH253905   1.005   3.629   0.229  0.3608 -0.0991  0.4784
10805TIP3    H153906   1.011   3.585   0.144  0.0939  0.0557  0.3803
10805TIP3    H253907   0.934   3.585   0.274 -1.6173  1.8236 -0.5724
10806TIP3   OH253908   0.506   4.203  16.238 -0.0414 -0.2734 -0.2988
10806TIP3    H153909   0.539   4.285  16.201  0.2221 -0.2837 -0.0924
10806TIP3    H253910   0.583   4.146  16.242 -0.3113 -0.7009 -0.8843
10807TIP3   OH253911   1.130   6.089   1.564 -0.0459 -0.6318  0.1924
10807TIP3    H153912   1.174   6.010   1.533 -0.0101 -0.2760 -0.7235
10807TIP3    H253913   1.038   6.076   1.541 -0.0950 -0.5466  0.3389
10808TIP3   OH253914   6.251   2.486   1.132 -0.2600 -0.7287 -0.2369
10808TIP3    H153915   6.184   2.527   1.077 -0.1931  0.0385  0.2430
10808TIP3    H253916   6.227   2.393   1.133 -0.9302 -0.5691 -0.6157
10809TIP3   OH253917   2.451   2.858  13.390 -0.0876 -0.4034 -0.0752
10809TIP3    H153918   2.518   2.870  13.457  0.0184 -0.6776 -0.1312
10809TIP3    H253919   2.372   2.897  13.428 -0.3348 -1.6296  0.7175
10810TIP3   OH253920   5.139   6.118   5.158 -0.3289 -0.9693 -0.4829
10810TIP3    H153921   5.233   6.104   5.147 -0.0296  1.0676 -0.8445
10810TIP3    H253922   5.104   6.119   5.069 -0.5980 -1.0386 -0.3793
10811TIP3   OH253923   6.436   5.210   5.050  0.1077  0.1647  0.3904
10811TIP3    H153924   6.373   5.247   5.112 -0.6412 -0.0508 -0.2294
10811TIP3    H253925   6.506   5.276   5.044 -0.6001  0.9094  0.2419
10812TIP3   OH253926   0.125   0.475  11.828 -0.5242 -0.1097 -0.1467
10812TIP3    H153927   0.095   0.384  11.832 -1.0616  0.0851  3.9708
10812TIP3    H253928   0.059   0.519  11.775 -1.9310 -1.5724  0.3085
10813TIP3   OH253929   0.563   1.506   1.580  0.2375  0.4685 -0.2068
10813TIP3    H153930   0.561   1.417   1.546 -1.6934  0.1623  0.5520
10813TIP3    H253931   0.480   1.545   1.551  0.0565  1.2758  1.2509
10814TIP3   OH253932   3.099   3.609   3.259 -0.1234  0.0787 -0.3669
10814TIP3    H153933   3.127   3.564   3.179 -1.3656 -1.6794  0.1096
10814TIP3    H253934   3.067   3.694   3.229 -0.7718 -0.6294 -1.8036
10815TIP3   OH253935   2.956   3.789  16.527  0.4396 -0.1592  0.5581
10815TIP3    H153936   2.990   3.850  16.592 -2.6363 -0.5694  2.8235
10815TIP3    H253937   2.973   3.702  16.564 -0.0801 -0.4523  0.1325
10816TIP3   OH253938   6.695   4.733  16.127  0.0444 -0.0510 -0.2677
10816TIP3    H153939   6.749   4.810  16.141 -0.6537  0.6687 -1.3609
10816TIP3    H253940   6.757   4.661  16.119  0.7141  0.4110  0.6117
10817TIP3   OH253941   4.243   2.362   2.141 -0.3949  0.5321 -0.0290
10817TIP3    H153942   4.259   2.368   2.236 -0.8286 -0.2665  0.1004
10817TIP3    H253943   4.301   2.292   2.111  0.0646  1.0787 -0.4387
10818TIP3   OH253944   2.875   0.046   1.017  0.0184  0.1168  0.8140
10818TIP3    H153945   2.823  -0.028   0.987 -1.7080  1.2863  0.7896
10818TIP3    H253946   2.951   0.006   1.059 -0.5046 -1.6414  0.1817
10819TIP3   OH253947   2.124   3.646   0.980  0.4646 -0.5013 -0.2014
10819TIP3    H153948   2.121   3.669   1.073 -0.2615 -0.4567 -0.2318
10819TIP3    H253949   2.217   3.653   0.957  0.4601  1.0540  0.1219
10820TIP3   OH253950   4.764   2.358   6.016  0.2441  0.2888  0.0239
10820TIP3    H153951   4.834   2.419   6.038  0.0898  0.9990 -1.2911
10820TIP3    H253952   4.728   2.393   5.934 -1.4578 -0.2125  0.5130
10821TIP3   OH253953   0.543   0.012  12.506  0.2913  0.2194 -0.7117
10821TIP3    H153954   0.611   0.059  12.554 -0.0467 -0.4623  0.4863
10821TIP3    H253955   0.495   0.081  12.460 -0.3243  1.1137  1.1573
10822TIP3   OH253956   6.153   1.869   2.997  0.0101  0.3272  0.1050
10822TIP3    H153957   6.070   1.867   3.045 -1.3101  0.8894 -1.9867
10822TIP3    H253958   6.189   1.956   3.013  1.1056 -0.4771  2.3546
10823TIP3   OH253959   3.056   6.283  14.891  0.3224  0.1581 -0.0119
10823TIP3    H153960   2.983   6.226  14.865  1.1115 -1.0618  0.3567
10823TIP3    H253961   3.124   6.266  14.826  1.2253 -0.6960  1.1281
10824TIP3   OH253962   0.505   6.600  15.757  0.4273  0.5050  0.1072
10824TIP3    H153963   0.454   6.668  15.802  0.5153  1.0892 -0.6661
10824TIP3    H253964   0.547   6.552  15.828 -0.6516  0.4349  0.7337
10825TIP3   OH253965   4.262   2.277   1.859 -0.1040 -0.4227  0.1323
10825TIP3    H153966   4.302   2.287   1.772 -0.5478 -0.1177 -0.0393
10825TIP3    H253967   4.185   2.222   1.843 -0.4768  0.0636  0.2439
10826TIP3   OH253968   0.200   4.134   4.756 -0.4113 -0.1238 -0.3956
10826TIP3    H153969   0.146   4.094   4.687  3.2407 -3.0369 -1.9400
10826TIP3    H253970   0.244   4.206   4.712 -1.2261  0.7644  0.2035
10827TIP3   OH253971   0.615   0.437  12.492 -0.0651  0.0082 -0.1535
10827TIP3    H153972   0.654   0.516  12.455  1.5172 -0.1532  1.0152
10827TIP3    H253973   0.538   0.468  12.540  0.9865  1.0200  0.9762
10828TIP3   OH253974   3.114   0.107  14.392 -0.2525 -0.1374 -0.2404
10828TIP3    H153975   3.134   0.145  14.478 -1.5776 -2.3393  1.1322
10828TIP3    H253976   3.018   0.110  14.386 -0.1689  0.4652 -1.9403
10829TIP3   OH253977   5.177   4.810   0.065  0.3442  0.5366 -0.5597
10829TIP3    H153978   5.269   4.786   0.074  0.0969 -0.6433 -0.9860
10829TIP3    H253979   5.130   4.749   0.121 -0.1967  1.0186 -0.4784
10830TIP3   OH253980   5.640   1.608  15.810 -0.5597 -0.7992 -0.3663
10830TIP3    H153981   5.586   1.680  15.778  0.1828 -0.8758 -1.8642
10830TIP3    H253982   5.600   1.584  15.893 -1.8955  0.1651 -0.6941
10831TIP3   OH253983   5.347   3.937  14.439  0.1973  0.2505 -0.5390
10831TIP3    H153984   5.373   3.976  14.355 -0.4160  1.4347 -0.1949
10831TIP3    H253985   5.293   4.004  14.481 -1.4130 -1.2100 -0.1815
10832TIP3   OH253986   4.629   6.310   5.804  0.1714 -0.7446 -0.1838
10832TIP3    H153987   4.658   6.331   5.715  1.5290  0.0413  0.3965
10832TIP3    H253988   4.708   6.324   5.858 -1.3070  1.7446  1.5561
10833TIP3   OH253989   3.271   6.586   0.835 -0.0368  0.1776 -0.2571
10833TIP3    H153990   3.183   6.595   0.872 -0.0310  1.6367 -0.5627
10833TIP3    H253991   3.256   6.563   0.743 -0.1242  1.4167 -0.5617
10834TIP3   OH253992   1.004   6.213  10.657 -0.4412  0.1207  0.0606
10834TIP3    H153993   1.097   6.195  10.648  0.3321  2.8684  1.6336
10834TIP3    H253994   0.970   6.208  10.567  1.1207 -1.1647 -0.5046
10835TIP3   OH253995   6.485   3.308  16.893 -0.4878  0.2378 -0.1139
10835TIP3    H153996   6.402   3.350  16.871 -1.6402 -2.2294 -0.8239
10835TIP3    H253997   6.550   3.379  16.889 -2.3885  2.0399 -0.4981
10836TIP3   OH253998   5.616   0.547   1.981  0.0542 -0.1904  0.2829
10836TIP3    H153999   5.698   0.515   1.943  0.3978  1.5411 -0.5219
10836TIP3    H254000   5.566   0.579   1.906  0.7270  3.2918  1.1709
10837TIP3   OH254001   4.183   2.973  12.488 -0.7469 -0.8134  0.8392
10837TIP3    H154002   4.166   3.045  12.427 -0.0853 -0.9145  0.5225
10837TIP3    H254003   4.169   3.011  12.575 -0.2123 -0.2441  0.6822
10838TIP3   OH254004   6.375   0.451   4.227 -0.4260 -0.1396 -1.0243
10838TIP3    H154005   6.465   0.484   4.230 -0.0050 -1.2906  0.8822
10838TIP3    H254006   6.363   0.406   4.311 -3.2162  1.0417 -0.6609
10839TIP3   OH254007   5.570   4.027   6.027  0.2305  0.4710  0.5226
10839TIP3    H154008   5.648   3.972   6.019  0.1400  0.3086  0.7607
10839TIP3    H254009   5.504   3.970   6.067  0.0992  0.7146  0.6557
10840TIP3   OH254010   3.698   3.469   5.200 -0.3067  0.2826  0.7046
10840TIP3    H154011   3.685   3.403   5.267 -0.6886  0.1274  0.4776
10840TIP3    H254012   3.790   3.493   5.207 -0.4315  0.5510  1.5475
10841TIP3   OH254013   5.432   0.278  13.188  0.1586  0.1623  0.0837
10841TIP3    H154014   5.486   0.355  13.205 -0.3293  1.7077 -4.2682
10841TIP3    H254015   5.493   0.211  13.157  0.0461  0.6526 -1.2457
10842TIP3   OH254016   5.536   3.458  14.365 -0.1153  0.2565  0.1410
10842TIP3    H154017   5.472   3.498  14.424  1.3123  0.7612  1.4088
10842TIP3    H254018   5.605   3.524  14.356  0.0151 -0.0670 -1.6014
10843TIP3   OH254019   1.930   3.298  13.765  0.4277 -0.5304  0.4918
10843TIP3    H154020   1.846   3.255  13.749  1.4703 -1.8491 -1.8886
10843TIP3    H254021   1.910   3.366  13.830 -2.1728 -1.7002  1.0334
10844TIP3   OH254022   3.648   4.688  14.517  0.1379  0.1159  0.0597
10844TIP3    H154023   3.571   4.691  14.460  1.0185 -0.6000 -1.2197
10844TIP3    H254024   3.711   4.745  14.475  0.9790 -0.8081  0.0367
10845TIP3   OH254025   0.838   1.008   4.821 -0.0975  0.0489 -0.2374
10845TIP3    H154026   0.872   0.920   4.807 -1.8664 -0.4109 -2.2603
10845TIP3    H254027   0.747   1.003   4.791 -0.5437  2.3383  0.5329
10846TIP3   OH254028   1.110   4.468  12.166  0.1709  0.1105 -0.4175
10846TIP3    H154029   1.107   4.373  12.164 -2.0026  0.1249 -0.2385
10846TIP3    H254030   1.146   4.492  12.081  1.8561 -0.8522 -0.0178
10847TIP3   OH254031   5.650   5.944  16.206 -0.1808  0.5837 -0.0508
10847TIP3    H154032   5.564   5.901  16.206  0.4487 -0.7444  0.6381
10847TIP3    H254033   5.677   5.944  16.114 -0.1826 -0.5779 -0.0659
10848TIP3   OH254034   5.106   2.093   5.938 -0.1837  0.0209  0.1919
10848TIP3    H154035   5.040   2.092   5.868 -0.9675 -1.6355  0.9058
10848TIP3    H254036   5.058   2.120   6.016  0.6499  1.6796  0.1699
10849TIP3   OH254037   2.294   5.758   1.780  0.2935  0.3078 -0.5921
10849TIP3    H154038   2.356   5.826   1.806  1.6382 -0.9591 -0.3713
10849TIP3    H254039   2.241   5.743   1.858  0.8870  0.1460 -0.2175
10850TIP3   OH254040   3.950   4.938   5.561 -0.0165  0.5010 -0.3867
10850TIP3    H154041   3.895   5.002   5.606  1.5128  0.0001  2.3672
10850TIP3    H254042   4.037   4.979   5.559  0.3814 -0.3549 -1.1321
10851TIP3   OH254043   0.988   3.194  16.199  0.3670 -0.1216  0.0868
10851TIP3    H154044   0.908   3.161  16.158 -0.0776  0.2128  0.6649
10851TIP3    H254045   1.007   3.276  16.153 -0.1562  0.2769  0.5685
10852TIP3   OH254046   0.766   3.646   1.836  0.0560  0.2812 -0.5677
10852TIP3    H154047   0.720   3.576   1.882  0.5492 -0.7005 -1.5313
10852TIP3    H254048   0.706   3.721   1.841  0.0963  0.2263  1.6386
10853TIP3   OH254049   1.697   5.645   3.846 -0.5129 -0.0983 -0.3144
10853TIP3    H154050   1.724   5.561   3.883  0.7231  0.7655  0.8439
10853TIP3    H254051   1.724   5.641   3.755 -0.3904 -0.9269 -0.2488
10854TIP3   OH254052   3.431   2.670   4.076 -0.2520  0.7072  0.4270
10854TIP3    H154053   3.419   2.765   4.083 -0.5058  0.7075  0.0010
10854TIP3    H254054   3.399   2.636   4.159  2.8849  1.2474  2.0230
10855TIP3   OH254055   5.850   3.295   3.570  0.6649 -0.7945  0.1053
10855TIP3    H154056   5.906   3.326   3.642  1.0258 -0.4057 -0.3369
10855TIP3    H254057   5.800   3.372   3.543  1.2263 -0.7002 -0.6941
10856TIP3   OH254058   5.854   0.464   3.281  0.0380  0.6756  0.0241
10856TIP3    H154059   5.769   0.475   3.239  0.0965  0.9148 -0.0366
10856TIP3    H254060   5.855   0.531   3.350  0.4615  1.1689 -0.4456
10857TIP3   OH254061   5.196   0.120   5.495 -0.6398 -0.2031  0.9123
10857TIP3    H154062   5.173   0.200   5.542 -2.9382 -1.1275  1.4629
10857TIP3    H254063   5.183   0.050   5.559  1.0360 -1.0845  0.3534
10858TIP3   OH254064   5.097   5.817   5.991  0.0760  0.9952  0.5711
10858TIP3    H154065   5.134   5.806   6.078  1.4171  1.1752  0.0487
10858TIP3    H254066   5.022   5.758   5.989  0.6485  0.2029  1.4965
10859TIP3   OH254067   2.515   2.354   2.974 -0.8140  0.0832  0.0625
10859TIP3    H154068   2.441   2.328   2.918  0.6220  0.9609 -2.3989
10859TIP3    H254069   2.554   2.271   3.001 -1.8785 -0.3695  0.2832
10860TIP3   OH254070   4.640   1.753  11.960 -0.0859  0.1954 -0.1287
10860TIP3    H154071   4.696   1.676  11.948 -0.0431  0.1881  0.1082
10860TIP3    H254072   4.653   1.778  12.052 -1.9923 -1.0183  0.5175
10861TIP3   OH254073   4.898   0.131  16.155 -0.0017  0.6248 -0.0374
10861TIP3    H154074   4.971   0.135  16.216  0.5140 -0.3349 -0.5698
10861TIP3    H254075   4.882   0.222  16.130  1.2694  0.8078 -0.2263
10862TIP3   OH254076   4.747   1.007  15.851 -0.1544 -0.2014  0.8405
10862TIP3    H154077   4.784   1.000  15.938 -0.9066  0.0290  1.1909
10862TIP3    H254078   4.681   0.938  15.846  0.2399 -0.5479  0.2646
10863TIP3   OH254079   2.095   0.484   2.092 -0.0694 -0.1081  0.3457
10863TIP3    H154080   2.032   0.525   2.032 -0.8974  0.4396  1.5350
10863TIP3    H254081   2.041   0.428   2.148  0.7170 -0.8068  0.4189
10864TIP3   OH254082   3.351   4.395   2.476  0.0653  0.3360 -0.9481
10864TIP3    H154083   3.424   4.456   2.465  1.6891 -1.1712  0.7111
10864TIP3    H254084   3.383   4.313   2.438 -0.7013 -0.3941 -0.0488
10865TIP3   OH254085   2.949   0.032  10.938 -0.1588 -0.5761 -0.0422
10865TIP3    H154086   2.933   0.093  11.010  0.3222  1.6375 -1.6931
10865TIP3    H254087   2.916   0.078  10.861  1.1429 -2.0007 -1.5181
10866TIP3   OH254088   4.763   6.628  15.294  0.1170 -0.5110  0.9715
10866TIP3    H154089   4.824   6.686  15.341  1.8155 -0.6011 -0.9966
10866TIP3    H254090   4.807   6.544  15.291 -0.3692 -0.7482  0.0415
10867TIP3   OH254091   5.664   6.299   1.526 -0.1564  0.1131 -0.1236
10867TIP3    H154092   5.670   6.298   1.431  0.8523 -1.5032 -0.0877
10867TIP3    H254093   5.573   6.322   1.544  0.0361  2.1136 -1.4048
10868TIP3   OH254094   4.864   3.082   5.453 -0.4896  0.0499  0.1206
10868TIP3    H154095   4.953   3.114   5.440 -1.4633  2.1508 -2.2720
10868TIP3    H254096   4.825   3.141   5.517 -0.5523 -0.0297  0.1566
10869TIP3   OH254097   1.074   3.950  16.060  0.3762 -0.2696 -0.5065
10869TIP3    H154098   1.054   3.992  15.977  2.4346  0.7046 -0.5712
10869TIP3    H254099   1.166   3.925  16.053  1.0642  1.1902  2.0093
10870TIP3   OH254100   6.429   1.220  14.553 -0.2217 -0.4972  0.3852
10870TIP3    H154101   6.454   1.168  14.477  1.5201  0.3625  0.3079
10870TIP3    H254102   6.414   1.156  14.622  0.1318 -1.1924 -0.1687
10871TIP3   OH254103   4.336   2.365   0.705 -0.1246  0.4121  0.4876
10871TIP3    H154104   4.348   2.274   0.675 -0.7968  0.6225 -0.4706
10871TIP3    H254105   4.364   2.364   0.796 -1.8203 -1.1722  1.0592
10872TIP3   OH254106   6.389   4.167   4.978  0.4058  0.1543  0.2190
10872TIP3    H154107   6.354   4.233   4.918  0.5303 -1.0460 -1.2704
10872TIP3    H254108   6.470   4.138   4.936 -1.2673 -3.2844 -1.0504
10873TIP3   OH254109   5.650   3.610  16.504 -0.8480  0.5065  0.7355
10873TIP3    H154110   5.590   3.545  16.540 -0.1184 -0.2479  0.6125
10873TIP3    H254111   5.736   3.567  16.506 -0.1482  1.8606  1.7105
10874TIP3   OH254112   4.633   1.394   0.762 -0.0616 -0.0928  0.0288
10874TIP3    H154113   4.692   1.420   0.692  0.0355 -2.5801 -0.9411
10874TIP3    H254114   4.687   1.396   0.841  0.9138 -0.7924 -0.5881
10875TIP3   OH254115   0.825   5.333   5.474  0.2501  0.3001 -0.0249
10875TIP3    H154116   0.831   5.422   5.508  1.6518 -0.0959  0.8592
10875TIP3    H254117   0.752   5.294   5.522 -0.0174  0.7991 -0.0175
10876TIP3   OH254118   6.627   3.733  16.831 -0.0358  0.5180  0.4692
10876TIP3    H154119   6.670   3.649  16.848 -0.8528 -0.0113  0.0471
10876TIP3    H254120   6.691   3.799  16.857  1.2746 -0.2205 -0.6976
10877TIP3   OH254121   4.753   5.664  11.414  0.0877 -0.5560 -0.0478
10877TIP3    H154122   4.729   5.582  11.369  1.9421 -1.5050  0.5610
10877TIP3    H254123   4.809   5.709  11.351  0.3335 -0.5143  0.1977
10878TIP3   OH254124   3.439   2.224   6.160 -0.1910  0.1263 -0.4021
10878TIP3    H154125   3.454   2.171   6.082  2.5464  2.5974 -1.7781
10878TIP3    H254126   3.502   2.190   6.224 -1.2308 -0.7878  0.1591
10879TIP3   OH254127   4.095   6.375  14.431 -0.1081  0.3411  0.1135
10879TIP3    H154128   4.162   6.319  14.470 -2.2222 -1.4646  1.3283
10879TIP3    H254129   4.105   6.459  14.475  0.6798 -0.2229  1.0407
10880TIP3   OH254130   6.083   4.357  13.432 -0.0983  0.2043  0.2247
10880TIP3    H154131   6.123   4.336  13.347 -1.7127  2.4002 -1.1718
10880TIP3    H254132   6.018   4.288  13.445  1.0948 -0.9279  0.3955
10881TIP3   OH254133   5.197   1.108   1.672  0.5879  0.3780 -0.2716
10881TIP3    H154134   5.186   1.062   1.755 -0.2833  2.7389  1.0041
10881TIP3    H254135   5.276   1.161   1.684  1.3851 -0.4413 -1.5881
10882TIP3   OH254136   6.667   6.198  11.026 -0.3309 -0.5390 -0.3197
10882TIP3    H154137   6.588   6.251  11.014  0.2011  0.5194  0.5791
10882TIP3    H254138   6.725   6.254  11.079  0.3774 -1.9154  0.4134
10883TIP3   OH254139   2.844   0.703  10.836  0.2172  0.4447  0.1198
10883TIP3    H154140   2.870   0.613  10.856  1.5617  0.7915  0.0026
10883TIP3    H254141   2.762   0.715  10.883  0.9825 -0.2279  1.6896
10884TIP3   OH254142   1.308   6.000   0.190 -0.1528  0.2336  0.6495
10884TIP3    H154143   1.287   6.029   0.101  0.2051  1.2260  0.8755
10884TIP3    H254144   1.247   6.050   0.245  0.6099  0.7225  1.0625
10885TIP3   OH254145   0.110   0.955   4.857 -0.0546  0.7147  0.2832
10885TIP3    H154146   0.146   0.868   4.875 -1.3748  0.7090  3.5842
10885TIP3    H254147   0.169   0.992   4.791 -0.1387 -3.0679 -2.2449
10886TIP3   OH254148   5.382   3.014   1.957 -0.1976  0.8023 -0.2674
10886TIP3    H154149   5.303   3.067   1.970 -0.7835 -0.4330  1.6845
10886TIP3    H254150   5.354   2.945   1.896 -1.1411 -0.4751  1.5090
10887TIP3   OH254151   6.430   0.786   2.514 -0.3613  0.5175  0.2779
10887TIP3    H154152   6.350   0.766   2.466 -0.5281  1.2156  0.2545
10887TIP3    H254153   6.500   0.757   2.455 -0.4660  3.5448 -1.5584
10888TIP3   OH254154   2.241   6.648   5.532  0.5714 -0.1761  0.3376
10888TIP3    H154155   2.310   6.684   5.588  0.7655 -0.8441  0.5366
10888TIP3    H254156   2.190   6.724   5.505  1.3485  0.3207  0.2452
10889TIP3   OH254157   3.674   0.878   5.954  0.4598 -0.1033 -0.0801
10889TIP3    H154158   3.670   0.898   6.048  0.1514 -0.0464 -0.1021
10889TIP3    H254159   3.757   0.915   5.925  1.0912 -1.1312  0.3980
10890TIP3   OH254160   6.660   4.669  13.344  0.0068  0.5991  0.4347
10890TIP3    H154161   6.698   4.638  13.426  0.9659  2.4481  0.7585
10890TIP3    H254162   6.590   4.729  13.372 -0.0662  0.7694 -0.0984
10891TIP3   OH254163   0.104   1.054   0.028 -0.3151  0.4457 -0.0117
10891TIP3    H154164   0.050   1.086   0.100 -2.8422 -1.0617 -1.1383
10891TIP3    H254165   0.049   1.060  -0.049  0.7638 -2.0300 -1.0805
10892TIP3   OH254166   5.920   5.498   2.812 -0.3954  0.2128 -0.3305
10892TIP3    H154167   5.950   5.414   2.849  0.5026  1.4897  2.0773
10892TIP3    H254168   5.999   5.535   2.772 -1.0347 -0.4855 -2.3938
10893TIP3   OH254169   5.025   6.657  14.145  0.2668  0.3182 -0.1345
10893TIP3    H154170   5.106   6.707  14.152  0.1413  0.4049  0.9058
10893TIP3    H254171   5.000   6.638  14.236 -0.2347 -0.7538 -0.4733
10894TIP3   OH254172   1.905   4.673   5.759  0.1682 -0.6515  0.1727
10894TIP3    H154173   1.854   4.727   5.698 -0.0446 -2.3756 -1.2724
10894TIP3    H254174   1.918   4.729   5.836 -2.1895  0.5370 -0.2054
10895TIP3   OH254175   3.342   3.851  14.900 -0.0798 -0.3304  0.1672
10895TIP3    H154176   3.305   3.921  14.846  1.1398 -0.6223 -1.1095
10895TIP3    H254177   3.335   3.773  14.846  2.0215 -0.4618  0.0021
10896TIP3   OH254178   4.876   3.371  11.323  0.0459 -0.8163 -0.3837
10896TIP3    H154179   4.816   3.311  11.278 -0.8803 -0.3286  0.1727
10896TIP3    H254180   4.863   3.455  11.279  0.5997 -0.7758 -0.4868
10897TIP3   OH254181   1.944   2.869   1.013 -0.4797  0.3183 -0.7631
10897TIP3    H154182   1.996   2.927   0.957 -0.4770  0.3930 -0.6826
10897TIP3    H254183   2.007   2.831   1.074 -0.4852  0.2468 -0.8008
10898TIP3   OH254184   2.379   6.696  13.674  0.1787  0.2330 -0.1966
10898TIP3    H154185   2.472   6.696  13.652  0.4139  0.3083  0.7680
10898TIP3    H254186   2.370   6.764  13.740 -0.4611 -0.1754  0.1448
10899TIP3   OH254187   6.197   2.182  13.298 -0.0698  0.4117  0.6382
10899TIP3    H154188   6.103   2.187  13.283  0.1594  0.8273 -0.8002
10899TIP3    H254189   6.220   2.091  13.279  0.2420  0.9636 -1.9766
10900TIP3   OH254190   0.629   6.150  16.750 -0.4124 -0.0168  0.3110
10900TIP3    H154191   0.540   6.121  16.731  0.1770 -1.3561 -0.5473
10900TIP3    H254192   0.669   6.076  16.796 -0.1698  1.1432  2.0907
10901TIP3   OH254193   6.133   5.212  16.822  0.1767 -0.6773  0.0930
10901TIP3    H154194   6.228   5.212  16.830  0.0251 -0.9733  3.2847
10901TIP3    H254195   6.111   5.302  16.798  1.2009  0.0736  1.7468
10902TIP3   OH254196   3.669   3.577   3.281 -0.3738  0.3193 -0.6782
10902TIP3    H154197   3.718   3.636   3.224  0.0504 -1.5851 -2.3807
10902TIP3    H254198   3.580   3.577   3.246 -0.5029  0.3527 -0.3559
10903TIP3   OH254199   4.085   3.774  15.210 -0.1535 -0.3491  0.4470
10903TIP3    H154200   4.101   3.783  15.304 -1.5719  0.9595  0.5985
10903TIP3    H254201   4.036   3.692  15.202 -0.3471 -0.2789  0.8800
10904TIP3   OH254202   4.423   5.120   3.486  0.5272 -0.0309 -0.0183
10904TIP3    H154203   4.418   5.213   3.510 -0.9080 -0.2322  0.5441
10904TIP3    H254204   4.447   5.120   3.393  1.5281  0.8641  0.2169
10905TIP3   OH254205   5.394   6.697  16.759 -0.1219  0.4323  0.3112
10905TIP3    H154206   5.353   6.760  16.700  0.1022  2.3318  2.0666
10905TIP3    H254207   5.359   6.718  16.846  0.7282 -1.2152  1.1056
10906TIP3   OH254208   2.899   0.419   5.589  0.0761  0.1695 -0.0552
10906TIP3    H154209   2.902   0.335   5.635 -0.7871 -0.5044 -1.1716
10906TIP3    H254210   2.986   0.429   5.551 -0.2367 -0.9787 -1.1517
10907TIP3   OH254211   3.354   1.030  15.762  0.1347 -0.2063 -0.5000
10907TIP3    H154212   3.307   1.066  15.687 -2.2741 -1.5514  0.2608
10907TIP3    H254213   3.406   0.959  15.726 -1.7360 -1.4731 -0.8593
10908TIP3   OH254214   5.135   4.432  15.029 -0.4941 -0.4861 -0.7087
10908TIP3    H154215   5.137   4.367  15.100  0.7086 -0.5776 -0.8021
10908TIP3    H254216   5.211   4.411  14.975 -0.3652  0.7078 -1.0178
10909TIP3   OH254217   0.456   1.656   1.303 -0.3857 -0.4734  0.3607
10909TIP3    H154218   0.426   1.719   1.238 -0.0364 -1.3194 -0.6467
10909TIP3    H254219   0.488   1.710   1.375 -0.1590  0.5009 -0.4431
10910TIP3   OH254220   5.604   5.177  14.130  0.2248 -0.2660 -0.3782
10910TIP3    H154221   5.670   5.156  14.196  0.5130  0.3093 -0.4705
10910TIP3    H254222   5.520   5.159  14.172  0.3351  1.4090  0.6477
10911TIP3   OH254223   1.864   5.464  16.417  0.3741 -0.0695  0.7553
10911TIP3    H154224   1.817   5.544  16.438  0.7991  0.4386 -0.1850
10911TIP3    H254225   1.882   5.423  16.502 -0.1520  0.6495  1.2160
10912TIP3   OH254226   4.242   6.017  17.288 -0.0267  0.1028  0.0521
10912TIP3    H154227   4.198   6.069  17.220 -0.9814  0.3035  0.8001
10912TIP3    H254228   4.190   6.033  17.367  1.7388  0.8178  1.1200
10913TIP3   OH254229   1.789   1.392  14.539  0.2423  0.3917  0.0237
10913TIP3    H154230   1.801   1.458  14.470 -0.0967  1.3185  0.8350
10913TIP3    H254231   1.878   1.370  14.567  0.3258  1.2029  0.3978
10914TIP3   OH254232   2.261   0.522   6.441 -0.2598  0.0367 -0.2445
10914TIP3    H154233   2.294   0.442   6.400 -0.1127  0.5257 -1.1066
10914TIP3    H254234   2.288   0.592   6.382 -0.2319  0.7477  0.5849
10915TIP3   OH254235   5.960   0.689   0.293 -0.3509 -0.3342 -0.6177
10915TIP3    H154236   5.982   0.780   0.274 -0.9571  0.1676  0.8628
10915TIP3    H254237   5.920   0.693   0.380 -1.7136 -1.8304 -1.1360
10916TIP3   OH254238   1.893   6.173   2.335  0.1759 -0.3344  0.1338
10916TIP3    H154239   1.865   6.125   2.413  1.2959 -0.6930  0.3284
10916TIP3    H254240   1.948   6.112   2.287  0.0722  0.1287 -0.5890
10917TIP3   OH254241   4.373   2.153  17.480 -0.1219 -0.2808  0.1810
10917TIP3    H154242   4.321   2.149  17.560 -0.3422 -0.9964  0.0083
10917TIP3    H254243   4.332   2.222  17.427  1.5894  2.1021  1.7498
10918TIP3   OH254244   3.131   3.236  15.151  0.4013 -0.7923  0.1163
10918TIP3    H154245   3.115   3.141  15.158  2.5957 -1.2520 -0.1918
10918TIP3    H254246   3.101   3.271  15.235  0.3873 -1.9270  0.6114
10919TIP3   OH254247   0.871   3.020   4.641  0.1203 -0.5306 -0.3639
10919TIP3    H154248   0.872   3.014   4.546 -4.4292 -1.0283 -0.5937
10919TIP3    H254249   0.857   3.112   4.660  2.3746 -0.2026  0.0028
10920TIP3   OH254250   0.304   4.844  12.109 -0.1902 -0.1359  0.1361
10920TIP3    H154251   0.319   4.750  12.110  1.1921 -0.0603 -2.8795
10920TIP3    H254252   0.214   4.855  12.142  0.7343 -2.0687  3.8788
10921TIP3   OH254253   4.406   3.278   1.973 -0.3317  0.4712 -0.2244
10921TIP3    H154254   4.495   3.246   1.961 -0.3695  0.9406 -2.1798
10921TIP3    H254255   4.351   3.200   1.961 -0.1935 -0.0537  2.1415
10922TIP3   OH254256   5.049   6.203   2.273 -0.5688 -0.0652  0.0819
10922TIP3    H154257   5.097   6.126   2.244  1.4783  1.6643 -1.3725
10922TIP3    H254258   5.059   6.203   2.368 -0.5433 -1.5250  0.0950
10923TIP3   OH254259   4.653   3.498  14.782  0.2947 -0.3639  0.0274
10923TIP3    H154260   4.708   3.479  14.858 -0.5876 -3.2178  0.0831
10923TIP3    H254261   4.566   3.467  14.808 -0.8200  1.7832 -0.9399
10924TIP3   OH254262   0.800   2.724  12.122 -0.5243 -0.1690 -0.1801
10924TIP3    H154263   0.729   2.785  12.101 -0.5005  0.5118  1.5181
10924TIP3    H254264   0.877   2.780  12.131 -0.5540 -0.3607  1.6714
10925TIP3   OH254265   2.453   0.993   5.070  0.6334 -0.3702  0.0824
10925TIP3    H154266   2.371   1.027   5.034  1.2781  1.4800  0.2696
10925TIP3    H254267   2.429   0.907   5.105 -0.6115 -1.0706 -2.2555
10926TIP3   OH254268   5.343   5.919  15.455 -0.0349  0.0527  0.2425
10926TIP3    H154269   5.364   6.007  15.487 -2.2416  1.6667 -2.3127
10926TIP3    H254270   5.354   5.925  15.360  0.2356 -2.6307  0.0308
10927TIP3   OH254271   2.881   1.993   0.230 -0.2348  0.0618  0.4011
10927TIP3    H154272   2.789   1.964   0.227  0.2348 -1.5926  0.9101
10927TIP3    H254273   2.922   1.935   0.294  1.3264  0.3286 -0.3139
10928TIP3   OH254274   3.358   5.240   5.414  0.1121 -0.6257  0.1729
10928TIP3    H154275   3.349   5.246   5.319 -0.0024 -1.2462  0.1407
10928TIP3    H254276   3.433   5.295   5.435 -1.3334  1.5086 -0.0030
10929TIP3   OH254277   2.697   4.954   3.229  0.2084 -0.6428  0.4103
10929TIP3    H154278   2.733   4.866   3.243 -0.6616 -1.0892 -0.1048
10929TIP3    H254279   2.629   4.942   3.163 -2.1255 -0.1500  2.5613
10930TIP3   OH254280   5.772   4.134   1.461 -0.3201 -0.2240 -0.1185
10930TIP3    H154281   5.755   4.228   1.459  0.8806  0.0097 -1.6105
10930TIP3    H254282   5.866   4.126   1.441  0.0535 -1.6598  1.8647
10931TIP3   OH254283   2.842   5.213  12.633  1.0370 -0.4238  0.2180
10931TIP3    H154284   2.837   5.121  12.658 -1.8924 -0.0596  1.4453
10931TIP3    H254285   2.840   5.213  12.538  0.9215 -1.6299  0.2087
10932TIP3   OH254286   5.354   6.035   3.655  0.5124  0.3741  0.2176
10932TIP3    H154287   5.299   6.059   3.729  0.6416 -0.9483  0.7748
10932TIP3    H254288   5.402   5.957   3.685  0.0922 -0.5865 -1.4771
10933TIP3   OH254289   1.944   0.764  17.333 -0.1864  0.2591  0.7114
10933TIP3    H154290   1.971   0.830  17.269 -0.1828 -0.2408  0.1945
10933TIP3    H254291   1.849   0.775  17.340 -0.3544 -0.4560 -0.2630
10934TIP3   OH254292   4.985   0.077  15.021  0.3165 -0.1834 -0.1088
10934TIP3    H154293   4.993  -0.011  14.983  0.7608  0.5663 -1.8537
10934TIP3    H254294   5.074   0.100  15.047  0.5459  0.4249 -1.3335
10935TIP3   OH254295   6.310   6.137   3.854  0.6067 -0.1519 -0.2062
10935TIP3    H154296   6.232   6.192   3.854 -0.5547 -1.6876 -1.6528
10935TIP3    H254297   6.372   6.183   3.911 -0.5488  2.2244 -0.7277
10936TIP3   OH254298   5.891   4.180  16.311 -0.0516 -0.1997 -0.0993
10936TIP3    H154299   5.971   4.159  16.358  0.2368 -2.6265 -1.5090
10936TIP3    H254300   5.821   4.138  16.362 -0.2953  0.7830  0.4063
10937TIP3   OH254301   6.240   3.509   5.419  0.2533  0.0090  0.0605
10937TIP3    H154302   6.246   3.448   5.493 -2.0331 -0.5057 -0.0947
10937TIP3    H254303   6.146   3.510   5.396  0.8404  0.2837 -2.7189
10938TIP3   OH254304   2.093   0.450  12.107  0.0139 -0.1580  0.0207
10938TIP3    H154305   2.074   0.538  12.139  0.5325  0.0583 -0.2480
10938TIP3    H254306   2.180   0.458  12.067  0.4404 -0.9922  0.7682
10939TIP3   OH254307   4.680   0.314   3.161 -0.0104 -0.1384  0.5153
10939TIP3    H154308   4.637   0.369   3.227 -0.8995 -0.5960  0.3296
10939TIP3    H254309   4.609   0.281   3.107  0.6318 -0.4779 -0.1461
10940TIP3   OH254310   0.530   3.441  16.531  0.3197  0.6154 -0.1096
10940TIP3    H154311   0.507   3.379  16.600 -1.9693  0.7089 -0.6904
10940TIP3    H254312   0.595   3.396  16.477  0.3444 -0.3891  0.7369
10941TIP3   OH254313   1.822   5.517  13.091 -0.5501 -0.2618  0.2407
10941TIP3    H154314   1.787   5.429  13.099  0.6461 -0.8524 -0.7850
10941TIP3    H254315   1.809   5.540  12.999 -1.6733  1.0113  0.6750
10942TIP3   OH254316   6.567   6.193  11.443  0.2373 -0.5361 -0.1530
10942TIP3    H154317   6.504   6.250  11.487  1.4282  0.5480  0.2157
10942TIP3    H254318   6.560   6.216  11.350  2.9335  2.6943  0.2466
10943TIP3   OH254319   6.150   2.787   6.564  0.2283 -0.1309  0.3967
10943TIP3    H154320   6.060   2.765   6.538  0.4323 -1.0971  0.4932
10943TIP3    H254321   6.192   2.816   6.483 -0.1166  0.1715  0.3203
10944TIP3   OH254322   3.886   5.722  16.441  0.2444  0.4894 -0.4210
10944TIP3    H154323   3.813   5.737  16.501  1.3287  0.9058  0.8335
10944TIP3    H254324   3.882   5.795  16.379 -0.3414  0.5520 -0.3142
10945TIP3   OH254325   1.180   3.491   1.448 -0.1479  0.2039  0.9138
10945TIP3    H154326   1.191   3.420   1.511 -1.4278  0.6483  1.6635
10945TIP3    H254327   1.196   3.571   1.498 -2.4167  0.6381  1.0578
10946TIP3   OH254328   4.246   4.335  14.141  0.2548  0.3543  0.3575
10946TIP3    H154329   4.294   4.265  14.184  2.0928  1.1963 -0.2343
10946TIP3    H254330   4.211   4.296  14.061 -0.4933 -0.3926  1.0325
10947TIP3   OH254331   4.307   0.894   1.733  0.3864  0.2953  0.0773
10947TIP3    H154332   4.400   0.912   1.750  0.8576 -0.6741 -1.3033
10947TIP3    H254333   4.277   0.969   1.681  0.9433 -0.3118 -1.1588
10948TIP3   OH254334   4.444   1.466  11.909  0.3759  0.0821 -0.3479
10948TIP3    H154335   4.500   1.504  11.842  0.0864  1.6356  0.2218
10948TIP3    H254336   4.355   1.489  11.882 -0.0314 -2.2210 -1.1665
10949TIP3   OH254337   3.535   4.178   2.926  0.0688  0.4508 -0.6844
10949TIP3    H154338   3.451   4.209   2.893 -0.3041 -0.0647 -0.2239
10949TIP3    H254339   3.545   4.219   3.011  0.2040  0.3802 -0.6656
10950TIP3   OH254340   3.343   1.021   2.719  0.3517 -0.1748  0.5815
10950TIP3    H154341   3.348   1.071   2.801  3.1124  0.6179  0.0390
10950TIP3    H254342   3.374   1.081   2.652  0.3789 -1.5273 -0.6738
10951TIP3   OH254343   6.209   5.179   3.456  0.2690  0.9017 -0.2718
10951TIP3    H154344   6.129   5.180   3.403  0.6413 -0.1005 -0.8752
10951TIP3    H254345   6.182   5.136   3.538  0.6716 -1.5298 -1.3394
10952TIP3   OH254346   1.803   5.330  11.803 -0.2004  0.2899 -0.1731
10952TIP3    H154347   1.808   5.422  11.777  0.4155  0.3260  0.0436
10952TIP3    H254348   1.849   5.327  11.887  0.9133 -0.4229 -0.7759
10953TIP3   OH254349   3.631   0.618   0.821  0.5463 -0.5702 -0.0277
10953TIP3    H154350   3.667   0.692   0.772  0.2900 -0.9090 -0.7371
10953TIP3    H254351   3.597   0.559   0.754 -0.9011 -0.4765  0.5955
10954TIP3   OH254352   1.279   1.790  16.575  0.2770  0.2624  0.0241
10954TIP3    H154353   1.348   1.838  16.530  0.4990 -0.1915 -0.1300
10954TIP3    H254354   1.283   1.702  16.538 -0.6512  0.3385 -0.2739
10955TIP3   OH254355   1.744   5.015   5.509 -0.0442 -0.5584  0.0681
10955TIP3    H154356   1.656   5.047   5.527  0.1939 -0.5180  1.2525
10955TIP3    H254357   1.800   5.092   5.517  0.0859 -0.5275 -0.9570
10956TIP3   OH254358   6.536   5.616  12.897 -0.4348  0.5349  0.2061
10956TIP3    H154359   6.558   5.626  12.805 -1.2259  0.1017 -0.0433
10956TIP3    H254360   6.447   5.652  12.904 -1.7453 -2.3719  0.0924
10957TIP3   OH254361   1.329   3.284  16.763 -0.1535  0.0986  0.2937
10957TIP3    H154362   1.355   3.252  16.850  1.7957  1.5549  0.3087
10957TIP3    H254363   1.252   3.338  16.779  0.9462  1.4187  1.3493
10958TIP3   OH254364   2.708   6.475   5.043  0.2829  0.2980 -0.1416
10958TIP3    H154365   2.779   6.531   5.010 -0.3049  0.8989 -0.4251
10958TIP3    H254366   2.687   6.510   5.129  2.6639 -2.0465  1.5384
10959TIP3   OH254367   2.042   3.948   3.522 -0.1345  0.2474 -0.2480
10959TIP3    H154368   2.115   3.954   3.460 -0.5806  4.1751 -0.6506
10959TIP3    H254369   1.975   4.004   3.485 -2.1351 -0.6579  1.7603
10960TIP3   OH254370   1.683   1.136  14.954  0.2195  0.3577 -0.0820
10960TIP3    H154371   1.675   1.130  14.859  0.1854  0.3413 -0.0777
10960TIP3    H254372   1.728   1.219  14.969 -0.8887  0.9721 -0.0486
10961TIP3   OH254373   3.281   4.546  16.723 -0.2340  0.1966  0.7376
10961TIP3    H154374   3.308   4.623  16.772  0.7620 -0.7149  1.7016
10961TIP3    H254375   3.360   4.491  16.719 -0.9977 -0.9219  0.4055
10962TIP3   OH254376   5.600   1.311  13.249 -0.5596  0.0475 -0.8315
10962TIP3    H154377   5.628   1.397  13.282 -1.3597  0.5407 -1.4020
10962TIP3    H254378   5.677   1.256  13.258 -0.1190  0.7460 -0.1666
10963TIP3   OH254379   0.517   1.660  15.867  0.1760  0.5519 -0.2542
10963TIP3    H154380   0.557   1.721  15.804 -0.0583  0.7606 -0.2025
10963TIP3    H254381   0.431   1.641  15.830  0.5269 -0.3240 -0.6435
10964TIP3   OH254382   2.876   4.582  14.984  0.1891  0.1092  0.1686
10964TIP3    H154383   2.904   4.658  14.933 -0.7547  0.2424 -0.1680
10964TIP3    H254384   2.784   4.571  14.962 -0.6686  1.0496  2.9364
10965TIP3   OH254385   0.124   1.524  14.236  0.5581  0.3616  0.2867
10965TIP3    H154386   0.206   1.501  14.280  0.9748 -0.1408 -0.7287
10965TIP3    H254387   0.140   1.611  14.200  1.4355 -0.5685 -1.7162
10966TIP3   OH254388   6.297   0.158  16.645  0.9316 -0.1398 -0.1698
10966TIP3    H154389   6.245   0.222  16.694  0.3756 -0.9407  0.3154
10966TIP3    H254390   6.303   0.193  16.557  0.6294  0.5741  0.0899
10967TIP3   OH254391   5.769   5.728  14.547 -0.1302 -0.1289 -0.4576
10967TIP3    H154392   5.850   5.684  14.522 -0.8610 -1.3687 -0.7248
10967TIP3    H254393   5.710   5.715  14.473 -1.1817 -0.8501  0.4706
10968TIP3   OH254394   6.491   6.549  10.627  0.5982 -0.4441  0.0031
10968TIP3    H154395   6.572   6.499  10.643 -0.0070 -1.9451 -1.3369
10968TIP3    H254396   6.427   6.508  10.685  0.0667 -1.3797 -1.1965
10969TIP3   OH254397   3.990   1.842  16.531 -0.5338 -0.1905 -0.3235
10969TIP3    H154398   3.927   1.840  16.602  0.9964 -0.3346  1.1041
10969TIP3    H254399   3.990   1.753  16.496 -0.6039 -0.3819  0.1571
10970TIP3   OH254400   2.410   2.162   1.047 -0.1365 -0.2858  0.5214
10970TIP3    H154401   2.359   2.084   1.066 -1.3699  0.1261 -0.8532
10970TIP3    H254402   2.438   2.151   0.956 -1.0152  1.1639  0.0181
10971TIP3   OH254403   5.720   3.343  16.168  0.5797 -0.2369 -0.4376
10971TIP3    H154404   5.807   3.358  16.132  0.4002 -0.3435 -0.9111
10971TIP3    H254405   5.687   3.266  16.122  0.6287 -0.8064  0.4481
10972TIP3   OH254406   4.860   0.325  14.950  0.3792 -0.1698  0.0057
10972TIP3    H154407   4.825   0.365  15.029  1.4109 -0.3362  0.5712
10972TIP3    H254408   4.920   0.257  14.983  2.8211  1.4391 -0.8318
10973TIP3   OH254409   4.068   3.733  13.629  0.3049 -0.9154  0.1173
10973TIP3    H154410   4.010   3.724  13.706 -0.1665 -1.0369 -0.2449
10973TIP3    H254411   4.111   3.648  13.622  1.9750 -0.2419  1.5075
10974TIP3   OH254412   5.444   3.281   0.158 -0.0184 -0.2662 -0.0830
10974TIP3    H154413   5.448   3.205   0.101  1.2467  1.1603 -1.9962
10974TIP3    H254414   5.350   3.302   0.163 -0.1405 -0.1312 -2.1047
10975TIP3   OH254415   4.721   4.898   5.484  0.0694 -0.6684  0.0268
10975TIP3    H154416   4.698   4.840   5.411  1.8102 -1.5923  0.1769
10975TIP3    H254417   4.652   4.883   5.549 -1.0936 -0.3879 -1.0798
10976TIP3   OH254418   4.125   1.411  13.068  0.2320 -0.0873 -0.1932
10976TIP3    H154419   4.138   1.347  12.998  0.6053 -1.5905  1.1889
10976TIP3    H254420   4.190   1.479  13.050 -0.1751 -0.0433 -1.6964
10977TIP3   OH254421   3.155   3.769   3.839 -0.2597  0.1400  0.7764
10977TIP3    H154422   3.143   3.863   3.843 -1.2668 -0.0001  1.1932
10977TIP3    H254423   3.240   3.758   3.795 -0.8169  1.2035 -0.6597
10978TIP3   OH254424   0.847   2.069   0.727 -0.0264  0.2930  0.5613
10978TIP3    H154425   0.783   2.038   0.791  1.0789  0.6913  1.8989
10978TIP3    H254426   0.891   2.142   0.770  0.8885  0.4367 -0.5795
10979TIP3   OH254427   6.376   0.976  16.732  0.1274 -0.3577  0.1968
10979TIP3    H154428   6.344   0.891  16.762 -0.2756  0.1419  1.2081
10979TIP3    H254429   6.406   0.959  16.642 -1.0389 -1.3133 -0.0506
10980TIP3   OH254430   3.676   1.662  11.757 -0.4058 -0.0501 -0.2323
10980TIP3    H154431   3.587   1.686  11.783  0.2965  2.6566 -0.0042
10980TIP3    H254432   3.716   1.626  11.836 -0.9149 -0.1140 -0.0040
10981TIP3   OH254433   0.072   6.107  11.309 -0.4903 -0.3961 -0.4064
10981TIP3    H154434   0.045   6.062  11.229  1.3267  0.1045 -1.3420
10981TIP3    H254435   0.032   6.194  11.303  0.5069  0.0182 -1.3291
10982TIP3   OH254436   5.609   4.646   5.700 -0.2579  0.6230 -0.3306
10982TIP3    H154437   5.648   4.725   5.737 -0.0747 -0.0826  1.0337
10982TIP3    H254438   5.681   4.583   5.694 -0.8147 -0.1556  0.6883
10983TIP3   OH254439   1.357   1.834   5.716 -0.1887  0.2843 -0.2894
10983TIP3    H154440   1.345   1.928   5.731  1.4592  0.3099  1.1735
10983TIP3    H254441   1.281   1.794   5.758 -0.8888  0.9441 -0.8904
10984TIP3   OH254442   5.744   1.263   1.475 -0.0737 -0.1047 -0.2603
10984TIP3    H154443   5.761   1.201   1.546 -0.2417 -0.0371 -0.1590
10984TIP3    H254444   5.671   1.224   1.427  0.6699 -0.6346 -0.9803
10985TIP3   OH254445   1.916   4.338  17.292  0.2384 -0.2355 -0.4754
10985TIP3    H154446   1.829   4.302  17.312  0.2595 -0.3908 -0.6554
10985TIP3    H254447   1.970   4.316  17.367  0.3710 -0.9887 -0.7887
10986TIP3   OH254448   0.695   1.035  15.754 -0.2306  0.2216  0.3747
10986TIP3    H154449   0.623   0.997  15.803 -0.4214  0.2022  0.0820
10986TIP3    H254450   0.653   1.091  15.689  0.0337  0.5658  0.4977
10987TIP3   OH254451   2.131   0.746   2.212 -0.4447  0.9259 -0.1391
10987TIP3    H154452   2.102   0.672   2.158  1.8144  0.3861 -0.7085
10987TIP3    H254453   2.050   0.785   2.243 -1.8125 -2.4641  1.1190
10988TIP3   OH254454   3.042   5.810   1.238  0.2085 -0.5695 -0.0635
10988TIP3    H154455   3.096   5.814   1.316  0.5513 -1.4534 -0.2519
10988TIP3    H254456   3.100   5.839   1.167  1.4507 -4.2685 -0.7709
10989TIP3   OH254457   3.966   0.165   1.060 -0.2647 -0.9638 -0.1646
10989TIP3    H154458   4.029   0.164   1.133 -0.4858  1.1876  0.1257
10989TIP3    H254459   4.006   0.110   0.993  1.3227 -0.6742  0.5030
10990TIP3   OH254460   3.105   3.995  16.684 -0.4539  0.4276  0.6039
10990TIP3    H154461   3.170   4.014  16.752  0.0940  2.0728 -0.3290
10990TIP3    H254462   3.113   4.067  16.622 -1.1375 -0.8784 -1.0843
10991TIP3   OH254463   5.707   4.645   6.730 -0.3296 -0.0417 -0.3899
10991TIP3    H154464   5.643   4.592   6.683  0.4040 -2.2006  0.8783
10991TIP3    H254465   5.791   4.602   6.712  0.6249  1.9707 -0.9965
10992TIP3   OH254466   3.851   3.930   2.635 -0.4512  0.1538  0.1138
10992TIP3    H154467   3.903   3.993   2.685  0.5757  0.2093 -0.9717
10992TIP3    H254468   3.770   3.977   2.615 -0.3629  0.5608  0.6685
10993TIP3   OH254469   5.813   2.134   2.441 -0.3839 -0.1625  0.3119
10993TIP3    H154470   5.806   2.226   2.418 -1.8034 -0.6572 -1.3564
10993TIP3    H254471   5.878   2.098   2.380  0.0481 -0.3392  0.8520
10994TIP3   OH254472   1.479   3.798  16.727  0.0480 -0.7918 -0.1702
10994TIP3    H154473   1.425   3.846  16.789  0.1484 -0.8906 -0.0040
10994TIP3    H254474   1.428   3.720  16.705 -1.0987  0.4571 -2.1519
10995TIP3   OH254475   4.015   5.592   1.682 -0.1089 -0.3160 -0.1050
10995TIP3    H154476   4.097   5.575   1.730  0.4004 -0.9276 -1.1790
10995TIP3    H254477   4.029   5.678   1.642 -0.1479 -0.2444  0.0344
10996TIP3   OH254478   1.113   0.116   4.210  0.3062 -0.3225  0.1445
10996TIP3    H154479   1.103   0.129   4.116  0.9090  0.1019  0.1291
10996TIP3    H254480   1.102   0.022   4.224  1.1969 -0.5298 -0.4856
10997TIP3   OH254481   2.672   0.124   3.820  0.1828 -0.1602  0.6470
10997TIP3    H154482   2.615   0.115   3.896  0.6383  2.8841  1.4808
10997TIP3    H254483   2.713   0.037   3.811 -1.6457 -1.2978  2.3688
10998TIP3   OH254484   2.270   5.860  15.523 -0.2747  0.0093 -0.0953
10998TIP3    H154485   2.342   5.858  15.459 -1.0959 -2.2215 -1.0766
10998TIP3    H254486   2.194   5.886  15.472 -0.6770 -0.3856  0.2955
10999TIP3   OH254487   4.596   0.118   1.371  0.3337  0.3831  0.7086
10999TIP3    H154488   4.528   0.138   1.435  0.7279 -0.9536  1.5770
10999TIP3    H254489   4.560   0.047   1.318  0.1897  1.1769 -0.2844
11000TIP3   OH254490   4.021   4.412  11.999 -0.5655  0.8362  0.1296
11000TIP3    H154491   3.999   4.474  11.930  1.5853  1.2594 -0.2684
11000TIP3    H254492   4.077   4.462  12.059  1.2221 -0.6631 -0.1904
11001TIP3   OH254493   5.026   4.528  13.488  0.2223  0.4904 -0.3707
11001TIP3    H154494   5.066   4.605  13.528  0.9679  0.0041 -0.1616
11001TIP3    H254495   5.045   4.538  13.395  1.1836  0.0726 -0.2321
11002TIP3   OH254496   5.113   3.982  12.855 -0.1359 -0.2022 -0.0669
11002TIP3    H154497   5.181   3.971  12.922  0.9680 -0.4768 -1.2082
11002TIP3    H254498   5.154   4.035  12.787 -1.0173 -0.5003 -0.8575
11003TIP3   OH254499   3.330   2.840  12.208  0.3247  0.0584  0.3534
11003TIP3    H154500   3.281   2.776  12.157 -0.4095  0.7487  0.1693
11003TIP3    H254501   3.417   2.801  12.220  0.0165 -0.7779 -0.1027
11004TIP3   OH254502   0.503   3.260   2.394 -0.2893 -0.2199 -0.1280
11004TIP3    H154503   0.562   3.254   2.468 -0.2757  1.2747  0.0133
11004TIP3    H254504   0.419   3.229   2.427  0.0882 -1.0677  0.0480
11005TIP3   OH254505   3.258   0.907  16.934 -0.3904  0.3952 -0.2728
11005TIP3    H154506   3.314   0.942  16.865  0.3444  0.3782  0.2909
11005TIP3    H254507   3.180   0.963  16.934  0.6816  1.9718  0.4978
11006TIP3   OH254508   6.031   4.008   2.271 -0.2484  0.2555  0.0183
11006TIP3    H154509   6.013   4.097   2.303 -0.1022  0.2933 -0.0038
11006TIP3    H254510   6.037   4.018   2.176  1.7947  0.5977  0.1339
11007TIP3   OH254511   1.202   4.256  15.620 -0.1724  0.1889  0.4942
11007TIP3    H154512   1.195   4.188  15.554 -0.9013  0.8230 -0.1040
11007TIP3    H254513   1.289   4.245  15.658 -0.3226 -1.1435  0.4994
11008TIP3   OH254514   6.762   2.466  16.166 -0.1143  0.0762 -0.1660
11008TIP3    H154515   6.730   2.445  16.254 -0.3494 -1.2748 -0.5471
11008TIP3    H254516   6.857   2.462  16.173 -0.1345 -0.0961  0.0210
11009TIP3   OH254517   2.927   2.706  16.457 -0.3334  0.0256 -0.2674
11009TIP3    H154518   2.939   2.619  16.419 -2.6767 -0.0492 -0.9788
11009TIP3    H254519   2.834   2.710  16.480 -0.1223  2.0747  0.4701
11010TIP3   OH254520   5.769   3.282  14.319 -0.4466 -0.1635 -0.1240
11010TIP3    H154521   5.730   3.339  14.386 -2.5095 -0.1757 -1.2296
11010TIP3    H254522   5.811   3.212  14.368 -1.5586  0.0381  1.1767
11011TIP3   OH254523   1.964   0.532   0.411 -0.8541  0.3861  0.5741
11011TIP3    H154524   1.926   0.494   0.332  1.5915  1.2713 -1.1614
11011TIP3    H254525   1.904   0.601   0.436 -0.7423  1.4318 -1.7627
11012TIP3   OH254526   2.509   4.505   2.922 -0.0723  0.1898  0.1739
11012TIP3    H154527   2.476   4.576   2.977 -2.2890  0.7040 -1.6398
11012TIP3    H254528   2.457   4.429   2.947 -1.2718  0.4845 -1.2401
11013TIP3   OH254529   1.318   3.435   6.091 -0.0347 -0.5236 -0.0065
11013TIP3    H154530   1.245   3.432   6.152 -1.0572  1.2485 -1.0465
11013TIP3    H254531   1.283   3.480   6.014  1.7100 -1.0739 -1.1854
11014TIP3   OH254532   2.318   0.810  14.157 -0.8512  0.1334 -0.0356
11014TIP3    H154533   2.281   0.881  14.103 -3.6333 -0.7666  0.5287
11014TIP3    H254534   2.313   0.843  14.247 -2.3908 -0.8119  0.2536
11015TIP3   OH254535   2.126   5.843   5.488 -0.2847 -0.2197 -0.2793
11015TIP3    H154536   2.147   5.754   5.518  1.9055 -0.1335 -1.3062
11015TIP3    H254537   2.130   5.896   5.567  2.1116 -0.5044 -0.1315
11016TIP3   OH254538   3.536   2.974  14.606 -0.0945  0.5230 -0.5296
11016TIP3    H154539   3.545   3.067  14.586  0.5946  0.1600 -2.1342
11016TIP3    H254540   3.517   2.970  14.699 -2.0380  2.3652 -0.7753
11017TIP3   OH254541   1.533   3.919  16.028 -0.1722 -0.2546  0.1106
11017TIP3    H154542   1.613   3.934  16.080 -0.9737  3.0338  0.6225
11017TIP3    H254543   1.480   3.861  16.082  0.9772 -0.7472  0.7482
11018TIP3   OH254544   6.388   3.051   5.877  0.1198  0.1836 -0.3890
11018TIP3    H154545   6.396   2.992   5.952  0.7313 -0.5478 -1.0149
11018TIP3    H254546   6.372   3.137   5.915 -2.1713 -0.5718  0.5321
11019TIP3   OH254547   1.268   3.656  10.973 -0.0855 -0.6114 -0.0068
11019TIP3    H154548   1.211   3.696  10.907 -2.4591 -0.2155  2.1310
11019TIP3    H254549   1.269   3.563  10.950 -1.9025 -0.6847  0.0560
11020TIP3   OH254550   5.857   1.711  12.135  0.2714 -0.1540 -0.6162
11020TIP3    H154551   5.909   1.775  12.087  2.3114  0.5420  2.2450
11020TIP3    H254552   5.825   1.760  12.211 -2.0111 -1.4238 -0.6970
11021TIP3   OH254553   0.561   6.102   1.719  0.3995 -0.7110  0.7193
11021TIP3    H154554   0.641   6.060   1.752  0.9500 -1.9178 -1.9006
11021TIP3    H254555   0.492   6.071   1.778  1.7519  0.1155  2.8510
11022TIP3   OH254556   3.906   1.303  16.871 -0.1445 -0.1209 -0.6530
11022TIP3    H154557   3.813   1.283  16.886  0.4036 -2.5534 -0.1178
11022TIP3    H254558   3.937   1.335  16.955 -0.6100  1.2987 -0.9996
11023TIP3   OH254559   3.022   0.191  15.523 -0.5321  0.5580  0.4332
11023TIP3    H154560   2.963   0.198  15.448 -0.6429 -3.7557 -0.1383
11023TIP3    H254561   2.970   0.150  15.591  1.0215 -0.6961  0.9130
11024TIP3   OH254562   6.495   2.869   0.214 -0.0625  0.1404  0.0906
11024TIP3    H154563   6.559   2.803   0.241 -0.0825  0.1163  0.0786
11024TIP3    H254564   6.517   2.888   0.123 -0.0365  0.1738  0.1036
11025TIP3   OH254565   1.458   2.944  13.765 -0.2571 -0.4121 -0.0046
11025TIP3    H154566   1.390   3.008  13.745 -0.0865 -0.4733 -0.7843
11025TIP3    H254567   1.466   2.948  13.861 -0.0189  0.9722 -0.0580
11026TIP3   OH254568   5.530   1.661   5.315 -0.2210  0.2088  0.0859
11026TIP3    H154569   5.496   1.728   5.256  1.3313  0.9400 -0.0293
11026TIP3    H254570   5.506   1.691   5.402 -1.3558 -0.1840 -0.0810
11027TIP3   OH254571   2.831   5.096  15.868 -0.2409 -0.9082 -0.0484
11027TIP3    H154572   2.816   5.008  15.834 -0.2394 -0.6567 -0.7045
11027TIP3    H254573   2.828   5.153  15.791 -2.5870 -0.0173  0.6185
11028TIP3   OH254574   1.323   5.363  11.708  0.3114  0.0707  0.0249
11028TIP3    H154575   1.255   5.297  11.691 -1.9552  1.7153  2.0172
11028TIP3    H254576   1.299   5.437  11.652  1.1066  0.3092 -0.0101
11029TIP3   OH254577   0.950   4.395  11.003 -0.0285 -0.1754  0.3881
11029TIP3    H154578   0.906   4.438  10.930  0.2566 -0.2898  0.1489
11029TIP3    H254579   1.034   4.367  10.967 -0.8572 -2.4148  0.0648
11030TIP3   OH254580   6.386   5.612   0.856 -0.0696  0.0375  0.0498
11030TIP3    H154581   6.309   5.558   0.876 -1.5660  2.0370 -0.0039
11030TIP3    H254582   6.425   5.630   0.942 -1.3267  1.2957  0.3940
11031TIP3   OH254583   3.530   0.292  17.309  0.1347 -0.3293  0.2305
11031TIP3    H154584   3.613   0.336  17.326  0.2318 -0.3440 -0.1826
11031TIP3    H254585   3.555   0.205  17.277 -0.0640 -1.2345  2.3562
11032TIP3   OH254586   2.298   0.162   0.724 -0.0928 -0.3592 -0.1783
11032TIP3    H154587   2.237   0.228   0.691  1.3238  0.0676 -2.1074
11032TIP3    H254588   2.318   0.107   0.647  1.0738 -1.1660  0.6671
11033TIP3   OH254589   2.141   3.481  15.344 -0.0011  0.2997  0.3953
11033TIP3    H154590   2.102   3.530  15.271  2.8650  1.5243 -0.4702
11033TIP3    H254591   2.164   3.396  15.306 -1.1576 -0.1782  0.7284
11034TIP3   OH254592   0.029   0.504   5.272  0.1429 -0.3587 -0.0688
11034TIP3    H154593  -0.050   0.478   5.225  1.0976 -3.3820 -0.2647
11034TIP3    H254594   0.101   0.478   5.214  1.2890  0.0139  1.1222
11035TIP3   OH254595   1.040   2.907  12.113  0.2394 -0.4832  0.2054
11035TIP3    H154596   1.040   2.840  12.045 -1.0672  0.4557 -0.7754
11035TIP3    H254597   1.124   2.896  12.158  0.4721 -2.1178 -0.5629
11036TIP3   OH254598   1.058   2.474  14.917 -0.1161  0.5880  0.0209
11036TIP3    H154599   1.137   2.439  14.958  0.0064  0.6267 -0.1820
11036TIP3    H254600   1.024   2.537  14.981  0.1464  0.7435  0.0111
11037TIP3   OH254601   2.488   2.496  15.789 -0.2579 -0.0326 -0.2223
11037TIP3    H154602   2.544   2.452  15.853 -1.6150 -1.4690  0.0258
11037TIP3    H254603   2.542   2.568  15.755  1.4717 -0.9414  0.4988
11038TIP3   OH254604   3.012   6.226   3.272  0.1048  0.0173 -0.1106
11038TIP3    H154605   3.023   6.293   3.339 -0.8557  1.5481 -1.4000
11038TIP3    H254606   2.921   6.197   3.280  0.5257 -1.2075  0.4695
11039TIP3   OH254607   5.482   5.850   5.609 -0.2813 -0.0464  0.1060
11039TIP3    H154608   5.423   5.855   5.684 -2.2639  0.5530 -1.3862
11039TIP3    H254609   5.424   5.831   5.535  1.4541  0.3555 -1.4255
11040TIP3   OH254610   3.111   5.642   4.097  0.4245 -0.2187  0.5511
11040TIP3    H154611   3.093   5.566   4.042  1.8122 -1.8151  2.1427
11040TIP3    H254612   3.102   5.717   4.039 -0.2116 -1.6421 -1.2911
11041TIP3   OH254613   2.648   2.266  11.243 -0.0941 -0.7490 -0.4128
11041TIP3    H154614   2.621   2.188  11.195 -3.2813 -0.3076  0.4134
11041TIP3    H254615   2.615   2.339  11.190  1.1301 -0.0233 -0.2060
11042TIP3   OH254616   0.602   1.502   6.365  0.0635  0.1912 -0.1447
11042TIP3    H154617   0.591   1.472   6.455 -1.0229  1.2652  0.1118
11042TIP3    H254618   0.562   1.433   6.312 -1.4424  0.6387  0.3608
11043TIP3   OH254619   2.025   6.280   3.589  0.0316 -0.3088  0.0608
11043TIP3    H154620   2.075   6.201   3.569  2.2517  1.4499 -1.9615
11043TIP3    H254621   2.048   6.301   3.680  1.5949 -0.5293 -0.2626
11044TIP3   OH254622   0.450   5.141  16.883 -0.8476  0.1237  0.5043
11044TIP3    H154623   0.512   5.179  16.821  0.9987  0.1876  2.2729
11044TIP3    H254624   0.384   5.208  16.894  0.8781  1.7674  1.4727
11045TIP3   OH254625   2.795   0.004  11.198 -0.2087  0.0961 -0.4388
11045TIP3    H154626   2.729   0.037  11.136  0.2494  0.7407 -0.6005
11045TIP3    H254627   2.745  -0.017  11.277 -0.8290 -0.8881 -1.0642
11046TIP3   OH254628   5.689   1.642  11.311  0.3392 -0.1321 -0.5134
11046TIP3    H154629   5.739   1.666  11.233  1.1935  1.2598  0.4065
11046TIP3    H254630   5.608   1.692  11.303  0.3771 -0.0790 -0.5737
11047TIP3   OH254631   5.812   2.727   0.985 -0.2928  0.3289 -0.1662
11047TIP3    H154632   5.718   2.735   0.998 -0.2419 -0.8072  1.1400
11047TIP3    H254633   5.831   2.784   0.910 -2.1907 -0.3811 -1.2571
11048TIP3   OH254634   5.781   1.834   0.376  0.3909  0.1640  0.2592
11048TIP3    H154635   5.786   1.928   0.358  0.9804 -0.0902 -1.0155
11048TIP3    H254636   5.715   1.826   0.445 -0.3903  1.4199 -0.3029
11049TIP3   OH254637   0.482   1.995   4.606  0.1149  0.0632  0.0626
11049TIP3    H154638   0.440   2.046   4.537  2.3731  2.2704  0.1690
11049TIP3    H254639   0.410   1.968   4.663 -1.4022  1.4133 -1.1256
11050TIP3   OH254640   2.311   1.057  11.141  0.2008  0.3580  0.6044
11050TIP3    H154641   2.259   1.043  11.062  1.4298  0.4840 -0.2577
11050TIP3    H254642   2.298   1.149  11.162 -0.4289  0.2346  0.7788
11051TIP3   OH254643   2.747   3.925   2.564  0.1098  0.0478 -0.5281
11051TIP3    H154644   2.687   3.960   2.629 -0.0102  0.6379 -0.9490
11051TIP3    H254645   2.695   3.863   2.514  0.4635 -1.1855  0.5676
11052TIP3   OH254646   2.189   3.049   5.278  0.0433 -0.0731  0.4642
11052TIP3    H154647   2.216   3.141   5.270  0.5425 -0.0819  1.7992
11052TIP3    H254648   2.157   3.041   5.368 -1.0307 -0.9537  0.0212
11053TIP3   OH254649   4.637   6.549  17.264  0.3159  0.2190 -0.6081
11053TIP3    H154650   4.715   6.572  17.314  0.0948  0.9782 -0.6046
11053TIP3    H254651   4.573   6.616  17.287 -0.1713 -0.1056 -1.0013
11054TIP3   OH254652   4.843   3.884  14.009 -0.0131 -0.6831  0.3836
11054TIP3    H154653   4.889   3.951  14.060 -0.9220  1.6979 -1.7462
11054TIP3    H254654   4.912   3.833  13.968  0.7346  0.3521  0.3283
11055TIP3   OH254655   2.963   5.080  16.818  0.5966  0.1584  0.2243
11055TIP3    H154656   3.041   5.037  16.855  0.6141 -2.2185 -2.2753
11055TIP3    H254657   2.919   5.011  16.768 -2.2086  1.8888  0.1005
11056TIP3   OH254658   1.954   5.981  14.356  0.4057 -0.1393  0.2800
11056TIP3    H154659   1.860   5.977  14.369  0.3841  0.0878  0.2026
11056TIP3    H254660   1.969   6.067  14.316  0.5143 -0.7018 -0.9130
11057TIP3   OH254661   2.719   2.889   3.638  0.0256  0.0860  0.3269
11057TIP3    H154662   2.697   2.982   3.633 -0.4393 -0.0741 -2.0824
11057TIP3    H254663   2.694   2.862   3.726  1.2438  2.4746  1.4855
11058TIP3   OH254664   0.017   6.563  11.702 -0.1575 -0.2487 -0.1739
11058TIP3    H154665  -0.011   6.476  11.675  1.6111 -0.1905 -2.4706
11058TIP3    H254666  -0.046   6.623  11.661 -0.7038 -0.3794  0.4606
11059TIP3   OH254667   3.617   3.027   5.214 -0.1592 -0.3522  0.2974
11059TIP3    H154668   3.595   3.066   5.129  1.2764 -0.1911 -0.0187
11059TIP3    H254669   3.543   3.050   5.270 -1.0831 -0.3554 -0.8694
11060TIP3   OH254670   1.439   2.467   6.198  0.5291  0.4677 -0.1471
11060TIP3    H154671   1.408   2.377   6.205 -1.6913  1.1268 -0.6575
11060TIP3    H254672   1.534   2.461   6.206  0.2766 -1.6142  2.4191
11061TIP3   OH254673   1.155   2.036   2.244 -0.2110 -0.3420  0.0725
11061TIP3    H154674   1.208   1.960   2.221  0.6264  0.1427  0.3538
11061TIP3    H254675   1.200   2.075   2.319 -0.5868  0.4668 -0.1047
11062TIP3   OH254676   1.719   0.887   5.458  0.4734 -0.4115 -0.0503
11062TIP3    H154677   1.633   0.878   5.416  0.5294  0.5948 -0.4259
11062TIP3    H254678   1.714   0.832   5.536 -1.5146  1.6467  1.4192
11063TIP3   OH254679   2.363   5.471  14.749 -0.6090  0.1179  0.3671
11063TIP3    H154680   2.379   5.470  14.844  2.9722 -0.1030 -0.0855
11063TIP3    H254681   2.395   5.556  14.721  0.3692 -0.6050 -0.8307
11064TIP3   OH254682   0.903   4.691   3.315 -0.1434 -0.5541 -0.1700
11064TIP3    H154683   0.919   4.647   3.399 -1.0156  0.5297  0.5885
11064TIP3    H254684   0.895   4.784   3.338  1.3362 -0.0063 -1.6922
11065TIP3   OH254685   1.622   3.440  16.437  0.0472 -0.6436 -0.1031
11065TIP3    H154686   1.543   3.418  16.388 -0.4693 -0.5139  0.6560
11065TIP3    H254687   1.593   3.446  16.528  1.0640 -1.2390  0.2721
11066TIP3   OH254688   3.066   3.151   4.488  0.2287  0.2266  0.0547
11066TIP3    H154689   2.990   3.127   4.435  0.0018 -0.7389  0.7929
11066TIP3    H254690   3.091   3.238   4.456 -1.2945  0.6488 -0.0622
11067TIP3   OH254691   3.658   0.441  12.891 -0.0454  0.3517 -0.3479
11067TIP3    H154692   3.606   0.485  12.824 -1.9291 -0.9579  0.1994
11067TIP3    H254693   3.714   0.510  12.927 -0.2868  1.4672 -2.0090
11068TIP3   OH254694   2.455   1.187   0.172 -0.1699 -0.1882 -0.7364
11068TIP3    H154695   2.388   1.157   0.233 -1.5027 -0.1112 -2.1158
11068TIP3    H254696   2.512   1.111   0.160 -1.4657 -1.0864 -1.4510
11069TIP3   OH254697   4.790   0.571   2.537 -1.0454  0.3536  0.2238
11069TIP3    H154698   4.723   0.502   2.542 -0.0285 -0.6629  0.2701
11069TIP3    H254699   4.819   0.570   2.446 -0.0552 -0.2477  0.5346
11070TIP3   OH254700   3.556   6.693  16.425 -0.4024 -0.0303  0.1514
11070TIP3    H154701   3.607   6.663  16.500 -1.7130 -3.9945 -0.2668
11070TIP3    H254702   3.480   6.737  16.463  1.2299  2.2921  0.8864
11071TIP3   OH254703   3.607   5.197  11.394  0.5350  0.0583 -0.4941
11071TIP3    H154704   3.696   5.170  11.371  1.2334  0.2640  1.7063
11071TIP3    H254705   3.593   5.277  11.343  2.8886  1.8024  1.3503
11072TIP3   OH254706   6.110   2.337   1.738  0.2129 -0.2885 -0.5729
11072TIP3    H154707   6.183   2.321   1.678 -1.5397  0.4434 -3.0904
11072TIP3    H254708   6.145   2.398   1.803  1.9853 -0.3922 -1.3715
11073TIP3   OH254709   6.051   3.591  15.884 -0.1282 -0.1650 -0.3403
11073TIP3    H154710   6.034   3.553  15.797  0.7190  0.8863 -0.9921
11073TIP3    H254711   6.005   3.533  15.945  0.7377 -1.9736 -1.3140
11074TIP3   OH254712   3.563   4.009  14.208 -0.5499  0.6509  0.1173
11074TIP3    H154713   3.489   3.978  14.155 -0.1113 -1.7513  0.7945
11074TIP3    H254714   3.639   3.997  14.151 -0.6044  3.6951 -0.8158
11075TIP3   OH254715   4.067   1.236   2.403 -0.1428 -0.0860 -0.4749
11075TIP3    H154716   4.133   1.250   2.335 -0.0328 -1.2316 -0.6179
11075TIP3    H254717   4.057   1.141   2.408  0.5301 -0.1032  1.7762
11076TIP3   OH254718   0.175   4.897   6.247 -0.5107 -0.2185 -0.1314
11076TIP3    H154719   0.243   4.864   6.306 -0.4063 -1.1111 -0.7227
11076TIP3    H254720   0.099   4.911   6.303 -0.2810 -0.6205  0.2902
11077TIP3   OH254721   3.543   3.425  17.389  0.0613 -0.2208  0.2525
11077TIP3    H154722   3.631   3.456  17.411 -0.4130  1.2336  0.2034
11077TIP3    H254723   3.557   3.338  17.353  1.4124 -0.2966  0.9082
11078TIP3   OH254724   1.605   5.111  12.318 -0.2476 -0.5483 -0.4928
11078TIP3    H154725   1.530   5.091  12.261 -1.6592 -0.2013  1.1747
11078TIP3    H254726   1.593   5.054  12.394  0.8159 -0.0039  0.1071
11079TIP3   OH254727   3.987   4.053  16.547  0.3721  0.3033 -0.4481
11079TIP3    H154728   3.913   4.070  16.488  1.3032 -0.4626 -1.8802
11079TIP3    H254729   3.949   4.059  16.635 -1.1505  1.0271 -1.1254
11080TIP3   OH254730   4.125   6.480  12.447 -0.1628 -0.8358 -0.0147
11080TIP3    H154731   4.117   6.551  12.383 -2.1702  0.8362  1.9603
11080TIP3    H254732   4.214   6.490  12.481  0.1351 -0.3160 -0.8856
11081TIP3   OH254733   3.873   1.710   4.631 -0.0985  0.0272 -0.3152
11081TIP3    H154734   3.952   1.730   4.581 -1.1285  0.3477 -1.8944
11081TIP3    H254735   3.841   1.796   4.659  0.1507 -0.1094  0.4020
11082TIP3   OH254736   6.591   0.006   2.359  0.1811 -0.2525 -0.0660
11082TIP3    H154737   6.501  -0.025   2.347  0.5609 -1.6389  0.4241
11082TIP3    H254738   6.591   0.094   2.323 -1.4225 -0.1496  0.1084
11083TIP3   OH254739   6.608   0.360  15.746 -0.6978  0.5181  0.4086
11083TIP3    H154740   6.680   0.299  15.726 -2.4808 -0.7877 -2.6775
11083TIP3    H254741   6.617   0.429  15.680 -0.5844  1.9825  1.9038
11084TIP3   OH254742   0.152   0.523  15.336 -0.0492 -0.7695 -0.0069
11084TIP3    H154743   0.152   0.433  15.302  0.0540 -0.8705  0.2548
11084TIP3    H254744   0.244   0.545  15.346 -0.0800 -0.7934  0.3419
11085TIP3   OH254745   1.943   3.702   0.387  0.1104 -0.3373  0.3984
11085TIP3    H154746   2.037   3.693   0.373  0.2207  0.1902  0.7366
11085TIP3    H254747   1.910   3.613   0.393  0.4812 -0.5362 -0.3975
11086TIP3   OH254748   2.951   2.027   1.677  0.2476 -0.0991 -0.3838
11086TIP3    H154749   2.913   1.961   1.619  0.8577 -0.8005 -0.0046
11086TIP3    H254750   2.883   2.045   1.741  0.0825 -0.3618 -0.4840
11087TIP3   OH254751   4.974   3.095  16.751 -0.2026 -0.2739 -0.1687
11087TIP3    H154752   5.061   3.063  16.774 -0.1094 -0.5968 -0.9488
11087TIP3    H254753   4.939   3.132  16.832  1.1064  0.8859 -0.0992
11088TIP3   OH254754   6.689   4.857  17.126 -0.3973 -0.3187 -0.2682
11088TIP3    H154755   6.752   4.823  17.190 -0.5839 -0.0967  0.0328
11088TIP3    H254756   6.721   4.824  17.042 -1.2422 -2.2556  0.1250
11089TIP3   OH254757   4.509   3.288   5.384 -0.4361  0.4180 -0.6358
11089TIP3    H154758   4.500   3.220   5.451  0.1374  0.4854 -0.4856
11089TIP3    H254759   4.511   3.370   5.433 -0.7156  0.5150 -0.7871
11090TIP3   OH254760   2.308   5.441   4.117 -0.0085  0.1792  0.5331
11090TIP3    H154761   2.225   5.488   4.111  0.3630  1.4007  3.3585
11090TIP3    H254762   2.283   5.350   4.130 -0.8363  0.2697 -0.2949
11091TIP3   OH254763   2.448   4.760  14.531  0.7284 -0.2434  0.1150
11091TIP3    H154764   2.365   4.743  14.574  0.2514  0.9453 -0.2926
11091TIP3    H254765   2.504   4.687  14.556 -0.3131 -0.8506  0.7143
11092TIP3   OH254766   4.750   1.215  16.809  0.1801  0.0433  0.3126
11092TIP3    H154767   4.685   1.152  16.838  1.7778 -0.7081  2.4946
11092TIP3    H254768   4.829   1.193  16.858  1.7688  1.6515 -1.3448
11093TIP3   OH254769   0.097   6.172   4.567  0.1928  0.2868 -0.2191
11093TIP3    H154770   0.184   6.163   4.606  0.8957  0.9483 -1.5547
11093TIP3    H254771   0.082   6.266   4.562  1.2116  0.4307 -3.6100
11094TIP3   OH254772   1.310   1.799   2.907  0.7107 -0.2390  0.1545
11094TIP3    H154773   1.327   1.783   3.000  0.3456 -1.5312  0.0285
11094TIP3    H254774   1.241   1.865   2.906  0.8228 -0.1060  0.8038
11095TIP3   OH254775   4.882   0.851   5.687  0.1796  0.1483  0.2373
11095TIP3    H154776   4.831   0.862   5.606  1.5494  1.5124 -0.4859
11095TIP3    H254777   4.817   0.825   5.752 -0.9863 -0.8805 -1.2485
11096TIP3   OH254778   2.529   3.037  15.044  0.4518  0.1110 -0.1724
11096TIP3    H154779   2.443   2.996  15.048  0.2643  0.3372 -1.5820
11096TIP3    H254780   2.589   2.971  15.080 -0.0285 -0.8637 -1.1201
11097TIP3   OH254781   5.149   6.530   6.132  0.0833  0.2747 -0.7414
11097TIP3    H154782   5.192   6.489   6.207 -1.5072 -0.0280  0.0451
11097TIP3    H254783   5.142   6.622   6.157 -1.5827 -0.0428  0.0806
11098TIP3   OH254784   3.500   3.260  16.718 -0.3742 -0.3824 -0.3315
11098TIP3    H154785   3.549   3.186  16.754 -0.3018 -0.5308 -0.7382
11098TIP3    H254786   3.409   3.241  16.740 -0.3375 -0.5090 -0.2887
11099TIP3   OH254787   2.865   6.373  16.158 -0.2047 -0.6693  0.3833
11099TIP3    H154788   2.895   6.464  16.159 -2.3559  0.1066  0.2078
11099TIP3    H254789   2.932   6.325  16.206  0.6498  1.1249  1.0923
11100TIP3   OH254790   6.506   5.835  13.112  0.4944 -0.0346  0.1017
11100TIP3    H154791   6.485   5.792  13.195 -0.2014 -1.5539 -0.8340
11100TIP3    H254792   6.557   5.771  13.063 -1.5505 -0.3422 -1.7939
11101TIP3   OH254793   1.746   0.120   1.481  0.0585  0.6585 -0.2477
11101TIP3    H154794   1.813   0.166   1.431 -0.2262  0.4020 -0.8750
11101TIP3    H254795   1.782   0.032   1.494 -0.3189  0.3881 -0.9490
11102TIP3   OH254796   5.475   1.858  16.327  0.0753 -0.0604 -0.9027
11102TIP3    H154797   5.515   1.790  16.273 -1.3889 -1.4913 -0.2541
11102TIP3    H254798   5.451   1.927  16.264  0.1189 -0.8483 -1.8089
11103TIP3   OH254799   0.406   6.456   1.656 -0.2377 -0.2388 -0.1487
11103TIP3    H154800   0.439   6.542   1.681 -0.1921 -0.8813  2.3471
11103TIP3    H254801   0.477   6.416   1.607  0.6962  0.2911  0.7365
11104TIP3   OH254802   2.518   2.488   2.585  0.4817 -0.4204  0.5914
11104TIP3    H154803   2.431   2.456   2.560  0.0883  0.3353  0.9550
11104TIP3    H254804   2.569   2.409   2.600  0.3987 -0.9123 -1.3902
11105TIP3   OH254805   0.623   1.953  13.119  0.4120  0.2801 -0.4094
11105TIP3    H154806   0.595   2.027  13.173 -0.1135  0.7663 -1.3331
11105TIP3    H254807   0.716   1.943  13.138  0.0926 -0.0271  1.1386
11106TIP3   OH254808   1.693   3.836   1.388 -0.0998 -0.4465  0.0931
11106TIP3    H154809   1.604   3.801   1.392 -0.3755  0.3195  1.2685
11106TIP3    H254810   1.748   3.759   1.372 -0.7855 -1.2949  1.5411
11107TIP3   OH254811   4.138   2.008  13.123 -0.5969  0.2808 -0.1824
11107TIP3    H154812   4.138   2.103  13.130 -0.6352  0.2448  0.3479
11107TIP3    H254813   4.047   1.984  13.108 -0.6856  0.2857  0.3364
11108TIP3   OH254814   6.016   1.408   4.918 -0.5274 -0.3870 -0.3771
11108TIP3    H154815   6.076   1.480   4.935 -0.0267 -1.2332  1.7245
11108TIP3    H254816   6.008   1.363   5.002 -0.6475 -2.8954 -1.6315
11109TIP3   OH254817   2.436   4.896   2.391 -0.0111 -0.0394 -0.0320
11109TIP3    H154818   2.347   4.929   2.382 -0.0794 -0.7318 -2.6208
11109TIP3    H254819   2.426   4.804   2.416 -0.0635 -0.2289 -0.7234
11110TIP3   OH254820   5.422   5.791  13.476  0.3249 -0.6721  0.3988
11110TIP3    H154821   5.428   5.759  13.386  1.3051 -0.2995  0.3218
11110TIP3    H254822   5.512   5.790  13.508  0.2708  1.1153  0.6994
11111TIP3   OH254823   5.095   3.946   3.618  0.1019  1.0038  0.0893
11111TIP3    H154824   5.183   3.913   3.599 -0.6873 -3.1843  2.3048
11111TIP3    H254825   5.104   3.991   3.702  0.0498 -0.7724  1.1157
11112TIP3   OH254826   1.807   1.677  13.705 -0.1648 -0.0994 -0.6515
11112TIP3    H154827   1.720   1.717  13.708 -0.7075 -1.2394 -0.6439
11112TIP3    H254828   1.865   1.749  13.680 -0.9248  0.9516  0.4684
11113TIP3   OH254829   1.884   5.787  15.651 -0.1194  0.1839 -0.0398
11113TIP3    H154830   1.914   5.773  15.561 -0.3601  0.2458 -0.1313
11113TIP3    H254831   1.804   5.735  15.658  0.6368 -0.9381  0.5688
11114TIP3   OH254832   5.069   5.798   3.813 -0.5115 -0.3416 -0.1593
11114TIP3    H154833   5.164   5.797   3.822 -0.2053  1.3345 -2.4442
11114TIP3    H254834   5.038   5.835   3.896  1.0154  1.0410 -0.1399
11115TIP3   OH254835   0.632   3.017   2.268 -0.3246 -0.8141 -0.2665
11115TIP3    H154836   0.652   3.074   2.343  0.4024 -1.1417 -0.2052
11115TIP3    H254837   0.536   3.016   2.264 -0.3805 -0.9379  0.7803
11116TIP3   OH254838   4.547   0.837  16.692 -0.3090  0.1187  0.1373
11116TIP3    H154839   4.553   0.904  16.760 -4.3612  0.3692  0.5088
11116TIP3    H254840   4.579   0.880  16.613 -2.0054  2.3394  0.5484
11117TIP3   OH254841   0.599   0.899   1.939  0.3063  0.1550  0.3652
11117TIP3    H154842   0.564   0.980   1.975  0.5422 -0.5188  2.2105
11117TIP3    H254843   0.534   0.871   1.875  1.1259  2.7479 -1.7585
11118TIP3   OH254844   4.435   3.466   6.448  0.4670 -0.1751  0.1965
11118TIP3    H154845   4.372   3.530   6.480  1.7070  0.3898  1.6631
11118TIP3    H254846   4.404   3.382   6.482  1.4068  0.3328  2.4586
11119TIP3   OH254847   2.496   5.030  14.559 -0.4289 -0.0480 -0.2196
11119TIP3    H154848   2.413   5.078  14.563  0.1331  0.8917  0.4660
11119TIP3    H254849   2.471   4.938  14.567 -1.4807  0.1554 -1.0176
11120TIP3   OH254850   5.836   0.420   5.543  0.1823 -0.5490  0.6059
11120TIP3    H154851   5.863   0.365   5.470  0.5057  0.4069 -0.0093
11120TIP3    H254852   5.743   0.436   5.529 -0.1865 -1.8004  1.3825
11121TIP3   OH254853   3.912   4.210  10.635  0.2758 -0.1161 -0.3930
11121TIP3    H154854   3.835   4.213  10.578 -0.4806  0.6323  0.6295
11121TIP3    H254855   3.916   4.119  10.665 -0.2938 -0.1301 -0.3493
11122TIP3   OH254856   2.389   4.418  15.728  0.4301 -0.4276  0.4074
11122TIP3    H154857   2.466   4.380  15.686  0.2933 -1.3289  0.9288
11122TIP3    H254858   2.386   4.377  15.814  0.5984  1.2576  1.2544
11123TIP3   OH254859   0.207   4.477  12.616  0.2976  0.3699  0.3072
11123TIP3    H154860   0.134   4.506  12.671 -0.1028 -1.3226  0.7166
11123TIP3    H254861   0.210   4.540  12.544 -0.9134  1.0440  0.8245
11124TIP3   OH254862   6.009   0.785  14.988 -0.4359 -0.9062 -0.4884
11124TIP3    H154863   6.004   0.748  15.076 -0.9522  0.2901  0.0027
11124TIP3    H254864   5.924   0.766  14.949  0.0162 -2.0201 -1.0050
11125TIP3   OH254865   0.398   1.247  11.362  0.2241  0.0132  0.2417
11125TIP3    H154866   0.465   1.313  11.382 -0.3864  0.0972  2.1933
11125TIP3    H254867   0.328   1.296  11.319  0.9515  0.0952 -0.9151
11126TIP3   OH254868   5.316   4.944   4.667 -0.2944  0.3191 -0.1413
11126TIP3    H154869   5.382   4.880   4.695 -1.7999 -1.5491 -0.6200
11126TIP3    H254870   5.339   5.024   4.713  2.4847 -0.1458 -0.5674
11127TIP3   OH254871   3.968   0.293  17.293  0.3568 -0.6519 -0.0524
11127TIP3    H154872   3.959   0.224  17.227  0.6748  0.0853 -0.9001
11127TIP3    H254873   3.886   0.343  17.286  1.1585  0.5919 -1.3104
11128TIP3   OH254874   3.133   0.408   5.422 -0.6901  0.2915  0.3352
11128TIP3    H154875   3.199   0.462   5.378  0.4565 -1.3809 -0.1079
11128TIP3    H254876   3.073   0.382   5.353 -0.2023 -0.4540  0.1802
11129TIP3   OH254877   6.734   3.467  13.770 -0.0862 -0.0058  0.1294
11129TIP3    H154878   6.814   3.458  13.720  0.3205 -0.2187  0.8051
11129TIP3    H254879   6.667   3.423  13.717  0.8703 -2.7347  1.0352
11130TIP3   OH254880   0.681   5.595  11.625 -0.0205  0.1716 -0.0856
11130TIP3    H154881   0.753   5.582  11.687 -0.1730 -0.2980 -0.0055
11130TIP3    H254882   0.706   5.543  11.549  1.0180  2.0992 -1.1503
11131TIP3   OH254883   3.993   3.538  15.995  0.4001 -0.0002  0.0160
11131TIP3    H154884   4.009   3.467  15.932  0.9593  0.2871 -0.1699
11131TIP3    H254885   4.073   3.589  15.994 -0.8415  2.0880 -1.6724
11132TIP3   OH254886   2.324   4.989  17.185  0.2663 -0.2645  0.1047
11132TIP3    H154887   2.344   4.916  17.243  0.1137  0.2694  0.8334
11132TIP3    H254888   2.408   5.032  17.169  0.3739 -0.6569 -0.4124
11133TIP3   OH254889   5.422   1.137  13.592 -0.3904  0.3007  0.2382
11133TIP3    H154890   5.399   1.207  13.530  0.8076  0.9058  0.4572
11133TIP3    H254891   5.407   1.056  13.542  0.5116  0.7724 -0.8386
11134TIP3   OH254892   2.826   2.028  11.138  0.4643 -0.2662  0.5050
11134TIP3    H154893   2.834   1.933  11.142 -0.2140 -0.5688 -2.5155
11134TIP3    H254894   2.743   2.043  11.092  0.9659  1.7323  0.1514
11135TIP3   OH254895   3.395   4.734  13.201  0.3289 -0.1826  0.9505
11135TIP3    H154896   3.482   4.734  13.162  0.8230  1.0718  1.9899
11135TIP3    H254897   3.383   4.644  13.232  0.4402 -0.8655 -0.8639
11136TIP3   OH254898   4.602   6.460  10.687  0.2378 -0.1969  0.5896
11136TIP3    H154899   4.590   6.550  10.718 -0.4085 -0.0413 -0.0883
11136TIP3    H254900   4.563   6.405  10.755 -3.1702  0.2212 -0.8305
11137TIP3   OH254901   6.029   4.592  15.292 -0.3292 -0.0144  0.5324
11137TIP3    H154902   6.058   4.638  15.371 -1.4795  1.0916  0.3370
11137TIP3    H254903   6.086   4.624  15.223 -0.1291 -0.0418  0.6843
11138TIP3   OH254904   5.837   5.390  14.237 -0.4276 -0.0676 -0.3581
11138TIP3    H154905   5.822   5.300  14.210  0.0749 -0.1601 -0.3351
11138TIP3    H254906   5.876   5.432  14.160  1.9687 -0.5924  0.4977
11139TIP3   OH254907   3.491   2.659  14.002  0.5889 -0.3274  0.1751
11139TIP3    H154908   3.460   2.749  13.993 -0.4476 -0.7798 -1.0139
11139TIP3    H254909   3.433   2.620  14.067 -1.1220 -1.0223 -1.6650
11140TIP3   OH254910   6.704   5.392   2.988  0.2320  0.6017 -0.2271
11140TIP3    H154911   6.675   5.478   3.018 -0.4058  0.4353 -0.3490
11140TIP3    H254912   6.748   5.409   2.905  0.0060  0.7962 -0.3074
11141TIP3   OH254913   2.660   2.913   3.280  0.2886 -0.1124  0.1016
11141TIP3    H154914   2.660   2.837   3.222  0.7059 -0.9371  1.1426
11141TIP3    H254915   2.750   2.918   3.313 -0.0955 -0.0902  1.1952
11142TIP3   OH254916   3.943   5.480   1.043 -0.4414  0.0674  0.1552
11142TIP3    H154917   3.877   5.419   1.012  0.4771 -0.9739  0.2101
11142TIP3    H254918   3.979   5.439   1.122  0.0387  0.7828  0.3216
11143TIP3   OH254919   4.555   6.095   2.759 -0.7372  0.2440 -0.6310
11143TIP3    H154920   4.529   6.029   2.824 -1.9285  0.2910 -1.0317
11143TIP3    H254921   4.489   6.087   2.690  0.7219 -0.0864 -2.0426
11144TIP3   OH254922   6.345   4.967  12.239  0.2967  0.3765 -0.0450
11144TIP3    H154923   6.292   4.957  12.318 -2.7992  0.0889 -2.0103
11144TIP3    H254924   6.380   4.880  12.222 -0.5074  0.0329  0.0382
11145TIP3   OH254925   1.308   1.661  15.696  0.3195 -0.2736  0.6082
11145TIP3    H154926   1.385   1.604  15.704  0.5574  0.2288  2.3877
11145TIP3    H254927   1.233   1.602  15.697  0.6360 -0.7923 -1.4371
11146TIP3   OH254928   3.286   5.967   2.935 -0.1425  0.2928  0.0262
11146TIP3    H154929   3.269   5.969   3.030  0.4240  0.6268  0.1232
11146TIP3    H254930   3.294   6.060   2.911 -0.7105  0.2251 -0.4294
11147TIP3   OH254931   6.358   5.867   3.817 -0.2899 -0.3896  0.1757
11147TIP3    H154932   6.330   5.956   3.837  1.0719  0.2819 -0.8163
11147TIP3    H254933   6.452   5.873   3.805 -0.2265 -1.9036 -0.3113
11148TIP3   OH254934   6.473   2.277   5.583 -0.5372  0.6884  0.1940
11148TIP3    H154935   6.500   2.261   5.493 -0.2987 -2.6674  0.7401
11148TIP3    H254936   6.532   2.346   5.614  0.0451  1.1914 -1.8887
11149TIP3   OH254937   0.875   5.702  17.218 -0.0356 -0.1085  0.3107
11149TIP3    H154938   0.904   5.787  17.251  0.7242 -0.1789 -0.1440
11149TIP3    H254939   0.955   5.662  17.182 -0.9950  0.4789 -2.7411
11150TIP3   OH254940   3.755   3.188   1.544 -0.1317 -0.6991  0.5515
11150TIP3    H154941   3.728   3.183   1.636 -1.3705  1.0802  0.3295
11150TIP3    H254942   3.676   3.215   1.497  0.8500 -0.0933 -0.8193
11151TIP3   OH254943   2.749   1.014   3.996 -0.2976 -0.3631  0.4710
11151TIP3    H154944   2.803   1.018   3.918  2.0677 -0.6442  1.9977
11151TIP3    H254945   2.761   1.099   4.038  1.8204 -1.5853  2.5523
11152TIP3   OH254946   5.930   1.107   4.584 -0.8822  0.3693 -0.5698
11152TIP3    H154947   6.016   1.106   4.542 -1.3246 -1.1712 -1.5253
11152TIP3    H254948   5.888   1.186   4.551 -0.2617  0.5089 -1.0392
11153TIP3   OH254949   2.628   4.253   1.095 -0.3040  0.9107  0.4723
11153TIP3    H154950   2.586   4.197   1.030  1.8638 -1.6404  1.0468
11153TIP3    H254951   2.619   4.341   1.061 -3.0171  0.1417 -1.0528
11154TIP3   OH254952   5.680   4.895   0.346  0.3777 -0.9562 -0.3535
11154TIP3    H154953   5.677   4.966   0.410 -0.7355 -2.2320  1.0691
11154TIP3    H254954   5.711   4.937   0.266 -4.1342  2.1416 -0.8532
11155TIP3   OH254955   6.612   0.071   1.727 -0.3773  0.1549  0.3706
11155TIP3    H154956   6.600  -0.005   1.669  1.7930  0.5938 -0.7541
11155TIP3    H254957   6.570   0.143   1.680  0.6059  0.3252 -0.2881
11156TIP3   OH254958   2.572   3.587   4.600 -0.3960 -0.0794  0.1094
11156TIP3    H154959   2.652   3.638   4.588 -0.9950  1.1010  0.8935
11156TIP3    H254960   2.557   3.588   4.695 -0.4999 -1.6293  0.1390
11157TIP3   OH254961   2.653   6.406  15.980  0.5972 -0.0508  0.3925
11157TIP3    H154962   2.674   6.413  16.073  0.0833  0.3689  0.4764
11157TIP3    H254963   2.674   6.492  15.944 -1.7449  0.6818  0.6415
11158TIP3   OH254964   0.404   5.879   4.493 -0.5448  0.2622  0.2202
11158TIP3    H154965   0.335   5.841   4.547 -0.2370 -0.4475  0.1214
11158TIP3    H254966   0.366   5.959   4.458 -1.4133 -0.2761 -0.0766
11159TIP3   OH254967   4.784   6.574  15.961 -0.1597  0.0494 -0.2644
11159TIP3    H154968   4.749   6.487  15.980 -2.7314  0.6444 -1.8112
11159TIP3    H254969   4.878   6.561  15.954 -0.4555 -2.5713 -0.2973
11160TIP3   OH254970   3.681   2.352   6.612  0.9049  0.5804  0.8540
11160TIP3    H154971   3.714   2.431   6.568  3.0898 -0.1182  1.1233
11160TIP3    H254972   3.608   2.384   6.665  1.1831  2.2789  0.3018
11161TIP3   OH254973   5.066   6.061  12.672 -0.8235 -0.1260 -0.1414
11161TIP3    H154974   5.101   6.081  12.759 -1.9316 -0.3530  0.3793
11161TIP3    H254975   5.001   6.130  12.656 -0.9380 -0.3356 -0.5921
11162TIP3   OH254976   2.600   1.743  12.950  0.1829 -0.5474 -0.4977
11162TIP3    H154977   2.546   1.695  12.888  2.2158 -2.0353 -1.2350
11162TIP3    H254978   2.669   1.783  12.896  1.3538 -0.9441  0.6432
11163TIP3   OH254979   3.183   0.596   1.199  0.2694 -0.1270  0.1030
11163TIP3    H154980   3.262   0.562   1.155  0.9235  1.8910 -0.4036
11163TIP3    H254981   3.192   0.691   1.193 -1.6827  0.1581  1.0352
11164TIP3   OH254982   3.246   1.447  17.155 -0.4975  0.1561  0.2625
11164TIP3    H154983   3.259   1.472  17.064  0.5871 -0.3146  0.2847
11164TIP3    H254984   3.334   1.438  17.191 -0.8999  1.4781  1.6844
11165TIP3   OH254985   4.032   5.300   2.319 -0.2726 -0.3031  0.2314
11165TIP3    H154986   4.075   5.336   2.397 -0.2665  3.9060 -1.4616
11165TIP3    H254987   3.940   5.296   2.342 -0.3576  1.5063  0.3688
11166TIP3   OH254988   4.102   1.386   4.787  0.1907  0.4957  0.0982
11166TIP3    H154989   4.022   1.406   4.739  0.3795 -0.2925 -0.5621
11166TIP3    H254990   4.173   1.409   4.727  0.4223 -0.8301 -0.1662
11167TIP3   OH254991   0.423   0.722  12.993 -0.3871 -0.2316 -0.0526
11167TIP3    H154992   0.481   0.744  13.066  0.5637 -1.3520 -0.4299
11167TIP3    H254993   0.359   0.662  13.031  1.2766 -2.4109 -0.4736
11168TIP3   OH254994   4.554   1.692   3.091 -0.6803  0.4344 -0.1694
11168TIP3    H154995   4.523   1.603   3.108 -1.4938  0.4635 -1.3741
11168TIP3    H254996   4.613   1.683   3.016 -0.2243  0.8269  0.1343
11169TIP3   OH254997   4.319   0.770   4.732  0.1354 -0.2642 -0.2777
11169TIP3    H154998   4.266   0.736   4.804  0.8721 -0.2351  0.2972
11169TIP3    H254999   4.377   0.834   4.774 -0.0956  0.4784 -1.0636
11170TIP3   OH255000   6.408   3.808  13.093  0.6406 -0.4043 -0.0271
11170TIP3    H155001   6.376   3.868  13.025 -1.6532 -1.6460 -0.1665
11170TIP3    H255002   6.368   3.841  13.174  1.1721 -0.4877  0.2711
11171TIP3   OH255003   3.200   1.008  13.785 -0.2603 -0.0849 -0.0939
11171TIP3    H155004   3.292   1.031  13.793 -0.4990  1.4865 -1.3320
11171TIP3    H255005   3.159   1.042  13.864 -0.0740  0.9662 -0.4400
11172TIP3   OH255006   1.031   6.086   3.747  0.8145  0.5354  0.2460
11172TIP3    H155007   0.987   6.136   3.679 -1.2322 -0.9884  0.3452
11172TIP3    H255008   1.014   5.995   3.725 -0.7831 -0.0382  3.2078
11173TIP3   OH255009   3.950   4.046   6.135  0.1533  0.2907 -0.0784
11173TIP3    H155010   3.893   4.077   6.065 -0.2758 -0.7559 -0.2104
11173TIP3    H255011   3.979   3.959   6.106  3.1764  1.4139 -0.8026
11174TIP3   OH255012   4.909   4.670   3.592 -0.2386  0.2916  0.1722
11174TIP3    H155013   4.977   4.673   3.525 -0.5966  0.3542 -0.1887
11174TIP3    H255014   4.943   4.727   3.662 -0.6244  1.6006 -0.6760
11175TIP3   OH255015   4.745   5.532  15.369 -0.0657  0.1505 -0.5206
11175TIP3    H155016   4.662   5.572  15.341 -0.1541 -0.2230 -0.7961
11175TIP3    H255017   4.797   5.526  15.289  0.1188  0.1169 -0.3982
11176TIP3   OH255018   2.955   1.031  16.215  0.4850  0.3242 -0.1235
11176TIP3    H155019   2.881   0.974  16.191 -0.2793  0.4224  1.7618
11176TIP3    H255020   3.032   0.987  16.180 -0.3868 -0.2204 -1.4252
11177TIP3   OH255021   0.800   6.128   0.531 -0.5814  0.8648 -0.1846
11177TIP3    H155022   0.807   6.078   0.613  0.7927 -0.7926 -1.2546
11177TIP3    H255023   0.780   6.063   0.464  0.5659  1.8256 -1.5200
11178TIP3   OH255024   1.954   0.939   5.805 -0.5057 -0.4511  0.2104
11178TIP3    H155025   1.870   0.920   5.845 -0.7829  2.8778  1.5443
11178TIP3    H255026   2.007   0.976   5.876  1.2326 -0.1899 -1.1438
11179TIP3   OH255027   6.491   0.277   0.187 -0.2475 -0.2095 -0.1766
11179TIP3    H155028   6.573   0.238   0.218 -0.1791  0.2122  0.1865
11179TIP3    H255029   6.510   0.304   0.097 -0.1026 -0.4393 -0.2162
11180TIP3   OH255030   5.126   5.122  12.576  0.2538  0.5592  0.0257
11180TIP3    H155031   5.040   5.162  12.567 -1.2281 -1.4415  3.4673
11180TIP3    H255032   5.179   5.189  12.620  0.5520  1.7615 -2.0243
11181TIP3   OH255033   2.433   5.375  11.874  0.5822  0.0252 -0.5049
11181TIP3    H155034   2.480   5.456  11.892  3.1261 -1.4140 -0.1577
11181TIP3    H255035   2.446   5.361  11.780 -0.1926  0.1952 -0.6437
11182TIP3   OH255036   6.711   3.435  15.709 -0.4777  0.1276  0.9629
11182TIP3    H155037   6.617   3.426  15.694 -0.5721  1.2004  0.8242
11182TIP3    H255038   6.720   3.520  15.752  0.4968  0.3592  0.3303
11183TIP3   OH255039   0.081   0.551  16.891 -0.2150  0.1753  0.5417
11183TIP3    H155040   0.045   0.564  16.803 -0.5213 -0.8007  0.5058
11183TIP3    H255041   0.172   0.579  16.885  0.4927 -2.0880 -0.7698
11184TIP3   OH255042   6.388   4.598  15.652  0.2301  0.3439 -0.0007
11184TIP3    H155043   6.388   4.612  15.558 -1.6635 -0.5830 -0.1957
11184TIP3    H255044   6.326   4.663  15.686 -0.8062 -0.7673  0.3030
11185TIP3   OH255045   4.061   6.305   0.294  0.3828 -0.0089 -0.0109
11185TIP3    H155046   4.087   6.384   0.247  1.8879 -0.6866 -0.3830
11185TIP3    H255047   4.012   6.253   0.231 -1.1583  0.8720  0.4186
11186TIP3   OH255048   0.232   0.106   0.162 -0.0856 -0.2018 -0.5283
11186TIP3    H155049   0.318   0.114   0.121  0.1685  0.4540  0.1069
11186TIP3    H255050   0.250   0.089   0.254 -0.5968  1.6865 -0.0350
11187TIP3   OH255051   2.954   0.309  16.353 -0.2393  1.1772  0.7660
11187TIP3    H155052   3.018   0.295  16.283 -1.8577 -0.0099 -0.5571
11187TIP3    H255053   2.966   0.235  16.412 -1.2564  0.1918 -0.2160
11188TIP3   OH255054   4.916   2.998  15.081 -0.3357  0.3710  0.0031
11188TIP3    H155055   4.983   2.934  15.055 -0.8183  0.3055 -1.1326
11188TIP3    H255056   4.938   3.077  15.032  1.2037  1.6688  2.5991
11189TIP3   OH255057   2.668   5.196  13.298  0.4551  0.0522  0.2169
11189TIP3    H155058   2.748   5.152  13.269 -0.1504 -0.9935  0.0797
11189TIP3    H255059   2.601   5.127  13.298 -0.2142  0.6651  1.3427
11190TIP3   OH255060   5.820   3.921  12.263 -0.2468 -0.9262 -0.4399
11190TIP3    H155061   5.800   3.840  12.217 -2.0020 -0.3147 -0.8515
11190TIP3    H255062   5.907   3.947  12.231 -0.9048 -1.1305 -2.5474
11191TIP3   OH255063   0.208   0.733  14.465  0.3497 -0.2072 -0.3606
11191TIP3    H155064   0.279   0.669  14.468  0.5664 -0.0732  3.8596
11191TIP3    H255065   0.240   0.807  14.517 -2.5810  0.0518  1.3231
11192TIP3   OH255066   1.997   5.373   1.934  0.0034 -0.5116  0.0627
11192TIP3    H155067   2.076   5.323   1.955  0.5993  0.4436  0.1609
11192TIP3    H255068   2.019   5.420   1.853 -0.5137 -0.3583  0.0079
11193TIP3   OH255069   2.641   4.733  13.500 -0.8173  0.3769  0.6587
11193TIP3    H155070   2.650   4.677  13.423  2.0925 -1.2613  2.0109
11193TIP3    H255071   2.705   4.803  13.488 -2.1459  1.6002  0.4752
11194TIP3   OH255072   2.820   5.972   2.755  0.0467 -0.6439  0.1224
11194TIP3    H155073   2.747   5.980   2.817 -0.1100 -1.0526 -0.0087
11194TIP3    H255074   2.898   5.981   2.810 -0.0808  1.4431  0.0555
11195TIP3   OH255075   4.446   4.271  12.272 -0.4316 -0.0584  0.0397
11195TIP3    H155076   4.504   4.347  12.277 -0.4793  0.0349 -0.6776
11195TIP3    H255077   4.470   4.228  12.190  0.2208 -1.3442  0.8592
11196TIP3   OH255078   3.096   4.889  12.069  0.4981  0.4575 -0.6343
11196TIP3    H155079   3.078   4.969  12.117 -0.6983 -0.3866  0.3903
11196TIP3    H255080   3.026   4.828  12.096  2.2512 -1.4645 -0.1488
11197TIP3   OH255081   6.113   5.730   1.097 -0.2093 -0.2023 -0.3976
11197TIP3    H155082   6.110   5.637   1.076 -0.4045 -0.3353  0.1922
11197TIP3    H255083   6.200   5.745   1.132 -0.2434 -0.2016 -0.3133
11198TIP3   OH255084   1.991   1.641  14.484 -0.1927  0.4039  0.5913
11198TIP3    H155085   1.982   1.717  14.541  1.1336 -0.3360  1.8499
11198TIP3    H255086   2.016   1.569  14.542  3.8679  0.1571 -1.0738
11199TIP3   OH255087   0.933   0.516  16.710 -0.0557  0.3967 -0.0202
11199TIP3    H155088   0.895   0.597  16.745 -0.8175 -0.3075  0.8082
11199TIP3    H255089   0.872   0.488  16.643  0.2573  0.5506 -0.3719
11200TIP3   OH255090   0.199   3.303   5.817 -0.0215  0.1383  0.3858
11200TIP3    H155091   0.295   3.308   5.824 -0.1318  2.6492  1.2168
11200TIP3    H255092   0.184   3.272   5.728  1.6284  1.9827 -0.6246
11201TIP3   OH255093   0.139   1.763  16.073 -0.2933 -0.0464 -0.3044
11201TIP3    H155094   0.167   1.763  16.165  0.0120 -2.0401 -0.3595
11201TIP3    H255095   0.179   1.685  16.036 -1.0897  0.2872 -1.9455
11202TIP3   OH255096   3.831   6.121  11.819 -0.5434  0.1551 -0.3600
11202TIP3    H155097   3.785   6.113  11.902  0.3083 -0.0157  0.1111
11202TIP3    H255098   3.924   6.123  11.843 -0.2390 -0.8144 -1.3622
11203TIP3   OH255099   5.464   0.397   4.670  0.2626 -0.1926  0.5883
11203TIP3    H155100   5.549   0.352   4.671 -1.1390 -3.0631 -0.1784
11203TIP3    H255101   5.401   0.329   4.692 -1.9614  1.6591  0.2531
11204TIP3   OH255102   5.612   4.605   2.898  0.3687  0.1923 -0.0677
11204TIP3    H155103   5.524   4.627   2.867 -1.4586 -3.5174  1.8176
11204TIP3    H255104   5.654   4.562   2.823 -0.7124 -0.9325 -0.0585
11205TIP3   OH255105   6.377   0.412   5.485 -0.2629  0.0237 -0.1443
11205TIP3    H155106   6.472   0.403   5.486 -0.3367 -1.1702 -1.4649
11205TIP3    H255107   6.356   0.457   5.568  1.3546 -0.5470  0.6038
11206TIP3   OH255108   3.124   2.473   1.342  0.3633  0.3831 -1.0026
11206TIP3    H155109   3.077   2.527   1.405  2.9635  0.8690  0.6711
11206TIP3    H255110   3.151   2.396   1.390  2.8231  0.9825 -1.2740
11207TIP3   OH255111   5.497   6.463   1.375 -0.2088  0.6740 -0.2476
11207TIP3    H155112   5.553   6.497   1.305 -0.2204 -0.2565 -0.7338
11207TIP3    H255113   5.438   6.535   1.397  1.9069  2.0813  1.0927
11208TIP3   OH255114   1.601   0.028   1.805 -0.6032 -0.7259 -0.4744
11208TIP3    H155115   1.521  -0.009   1.768 -1.3551 -0.5629  0.9078
11208TIP3    H255116   1.671  -0.027   1.771 -1.3599 -1.2479 -1.2239
11209TIP3   OH255117   1.570   0.889   4.238 -0.1625 -0.0383 -0.2199
11209TIP3    H155118   1.565   0.877   4.333 -3.1928  1.7809 -0.0171
11209TIP3    H255119   1.493   0.941   4.216 -0.1271 -1.2067 -3.8531
11210TIP3   OH255120   0.276   3.308   6.491  0.7098 -0.5507  0.2760
11210TIP3    H155121   0.225   3.341   6.565  0.4654  2.2601 -0.9969
11210TIP3    H255122   0.210   3.275   6.430  0.7671 -1.0351  0.4720
11211TIP3   OH255123   4.978   4.167   4.711 -0.0264  0.3327 -0.4517
11211TIP3    H155124   4.997   4.247   4.760  1.6803  1.0898 -2.2118
11211TIP3    H255125   5.051   4.109   4.733 -0.8177 -0.4448  0.1631
11212TIP3   OH255126   4.494   2.227  15.667 -0.0115  0.1614 -0.3296
11212TIP3    H155127   4.543   2.148  15.643  3.0923  1.8598 -0.0997
11212TIP3    H255128   4.544   2.265  15.739 -3.0244  0.9030  1.5237
11213TIP3   OH255129   2.748   5.061   4.132  0.3252 -0.0551  0.2075
11213TIP3    H155130   2.662   5.090   4.101 -0.2157 -2.0152 -0.2550
11213TIP3    H255131   2.801   5.141   4.134 -1.6032  1.2735  0.9005
11214TIP3   OH255132   4.723   2.043   0.644  0.0504 -1.0177  0.2709
11214TIP3    H155133   4.711   1.951   0.618  0.4010 -0.6976 -1.0728
11214TIP3    H255134   4.636   2.082   0.632  0.4401 -0.6301 -1.4823
11215TIP3   OH255135   0.270   5.240   6.810  0.0688 -0.2931  0.1966
11215TIP3    H155136   0.346   5.211   6.861 -0.0587  2.0898  1.9260
11215TIP3    H255137   0.222   5.298   6.869 -1.2004  1.0573 -2.0038
11216TIP3   OH255138   6.001   1.093   5.967  0.9552  0.1380 -0.0521
11216TIP3    H155139   5.979   1.089   6.060  0.8868 -1.9385 -0.1292
11216TIP3    H255140   5.936   1.152   5.929 -1.1031 -1.5794  0.6656
11217TIP3   OH255141   3.901   4.906  15.156 -0.0895  0.2293 -0.6022
11217TIP3    H155142   3.901   4.896  15.251  2.0789  0.4873 -0.5321
11217TIP3    H255143   3.844   4.835  15.125 -0.1164 -0.4244  0.8523
11218TIP3   OH255144   0.736   6.547  13.635  0.6496  0.1101  0.1476
11218TIP3    H155145   0.802   6.583  13.576 -0.0606 -1.4869 -1.7285
11218TIP3    H255146   0.771   6.462  13.661 -0.5773 -0.7005 -0.7660
11219TIP3   OH255147   4.763   1.789  15.748 -0.5512 -0.1306  0.3710
11219TIP3    H155148   4.737   1.759  15.660 -0.4198 -3.1339  1.2478
11219TIP3    H255149   4.859   1.798  15.742 -0.7710  2.7574 -0.5466
11220TIP3   OH255150   0.054   2.647  14.900 -0.3813 -0.6902  0.5827
11220TIP3    H155151   0.147   2.628  14.888  0.0792  2.2008 -1.7291
11220TIP3    H255152   0.017   2.567  14.938  2.5294 -2.9689 -0.9866
11221TIP3   OH255153   2.383   2.844  16.471  0.3865 -0.5092 -0.2302
11221TIP3    H155154   2.319   2.907  16.438  0.6660 -0.8489 -1.4431
11221TIP3    H255155   2.333   2.792  16.534 -0.1634  0.1216 -0.1202
11222TIP3   OH255156   4.860   5.588   2.631  0.0171 -0.7872 -0.1837
11222TIP3    H155157   4.813   5.536   2.695 -0.5953  0.3966  0.3585
11222TIP3    H255158   4.953   5.571   2.649 -0.1227  0.1661  1.5993
11223TIP3   OH255159   0.750   4.211  14.618  0.2755 -0.7238 -0.0916
11223TIP3    H155160   0.760   4.304  14.599 -1.4211 -0.3030  0.8219
11223TIP3    H255161   0.664   4.204  14.661  0.4115 -2.6911 -0.0197
11224TIP3   OH255162   6.279   2.100   0.027  0.4793  0.5429 -0.6790
11224TIP3    H155163   6.312   2.167  -0.033  1.2682 -0.2234 -1.1232
11224TIP3    H255164   6.297   2.017  -0.018  0.5026 -0.0123  0.3333
11225TIP3   OH255165   4.883   4.260   2.021  0.0768 -0.2523  0.1868
11225TIP3    H155166   4.872   4.183   2.077 -2.3061 -0.5051 -0.5033
11225TIP3    H255167   4.797   4.273   1.981  0.2733  3.0570  0.5878
11226TIP3   OH255168   5.430   5.775  12.955 -0.0001 -0.1832  0.2026
11226TIP3    H155169   5.359   5.726  12.915  0.0989 -0.9240  0.9240
11226TIP3    H255170   5.432   5.746  13.046  1.5201 -0.5222  0.0871
11227TIP3   OH255171   1.055   5.791  16.898  0.2610  0.1000 -0.7831
11227TIP3    H155172   1.122   5.747  16.846  1.3534 -0.0597  0.6779
11227TIP3    H255173   1.071   5.761  16.988 -1.2632  0.6998 -0.2707
11228TIP3   OH255174   0.542   2.982  17.116 -0.4152 -0.5813 -0.0851
11228TIP3    H155175   0.542   3.055  17.178 -3.0297 -1.2217  0.7926
11228TIP3    H255176   0.471   3.001  17.056  1.1536 -0.7072 -2.1038
11229TIP3   OH255177   3.044   1.161  13.521  0.0956  1.0142 -0.6220
11229TIP3    H155178   2.983   1.189  13.590 -0.0858  1.6595 -1.0404
11229TIP3    H255179   3.116   1.121  13.569 -1.1237 -0.7406 -0.1496
11230TIP3   OH255180   5.134   4.885   4.264 -0.1619 -0.0477  0.0048
11230TIP3    H155181   5.208   4.833   4.293 -1.4406 -0.4838  2.9139
11230TIP3    H255182   5.115   4.943   4.339 -2.3304  0.4872 -0.8781
11231TIP3   OH255183   1.095   4.863  11.693  0.3232  0.0525  0.2931
11231TIP3    H155184   1.148   4.788  11.665 -0.2937 -0.0254 -0.7239
11231TIP3    H255185   1.102   4.863  11.788 -1.5590 -2.7514  0.5723
11232TIP3   OH255186   4.491   3.371  16.318  0.3663  0.1847  0.5032
11232TIP3    H155187   4.502   3.315  16.395  0.9766 -1.2838 -0.5947
11232TIP3    H255188   4.579   3.400  16.296  0.5650 -1.4321 -1.0409
11233TIP3   OH255189   3.260   4.466  14.633 -0.0719 -0.1278  0.2024
11233TIP3    H155190   3.205   4.533  14.673 -1.6253  0.5467 -2.8030
11233TIP3    H255191   3.199   4.405  14.593  1.3536 -1.2680 -0.3410
11234TIP3   OH255192   3.880   3.333  15.721  0.6564 -0.6391 -0.0710
11234TIP3    H155193   3.868   3.425  15.699  0.9867  0.1947  2.8879
11234TIP3    H255194   3.909   3.292  15.639 -1.1987  1.4791 -1.9196
11235TIP3   OH255195   5.413   6.188  13.817 -0.6506  0.0129  0.3010
11235TIP3    H155196   5.390   6.102  13.784  1.4372 -1.0056  1.2942
11235TIP3    H255197   5.387   6.187  13.909 -1.8945  0.9980 -0.0116
11236TIP3   OH255198   6.315   6.092  13.353  0.0473 -0.1195  0.3299
11236TIP3    H155199   6.391   6.150  13.354  0.7581 -0.9697 -0.9748
11236TIP3    H255200   6.314   6.052  13.440  1.7693 -0.9006  0.0446
11237TIP3   OH255201   2.079   3.454   4.988  0.7704 -0.2535 -0.2747
11237TIP3    H155202   2.026   3.533   4.983 -1.3968 -1.6920 -3.1362
11237TIP3    H255203   2.163   3.483   5.024 -0.2239  3.1023 -0.3593
11238TIP3   OH255204   1.680   0.479  16.459 -0.3219  0.1103 -0.2493
11238TIP3    H155205   1.589   0.467  16.485 -0.5488  0.1408 -1.0130
11238TIP3    H255206   1.680   0.468  16.364  0.4896  0.0099 -0.2476
11239TIP3   OH255207   1.535   1.126   1.867  0.0324 -0.6929  0.1978
11239TIP3    H155208   1.519   1.216   1.837 -0.3782 -1.2050 -1.1964
11239TIP3    H255209   1.578   1.137   1.952  1.5146  0.8377 -0.6891
11240TIP3   OH255210   3.849   3.943   3.678  0.2776 -0.9880 -0.1912
11240TIP3    H155211   3.794   3.898   3.614 -2.1271  0.5532  0.6348
11240TIP3    H255212   3.863   4.030   3.641  0.5354 -0.7271  0.4912
11241TIP3   OH255213   2.425   5.638   4.557 -0.0987  0.2108  0.7431
11241TIP3    H155214   2.343   5.631   4.508  0.3533  1.0454 -0.1582
11241TIP3    H255215   2.405   5.698   4.629 -0.5315 -0.3410  1.0900
11242TIP3   OH255216   3.621   5.503   5.811 -0.0363  0.4837 -0.1073
11242TIP3    H155217   3.716   5.512   5.812  0.0972 -0.6957 -0.0384
11242TIP3    H255218   3.606   5.409   5.802 -1.1963  0.7675 -1.8777
11243TIP3   OH255219   5.538   3.835  14.621  0.1195  0.0667 -0.3322
11243TIP3    H155220   5.486   3.888  14.560 -0.8246 -0.2645  0.1730
11243TIP3    H255221   5.501   3.853  14.707  1.7582  0.9107  0.2508
11244TIP3   OH255222   2.341   5.399  13.391  0.2518  0.0331  0.5938
11244TIP3    H155223   2.370   5.310  13.370  1.3736  0.2040  1.3096
11244TIP3    H255224   2.246   5.396  13.384  0.3667 -0.7988 -0.9944
11245TIP3   OH255225   0.294   6.444  17.222  0.7893  0.0071  0.0806
11245TIP3    H155226   0.226   6.460  17.288  0.7352  0.8479 -0.1742
11245TIP3    H255227   0.271   6.358  17.186  0.7683 -0.4273  1.0773
11246TIP3   OH255228   6.495   1.381   0.649 -0.5988 -0.1043 -0.2883
11246TIP3    H155229   6.445   1.355   0.572 -0.8091 -1.6405  0.3369
11246TIP3    H255230   6.485   1.308   0.710  1.6929 -0.0979  0.1843
11247TIP3   OH255231   1.413   1.477   5.356  0.3814 -0.3956  0.5041
11247TIP3    H155232   1.485   1.535   5.331  0.0819 -0.0136  0.5181
11247TIP3    H255233   1.456   1.398   5.388  0.7767 -0.8617 -1.1145
11248TIP3   OH255234   1.160   4.126  17.022 -0.7168  0.4374 -0.2356
11248TIP3    H155235   1.121   4.207  17.055 -0.4703  0.5464 -0.2095
11248TIP3    H255236   1.090   4.084  16.973 -0.4374  1.3791 -1.4981
11249TIP3   OH255237   2.099   2.296   0.279 -0.4896  0.2475  0.3405
11249TIP3    H155238   2.147   2.376   0.255 -0.5640  0.0807 -0.4119
11249TIP3    H255239   2.018   2.302   0.229 -0.1836 -0.6441 -0.2942
11250TIP3   OH255240   3.137   3.605   3.607  0.0011  0.5680  0.3595
11250TIP3    H155241   3.204   3.665   3.576 -0.0214 -0.2006 -1.2905
11250TIP3    H255242   3.074   3.661   3.653  0.9845  1.4929  0.6375
11251TIP3   OH255243   2.297   4.508  16.716 -0.2401 -0.3358 -0.2477
11251TIP3    H155244   2.342   4.436  16.672  0.8377 -0.7748  1.4879
11251TIP3    H255245   2.268   4.470  16.800 -0.5219  0.9900  0.2753
11252TIP3   OH255246   5.860   1.676   1.388  0.0322 -0.3584 -0.2392
11252TIP3    H155247   5.867   1.606   1.453  0.6917  0.3324  0.4447
11252TIP3    H255248   5.803   1.741   1.429 -3.0645 -1.7241 -2.0138
11253TIP3   OH255249   0.515   1.180  15.593 -0.2368 -0.2643  0.2515
11253TIP3    H155250   0.513   1.269  15.557  0.0592  1.3952  3.8369
11253TIP3    H255251   0.426   1.148  15.584 -0.3350  0.3351 -1.1658
11254TIP3   OH255252   5.579   2.442  13.577  0.1504 -0.1988  0.1642
11254TIP3    H155253   5.529   2.493  13.513  1.4333  0.0486 -0.6845
11254TIP3    H255254   5.516   2.419  13.644 -1.2848 -0.5894 -1.2722
11255TIP3   OH255255   4.910   6.761   3.438 -0.1038 -0.2692 -0.4310
11255TIP3    H155256   4.994   6.807   3.446 -0.9904  1.1848  0.9137
11255TIP3    H255257   4.908   6.701   3.512 -0.4861  0.1124 -0.1272
11256TIP3   OH255258   0.043   2.062   2.527 -0.1367  0.0263  0.1561
11256TIP3    H155259   0.015   2.125   2.461 -2.1575  2.2135  2.8359
11256TIP3    H255260   0.016   1.977   2.493 -0.9856  1.0373 -1.8314
11257TIP3   OH255261   2.398   5.137  16.660  0.0306  0.0095 -0.2754
11257TIP3    H155262   2.349   5.220  16.660  1.7323  1.0731 -1.3076
11257TIP3    H255263   2.370   5.093  16.580 -2.1215 -1.2582  1.0878
11258TIP3   OH255264   0.475   0.210  14.238 -0.5637  0.6070  0.3811
11258TIP3    H155265   0.404   0.156  14.275 -1.5388  1.3060 -0.4195
11258TIP3    H255266   0.543   0.209  14.305 -1.4058  0.0617  1.2564
11259TIP3   OH255267   3.183   1.242   4.861 -0.1014  0.3272 -0.3743
11259TIP3    H155268   3.103   1.226   4.911 -0.3122 -0.3647 -0.9090
11259TIP3    H255269   3.157   1.227   4.770  0.9818 -1.4413 -0.4426
11260TIP3   OH255270   1.182   5.169  13.553 -0.0738 -0.1688  0.5664
11260TIP3    H155271   1.135   5.128  13.626 -0.0777  1.5445  1.5676
11260TIP3    H255272   1.268   5.190  13.588 -0.0373  0.5728  0.0601
11261TIP3   OH255273   5.782   1.113  11.722  0.1023 -0.3998 -0.0818
11261TIP3    H155274   5.748   1.025  11.710 -0.6006 -0.0158 -1.1422
11261TIP3    H255275   5.707   1.170  11.702  0.9555  0.4444 -0.9964
11262TIP3   OH255276   2.572   3.466  13.332  0.0708  0.3634 -0.4360
11262TIP3    H155277   2.483   3.501  13.326  0.4335  1.2534 -0.8767
11262TIP3    H255278   2.626   3.531  13.286  0.7912 -0.7471 -1.2028
11263TIP3   OH255279   4.550   5.888  13.490  0.0350 -0.9156 -0.3292
11263TIP3    H155280   4.640   5.898  13.523 -0.6319  2.7722  0.8604
11263TIP3    H255281   4.533   5.794  13.494  3.3018 -1.5869  0.8490
11264TIP3   OH255282   5.688   3.261  12.356 -0.6936  0.3540 -0.1203
11264TIP3    H155283   5.738   3.310  12.422  0.4779  0.5488 -1.1050
11264TIP3    H255284   5.666   3.326  12.290 -0.4093 -0.1555 -0.7217
11265TIP3   OH255285   5.808   3.535   6.181 -0.5344  0.2190 -0.9380
11265TIP3    H155286   5.746   3.585   6.235 -0.3837 -0.1030 -0.4634
11265TIP3    H255287   5.881   3.516   6.240 -0.0770  0.4041 -1.4306
11266TIP3   OH255288   4.054   3.193  15.497 -0.5179 -0.1796 -0.1855
11266TIP3    H155289   4.009   3.111  15.478 -1.3231  0.4203 -0.9120
11266TIP3    H255290   4.065   3.235  15.412  0.3672  0.2229  0.1212
11267TIP3   OH255291   5.509   2.101  17.100 -0.6407  0.0854  0.7733
11267TIP3    H155292   5.438   2.075  17.159 -3.5126  0.5368 -2.1936
11267TIP3    H255293   5.490   2.055  17.018  1.7120  1.3834 -0.6004
11268TIP3   OH255294   4.333   5.013  11.194  0.4808  0.3125  0.2969
11268TIP3    H155295   4.331   4.943  11.129 -1.5449  1.2157 -0.7073
11268TIP3    H255296   4.344   4.968  11.278  0.9157 -1.0498 -0.4649
11269TIP3   OH255297   3.628   0.084   5.919  0.4205 -0.0303 -0.6595
11269TIP3    H155298   3.684   0.034   5.978 -0.6106 -0.3203  0.0946
11269TIP3    H255299   3.648   0.176   5.940 -2.1615 -0.0195  2.4840
11270TIP3   OH255300   4.971   4.864   3.807 -0.7980 -0.0170  0.1569
11270TIP3    H155301   5.027   4.925   3.759  1.5008 -2.0148  0.0993
11270TIP3    H255302   4.967   4.899   3.896 -1.4105  1.3565 -0.3791
11271TIP3   OH255303   0.849   3.475  16.511  1.2073  0.0688  0.0858
11271TIP3    H155304   0.773   3.467  16.569  1.9028 -0.2969  0.9842
11271TIP3    H255305   0.824   3.428  16.432 -0.4263  2.0479 -0.6577
11272TIP3   OH255306   4.943   2.101  14.976 -0.1242 -0.3870  0.2602
11272TIP3    H155307   5.010   2.063  14.920  0.6293 -0.3546  1.1289
11272TIP3    H255308   4.881   2.141  14.915  0.9436  0.0860 -0.5357
11273TIP3   OH255309   2.162   6.048   4.418  0.2018 -0.1615  0.2250
11273TIP3    H155310   2.129   6.073   4.504  0.8374  0.5054  0.2794
11273TIP3    H255311   2.251   6.083   4.414  0.0742  0.0986 -0.8202
11274TIP3   OH255312   3.152   1.840   4.840  0.0517 -0.3940 -0.0961
11274TIP3    H155313   3.129   1.885   4.922 -1.5456  0.3340 -0.8871
11274TIP3    H255314   3.201   1.763   4.867 -0.2984 -0.0763  1.5334
11275TIP3   OH255315   4.696   2.797   0.646 -0.0194  0.3591  0.2176
11275TIP3    H155316   4.671   2.743   0.721  0.5808 -0.0999  0.0995
11275TIP3    H255317   4.788   2.820   0.663  0.8684 -1.6209 -1.4330
11276TIP3   OH255318   0.439   5.134  17.167 -0.3574 -0.1995 -0.3837
11276TIP3    H155319   0.349   5.107  17.149  0.0989 -1.0715 -1.4064
11276TIP3    H255320   0.484   5.128  17.083  0.6221  0.4381  0.0675
11277TIP3   OH255321   3.316   6.535   4.740 -0.1302 -0.5152 -0.6785
11277TIP3    H155322   3.232   6.491   4.727  0.0499 -0.4667 -2.0930
11277TIP3    H255323   3.381   6.474   4.705  0.5609 -0.9964  1.2998
11278TIP3   OH255324   0.901   6.283   5.933 -0.4777 -0.0733 -0.2895
11278TIP3    H155325   0.829   6.333   5.895  0.5524  1.9917  0.3285
11278TIP3    H255326   0.907   6.315   6.023  0.4886 -1.0246 -0.0005
11279TIP3   OH255327   3.694   2.158  12.798  0.4514 -0.0064  0.0276
11279TIP3    H155328   3.646   2.086  12.757 -0.9143 -0.0160  1.5392
11279TIP3    H255329   3.755   2.188  12.731 -1.4187 -0.2473 -1.8621
11280TIP3   OH255330   4.872   3.863   1.073  0.1291  0.4087 -0.3314
11280TIP3    H155331   4.810   3.870   1.000  0.7028 -0.0421 -0.8635
11280TIP3    H255332   4.855   3.777   1.111  0.3646  0.3227 -0.4201
11281TIP3   OH255333   2.179   5.678  13.767 -0.0090  0.7085 -0.3047
11281TIP3    H155334   2.218   5.657  13.852 -0.2757 -1.6551 -0.7087
11281TIP3    H255335   2.245   5.651  13.703 -0.7201  0.3459 -0.8987
11282TIP3   OH255336   5.466   5.124  17.332 -0.0946  0.0099  0.3118
11282TIP3    H155337   5.425   5.190  17.275 -0.8486 -0.3106  0.4644
11282TIP3    H255338   5.538   5.088  17.279 -0.3631  0.1914 -0.1871
11283TIP3   OH255339   4.989   1.573   1.221 -0.1481 -0.1972 -0.0049
11283TIP3    H155340   5.069   1.596   1.269 -0.3801  1.3002 -0.2925
11283TIP3    H255341   4.946   1.507   1.275  0.6369 -0.0627  0.7956
11284TIP3   OH255342   6.111   3.111   2.162 -0.1258 -0.2027  0.2597
11284TIP3    H155343   6.106   3.128   2.067 -0.4321 -0.4684  0.2261
11284TIP3    H255344   6.057   3.033   2.175 -0.4291  0.0765  0.7142
11285TIP3   OH255345   0.004   6.503  12.932  0.5284 -0.0818 -0.1951
11285TIP3    H155346   0.030   6.592  12.954 -1.6883  0.3435  1.0148
11285TIP3    H255347  -0.038   6.511  12.847 -0.3358  0.2058  0.2415
11286TIP3   OH255348   2.581   2.058  14.714 -0.0829  0.0872  0.0491
11286TIP3    H155349   2.640   2.129  14.688  0.3140 -0.7790 -1.5171
11286TIP3    H255350   2.640   1.986  14.737 -0.4857  0.1785  1.4756
11287TIP3   OH255351   2.444   1.669  10.916 -0.2663  0.1630 -0.1460
11287TIP3    H155352   2.471   1.760  10.930 -1.1243  0.5489 -0.9576
11287TIP3    H255353   2.500   1.619  10.976 -2.1875  1.5028  2.9942
11288TIP3   OH255354   3.553   2.205   5.350 -0.3208  1.0541 -0.2656
11288TIP3    H155355   3.489   2.253   5.403 -1.0470  0.1692 -0.2996
11288TIP3    H255356   3.499   2.150   5.293  0.4735  0.9974 -0.9705
11289TIP3   OH255357   6.161   3.964   0.292 -0.0503  0.0944  0.5307
11289TIP3    H155358   6.130   4.011   0.215 -0.6280 -1.0456  0.0380
11289TIP3    H255359   6.113   4.003   0.365 -0.7492  0.0744  0.0933
11290TIP3   OH255360   0.128   2.224  17.369 -0.5498 -0.0793  0.4081
11290TIP3    H155361   0.182   2.240  17.447 -1.1470  1.1561  0.5938
11290TIP3    H255362   0.188   2.183  17.307  1.1634  2.7571 -0.0264
11291TIP3   OH255363   5.849   4.998  11.191  0.1010 -0.8171 -0.5885
11291TIP3    H155364   5.784   5.055  11.233  0.8062 -0.1719 -0.3498
11291TIP3    H255365   5.797   4.942  11.133 -0.6594 -0.2383 -0.4942
11292TIP3   OH255366   4.149   3.097  15.766 -0.2722 -0.0981 -0.2851
11292TIP3    H155367   4.078   3.124  15.824 -0.3947 -1.6862  0.3636
11292TIP3    H255368   4.105   3.062  15.689 -0.2858 -1.9796  0.5203
11293TIP3   OH255369   5.955   2.919  13.906  0.4152  0.0883  0.1301
11293TIP3    H155370   5.891   2.912  13.976  0.3827  0.0644  0.0977
11293TIP3    H255371   5.922   2.989  13.849  1.2104  1.1714  0.9507
11294TIP3   OH255372   2.906   0.427   3.113  0.8382 -0.5547  0.1575
11294TIP3    H155373   2.843   0.460   3.050 -0.9165 -2.5053  0.7788
11294TIP3    H255374   2.854   0.379   3.177  2.8333 -1.1452  1.4420
11295TIP3   OH255375   2.587   0.272  13.787  0.5087 -0.0427 -0.4619
11295TIP3    H155376   2.668   0.222  13.793 -0.0289 -0.8428  0.3830
11295TIP3    H255377   2.560   0.263  13.696  0.9797 -0.3893 -0.5740
11296TIP3   OH255378   6.461   1.145  13.894  0.7174 -0.5528 -0.4800
11296TIP3    H155379   6.499   1.159  13.981 -0.5390  1.8403 -0.2443
11296TIP3    H255380   6.479   1.053  13.875  0.4253 -1.3607  2.5971
11297TIP3   OH255381   1.113   2.753  13.033 -0.6040  0.5981 -0.1389
11297TIP3    H155382   1.138   2.687  13.098 -0.7941  0.9595  0.3016
11297TIP3    H255383   1.094   2.702  12.954  1.1028  0.2662 -0.3711
11298TIP3   OH255384   4.184   5.622   4.446 -0.2264 -0.2412  0.2764
11298TIP3    H155385   4.195   5.531   4.420 -0.1621 -1.0449  2.8404
11298TIP3    H255386   4.245   5.633   4.519 -1.3655  1.3939  1.0394
11299TIP3   OH255387   0.544   1.313   1.873 -0.0067 -0.5820  0.1605
11299TIP3    H155388   0.573   1.389   1.823  0.7728  0.1035  1.5971
11299TIP3    H255389   0.560   1.239   1.815 -1.9359  0.3945 -1.7529
11300TIP3   OH255390   2.670   0.993  16.827 -0.4869 -0.3732 -0.1018
11300TIP3    H155391   2.649   0.943  16.906 -0.5638 -1.1451 -0.5999
11300TIP3    H255392   2.596   0.977  16.769 -2.3718  3.1990  0.9958
11301TIP3   OH255393   3.287   4.732   5.234 -0.5170 -0.2211 -0.2643
11301TIP3    H155394   3.244   4.660   5.281 -1.7974  1.3989  1.1785
11301TIP3    H255395   3.217   4.796   5.221  0.9124  1.3973 -0.2178
11302TIP3   OH255396   3.250   2.884   0.661  0.3525  0.5222  0.5855
11302TIP3    H155397   3.204   2.952   0.711 -1.9124 -0.9907  0.6723
11302TIP3    H255398   3.221   2.802   0.700  0.6929 -0.6050 -1.4445
11303TIP3   OH255399   2.428   5.143  12.849  0.0304 -0.3062 -0.0401
11303TIP3    H155400   2.424   5.051  12.874  1.7289 -0.7530 -1.2634
11303TIP3    H255401   2.370   5.187  12.911  0.8256 -1.8936  1.9416
11304TIP3   OH255402   1.046   1.552  14.915  0.2628 -0.4394  0.2163
11304TIP3    H155403   1.002   1.477  14.874 -0.5811 -0.3868  1.0037
11304TIP3    H255404   1.050   1.530  15.008  2.7790 -0.8630  0.0776
11305TIP3   OH255405   1.830   1.801   4.743 -0.4674  0.2616  0.2905
11305TIP3    H155406   1.924   1.803   4.729 -0.2139  0.3911  1.8763
11305TIP3    H255407   1.800   1.888   4.715 -0.2629 -0.0835 -1.0447
11306TIP3   OH255408   1.055   5.656  13.976 -0.1930  0.2518 -0.3642
11306TIP3    H155409   1.124   5.678  14.038  0.9906 -0.4791 -1.3788
11306TIP3    H255410   1.099   5.606  13.907 -1.6207  0.2896 -1.3550
11307TIP3   OH255411   3.549   4.073   5.621  0.5089  0.0271  1.3289
11307TIP3    H155412   3.482   4.136   5.648  0.3412  0.4685 -0.0192
11307TIP3    H255413   3.631   4.123   5.625  0.2076  0.8363 -1.1149
11308TIP3   OH255414   1.790   3.744  14.194 -0.0133  0.0120  0.4821
11308TIP3    H155415   1.774   3.786  14.279 -0.3759  1.2957 -0.1884
11308TIP3    H255416   1.882   3.763  14.174  0.7272 -2.1426  1.5379
11309TIP3   OH255417   0.485   0.140  16.083 -0.8246 -0.4527 -0.2903
11309TIP3    H155418   0.452   0.227  16.103  0.2000  0.0470 -0.7125
11309TIP3    H255419   0.420   0.103  16.022  0.0359  1.0505 -2.2287
11310TIP3   OH255420   0.466   1.122  16.491  0.0684 -0.2155 -0.0520
11310TIP3    H155421   0.376   1.097  16.470 -0.8082  1.4769  1.3555
11310TIP3    H255422   0.461   1.157  16.580  2.4689 -1.6845  0.7582
11311TIP3   OH255423   6.564   0.528  11.657  0.5071 -0.0830  0.0271
11311TIP3    H155424   6.514   0.607  11.634  0.3578 -0.2516 -0.2226
11311TIP3    H255425   6.504   0.456  11.640  0.0686 -0.1759  1.7696
11312TIP3   OH255426   2.691   4.000   3.318 -0.2444 -0.4538 -0.0446
11312TIP3    H155427   2.596   4.009   3.317 -0.3529 -0.9292  1.8539
11312TIP3    H255428   2.706   3.905   3.314  0.2979 -0.3513 -2.9842
11313TIP3   OH255429   0.324   0.143   5.813  0.2680 -0.0295 -0.1845
11313TIP3    H155430   0.372   0.062   5.832 -0.1286 -0.2113  0.0534
11313TIP3    H255431   0.324   0.149   5.718 -0.4801 -0.7928 -0.2475
11314TIP3   OH255432   1.504   0.665   4.467 -0.1221  0.4431  0.0477
11314TIP3    H155433   1.523   0.751   4.504 -0.4587  0.6523 -0.2509
11314TIP3    H255434   1.580   0.611   4.490  0.5931  1.1133 -0.6728
11315TIP3   OH255435   3.323   3.659   1.302  0.0673  0.5692  0.3183
11315TIP3    H155436   3.338   3.574   1.260  4.6641 -0.7115  3.6442
11315TIP3    H255437   3.387   3.718   1.261  3.0098 -0.1237  3.3929
11316TIP3   OH255438   0.651   1.560   4.523 -0.5990  0.0568 -0.5492
11316TIP3    H155439   0.557   1.560   4.507 -0.7069 -0.9157  0.0483
11316TIP3    H255440   0.676   1.653   4.518 -1.8432  0.4891  0.7583
11317TIP3   OH255441   5.899   0.868  12.567  0.4446 -0.2536  0.0157
11317TIP3    H155442   5.952   0.830  12.637  0.0727  0.1399  0.5238
11317TIP3    H255443   5.810   0.837  12.586  0.0569  1.1839  0.6958
11318TIP3   OH255444   4.695   0.571  12.710 -0.1714 -0.1278  0.1482
11318TIP3    H155445   4.608   0.539  12.686  0.5458 -1.6742 -0.5238
11318TIP3    H255446   4.686   0.601  12.801 -1.0679 -1.6708  0.5895
11319TIP3   OH255447   5.033   1.611  12.279 -0.2575  0.4924 -0.1076
11319TIP3    H155448   4.997   1.523  12.292  0.7934 -0.1032 -0.9740
11319TIP3    H255449   5.042   1.647  12.367 -1.6549  0.1401  0.2026
11320TIP3   OH255450   6.298   0.765  14.357 -0.6563 -0.2651  0.3329
11320TIP3    H155451   6.332   0.751  14.446  0.7805 -1.3994 -0.3518
11320TIP3    H255452   6.282   0.677  14.324 -0.0113  0.0923 -0.9683
11321TIP3   OH255453   5.828   2.125  11.856 -0.1543  0.8692  0.0302
11321TIP3    H155454   5.821   2.220  11.862 -1.9856  0.7885 -0.1992
11321TIP3    H255455   5.746   2.093  11.894 -0.8327 -0.5069 -2.3752
11322TIP3   OH255456   4.973   2.977   1.026  0.1191 -0.0747  0.0191
11322TIP3    H155457   5.043   2.928   0.982 -0.8881 -0.2099 -1.4851
11322TIP3    H255458   4.962   2.932   1.110  0.3201 -1.4304 -0.6520
11323TIP3   OH255459   0.920   6.386  11.460 -0.2672 -0.1377  0.3564
11323TIP3    H155460   0.932   6.476  11.490  0.2630 -0.6134  1.6162
11323TIP3    H255461   1.008   6.354  11.444 -0.4518 -0.4665 -0.0218
11324TIP3   OH255462   2.456   5.097   4.066  0.7928  0.1039 -0.1014
11324TIP3    H155463   2.436   5.079   4.158  0.0485 -1.2435 -0.4984
11324TIP3    H255464   2.380   5.064   4.018  1.8480 -0.6311 -1.3186
11325TIP3   OH255465   2.189   4.845  16.077 -0.0454 -0.7410  0.1949
11325TIP3    H155466   2.283   4.849  16.090 -0.0407  2.9401  0.0609
11325TIP3    H255467   2.172   4.900  16.000 -2.3539 -0.4325  0.8217
11326TIP3   OH255468   3.925   6.350  17.127 -0.3821 -0.9160 -0.2942
11326TIP3    H155469   3.979   6.395  17.063 -0.7427 -0.6922 -0.4479
11326TIP3    H255470   3.981   6.280  17.161 -0.5186 -1.7166 -1.6123
11327TIP3   OH255471   5.059   6.542  15.940  0.3304 -0.0315  0.3618
11327TIP3    H155472   5.144   6.523  15.901 -0.3239  2.5379 -2.8405
11327TIP3    H255473   5.069   6.629  15.978 -1.3782  1.6408 -2.6001
11328TIP3   OH255474   6.522   5.040  15.666  0.0513 -0.1711  0.4817
11328TIP3    H155475   6.591   5.069  15.726 -0.4667 -0.6870  1.3251
11328TIP3    H255476   6.517   4.946  15.678  0.0429 -0.3092 -0.4941
11329TIP3   OH255477   4.314   2.251  14.130 -0.6051  0.1379  0.5894
11329TIP3    H155478   4.342   2.179  14.072 -0.1532 -0.0508  1.0316
11329TIP3    H255479   4.352   2.229  14.215 -1.2574  0.4189  0.9566
11330TIP3   OH255480   3.088   0.250   4.453  0.3454 -0.3274  0.6078
11330TIP3    H155481   3.116   0.236   4.363  0.9992  0.9227  0.5976
11330TIP3    H255482   3.169   0.248   4.504  0.1934  0.8119  0.9138
11331TIP3   OH255483   5.036   1.234   5.933 -0.2666  0.5534  0.2525
11331TIP3    H155484   5.045   1.184   6.014  0.8298  1.0779  0.4779
11331TIP3    H255485   4.943   1.232   5.914 -0.4380 -0.2616  1.0917
11332TIP3   OH255486   0.996   5.846   1.146 -0.4799 -0.1032 -0.8612
11332TIP3    H155487   1.059   5.777   1.129  1.3685  1.4982 -0.8502
11332TIP3    H255488   0.984   5.845   1.241  0.7972  0.5922 -0.6737
11333TIP3   OH255489   3.561   3.101  10.333 -0.2988  0.4520 -0.0208
11333TIP3    H155490   3.556   3.187  10.376  1.7730  0.0520  1.1671
11333TIP3    H255491   3.477   3.060  10.352 -0.0415  0.9001  2.4786
11334TIP3   OH255492   1.688   3.409  17.367  0.3651  0.3527 -0.1486
11334TIP3    H155493   1.624   3.463  17.414  0.4031 -0.6963  1.1336
11334TIP3    H255494   1.647   3.394  17.281 -1.7428 -1.3293  1.0579
11335TIP3   OH255495   6.503   0.811  17.419 -0.3471 -0.0617 -0.2950
11335TIP3    H155496   6.595   0.833  17.406  0.0387 -1.4607 -0.0459
11335TIP3    H255497   6.496   0.788  17.512 -0.4277 -2.1673 -0.7680
11336TIP3   OH255498   4.596   3.314   0.669 -0.0159  0.3569 -0.1272
11336TIP3    H155499   4.530   3.267   0.719 -0.8256  2.5833  0.9929
11336TIP3    H255500   4.602   3.266   0.586  0.2664 -2.5310  1.4281
11337TIP3   OH255501   4.964   1.733  14.866 -0.1014 -0.0586 -0.3205
11337TIP3    H155502   4.896   1.713  14.802 -0.2268  1.7263 -0.8048
11337TIP3    H255503   5.042   1.754  14.813  0.6157 -1.2895  0.2043
11338TIP3   OH255504   4.048   0.086  16.531 -0.3197 -0.3282 -0.1935
11338TIP3    H155505   3.978   0.082  16.465 -0.8419  0.7463  0.2546
11338TIP3    H255506   4.063  -0.004  16.557 -2.7196 -0.4905  0.8799
11339TIP3   OH255507   1.646   3.681  11.521 -0.1523  0.2833 -0.2233
11339TIP3    H155508   1.567   3.653  11.568  0.0106  0.0899 -0.0594
11339TIP3    H255509   1.716   3.627  11.559 -0.1473 -0.4943 -1.2833
11340TIP3   OH255510   5.790   2.195   5.175  0.2300  0.0595 -0.5898
11340TIP3    H155511   5.700   2.194   5.208  0.6411  0.2083  0.5946
11340TIP3    H255512   5.826   2.277   5.208  0.7906  0.0263 -1.1063
11341TIP3   OH255513   4.482   6.190   6.618  0.9410 -0.6444 -0.7364
11341TIP3    H155514   4.545   6.142   6.670 -0.0427 -1.1899 -0.0160
11341TIP3    H255515   4.451   6.260   6.675 -1.1957 -2.0913  0.0179
11342TIP3   OH255516   1.719   0.887   3.578  0.1355 -0.3965 -0.5727
11342TIP3    H155517   1.688   0.970   3.616  3.1709  0.8332 -0.5335
11342TIP3    H255518   1.709   0.900   3.483  0.2129 -0.1586 -0.5500
11343TIP3   OH255519   6.136   1.541   3.482  0.1847 -0.2574  0.0803
11343TIP3    H155520   6.141   1.611   3.417  0.6040 -0.5557 -0.2116
11343TIP3    H255521   6.197   1.568   3.551 -0.0949 -0.0498  0.2494
11344TIP3   OH255522   2.662   4.486  15.432  0.1293  0.0324 -0.0751
11344TIP3    H155523   2.591   4.546  15.410 -1.0614 -1.0129  0.8419
11344TIP3    H255524   2.716   4.482  15.352 -1.9285 -0.6925 -1.5009
11345TIP3   OH255525   5.934   0.033   5.071 -0.2832 -0.6117 -0.6961
11345TIP3    H155526   5.992   0.004   5.141 -1.1520 -0.3772  0.1535
11345TIP3    H255527   5.848   0.038   5.113 -0.2978  2.7841 -0.8717
11346TIP3   OH255528   2.908   5.283   4.103 -0.2197  0.8789 -0.2120
11346TIP3    H155529   2.892   5.361   4.156  1.2729 -1.1398  3.6146
11346TIP3    H255530   2.992   5.300   4.060  0.0484  1.4639  0.5148
11347TIP3   OH255531   5.459   1.223   5.340  0.8442  0.5535 -0.3545
11347TIP3    H155532   5.437   1.138   5.378 -0.2626  1.2302  0.5978
11347TIP3    H255533   5.450   1.211   5.246  1.8485 -0.6838 -0.3117
11348TIP3   OH255534   3.980   0.243   0.053 -0.4886 -0.0017  0.2173
11348TIP3    H155535   3.896   0.201   0.035 -1.2321  1.1759  0.7848
11348TIP3    H255536   4.006   0.282  -0.030 -1.2515  0.8882  0.3869
11349TIP3   OH255537   4.743   6.085  15.772 -0.5425 -0.0973 -0.1529
11349TIP3    H155538   4.667   6.144  15.774 -0.2019  0.3527  1.3667
11349TIP3    H255539   4.818   6.143  15.785 -0.1467 -0.7671  0.6197
11350TIP3   OH255540   6.198   3.972   5.896  0.0726 -0.1464  0.1841
11350TIP3    H155541   6.213   4.066   5.907 -1.3202 -0.0667  1.6829
11350TIP3    H255542   6.281   3.939   5.861  0.5717  1.6316 -0.4218
11351TIP3   OH255543   0.813   6.522   5.560  0.6264 -0.2144  0.2614
11351TIP3    H155544   0.863   6.571   5.495 -0.1413  3.5175  2.1751
11351TIP3    H255545   0.723   6.525   5.528  0.4814  0.2355  0.6960
11352TIP3   OH255546   1.372   5.781   0.438  0.1268 -0.7375 -0.0179
11352TIP3    H155547   1.394   5.813   0.525 -0.8570  0.9300 -0.3223
11352TIP3    H255548   1.367   5.860   0.384  0.4565 -1.7056 -1.5285
11353TIP3   OH255549   6.079   4.707   3.660 -0.3402 -0.6097  0.8858
11353TIP3    H155550   6.096   4.741   3.748 -0.5890 -1.2937  1.2069
11353TIP3    H255551   6.166   4.691   3.623 -0.0613  2.4850 -0.1771
11354TIP3   OH255552   2.996   1.628  13.940  0.0422  0.4705 -0.0756
11354TIP3    H155553   3.005   1.657  13.849 -0.8221 -0.5784 -0.5099
11354TIP3    H255554   3.086   1.613  13.969  0.2545 -1.1222 -1.4087
11355TIP3   OH255555   0.377   0.687   5.283  0.5320 -0.4382  0.2718
11355TIP3    H155556   0.419   0.615   5.332  1.1528  2.1252  3.9386
11355TIP3    H255557   0.287   0.686   5.313  0.6218  0.4581  0.5835
11356TIP3   OH255558   3.495   5.248  16.582  0.1521 -0.1913  0.1475
11356TIP3    H155559   3.537   5.280  16.662  1.2349  0.3810 -0.6215
11356TIP3    H255560   3.439   5.319  16.553  0.2265 -0.1664  0.0660
11357TIP3   OH255561   5.717   3.530   4.959 -0.1606  0.1694 -0.0498
11357TIP3    H155562   5.746   3.587   4.888 -0.0975  0.5979  0.3217
11357TIP3    H255563   5.658   3.468   4.916  0.9885 -0.4823 -0.7417
11358TIP3   OH255564   4.194   0.534  14.383 -0.0744  0.6458  0.1325
11358TIP3    H155565   4.148   0.525  14.466 -0.3998  0.6487 -0.0433
11358TIP3    H255566   4.176   0.452  14.337  0.0717  0.6592  0.0500
11359TIP3   OH255567   3.472   5.035  11.654 -0.4183  0.7790  0.0125
11359TIP3    H155568   3.455   5.129  11.652  0.7658  0.9875 -1.0293
11359TIP3    H255569   3.393   4.996  11.617 -0.9422  1.3349  0.5012
11360TIP3   OH255570   4.012   4.494  14.167  0.1579  0.1150  0.3258
11360TIP3    H155571   3.963   4.414  14.188  1.7722 -0.3088  3.1004
11360TIP3    H255572   4.100   4.463  14.146  0.4272  1.1001 -0.0520
11361TIP3   OH255573   2.229   0.946  15.158 -0.5373  0.0592 -0.2723
11361TIP3    H155574   2.204   1.029  15.116  0.8675  0.0504 -1.2228
11361TIP3    H255575   2.315   0.926  15.120  0.4039 -0.4477  1.9480
11362TIP3   OH255576   6.447   1.624  15.135  0.2096  0.5852 -0.4059
11362TIP3    H155577   6.505   1.549  15.123  0.3558 -0.1352  3.3335
11362TIP3    H255578   6.506   1.696  15.159 -0.1401  1.0865 -1.0347
11363TIP3   OH255579   5.973   1.366   5.625  0.1068 -0.1385  0.0315
11363TIP3    H155580   6.012   1.447   5.659  2.3855 -1.0307 -0.2765
11363TIP3    H255581   6.002   1.363   5.533  0.0468 -1.2843  0.0406
11364TIP3   OH255582   5.928   5.094   3.995  0.0728 -0.2033 -0.4042
11364TIP3    H155583   6.014   5.071   4.032  0.5366 -0.2663 -1.4936
11364TIP3    H255584   5.932   5.189   3.984 -0.4251 -0.0582  0.5730
11365TIP3   OH255585   0.850   2.421  15.696  0.3271  0.0527 -0.4626
11365TIP3    H155586   0.821   2.459  15.779 -0.3380  1.6972 -1.3941
11365TIP3    H255587   0.769   2.390  15.655  0.7296 -1.3618 -0.2319
11366TIP3   OH255588   5.035   3.213   2.345  0.4473  0.2783  0.2238
11366TIP3    H155589   5.054   3.202   2.252  0.5422  0.2141  0.2510
11366TIP3    H255590   5.106   3.167   2.390 -0.7710 -1.6211  0.3161
11367TIP3   OH255591   5.103   2.057  14.671  0.4949 -0.1989  0.0599
11367TIP3    H155592   5.136   1.989  14.730  1.7326  0.3871  0.0664
11367TIP3    H255593   5.112   2.019  14.584 -0.5941 -0.7570  0.1692
11368TIP3   OH255594   2.763   6.212  14.128  0.4418  0.2672  0.1829
11368TIP3    H155595   2.724   6.258  14.202  1.0656  1.2964 -0.1137
11368TIP3    H255596   2.688   6.180  14.078 -0.0287  1.3805  0.1404
11369TIP3   OH255597   2.321   6.537  17.244  0.0312  0.8612  0.2585
11369TIP3    H155598   2.368   6.463  17.205  0.2504  0.5590  1.0678
11369TIP3    H255599   2.243   6.497  17.284  1.0880  0.7540  2.3184
11370TIP3   OH255600   0.537   1.359   3.046  0.1184 -0.1734 -0.1552
11370TIP3    H155601   0.530   1.407   2.963  0.2423  1.2540  0.6176
11370TIP3    H255602   0.447   1.334   3.067  0.3351 -2.9587 -1.9995
11371TIP3   OH255603   0.726   5.053  11.073 -0.1857  0.5324  0.2404
11371TIP3    H155604   0.646   5.105  11.068 -0.2999  0.5177  1.6304
11371TIP3    H255605   0.791   5.111  11.112 -0.2986 -0.3142  1.7610
11372TIP3   OH255606   4.206   2.050   2.540 -0.3666  0.1322  0.0172
11372TIP3    H155607   4.186   2.140   2.513  1.2812  0.8795  1.1560
11372TIP3    H255608   4.301   2.043   2.530 -0.2777 -0.9675  1.4326
11373TIP3   OH255609   3.131   6.105   1.131  0.3939 -0.0426  0.6813
11373TIP3    H155610   3.098   6.194   1.141  0.1036 -0.0428 -0.2355
11373TIP3    H255611   3.146   6.095   1.037 -0.1650 -1.1628  0.6951
11374TIP3   OH255612   6.763   6.074  10.780 -0.2673 -0.3796 -0.4745
11374TIP3    H155613   6.834   6.132  10.755 -0.9700  0.4585 -0.5625
11374TIP3    H255614   6.710   6.125  10.841 -1.5679 -0.4736 -1.4788
11375TIP3   OH255615   4.340   3.598   4.628 -0.0195 -0.0677  0.2912
11375TIP3    H155616   4.425   3.642   4.636  0.1725 -0.4537  0.4071
11375TIP3    H255617   4.343   3.554   4.544  0.6166 -1.5700  1.0620
11376TIP3   OH255618   5.038   0.122   4.014 -0.2989  0.6227  0.4964
11376TIP3    H155619   5.075   0.183   4.078 -0.4497  0.3761  0.8217
11376TIP3    H255620   5.055   0.036   4.051  1.2980  0.3787 -0.6962
11377TIP3   OH255621   3.306   5.206  13.708 -0.6336  0.1761 -0.6754
11377TIP3    H155622   3.312   5.239  13.798 -1.5670  1.0414 -0.9090
11377TIP3    H255623   3.215   5.176  13.700  0.2024 -2.5876 -0.4529
11378TIP3   OH255624   5.453   5.724   2.147  0.2503  0.8212  0.2205
11378TIP3    H155625   5.523   5.773   2.190  1.3273 -1.2402  0.9478
11378TIP3    H255626   5.476   5.632   2.160 -3.1775 -0.0268  1.5817
11379TIP3   OH255627   3.881   5.054   1.972 -0.6448  0.2470  0.0666
11379TIP3    H155628   3.795   5.074   2.010 -1.4133  1.7721 -2.2255
11379TIP3    H255629   3.865   4.976   1.918 -0.8369  0.9721 -0.9633
11380TIP3   OH255630   0.850   5.025   2.177  0.3354 -0.0312  0.4255
11380TIP3    H155631   0.791   4.970   2.228 -0.5771 -1.1070 -1.6593
11380TIP3    H255632   0.798   5.052   2.101  2.2427 -0.2848 -1.0487
11381TIP3   OH255633   5.730   5.759   0.462 -0.2749  0.0584 -0.6710
11381TIP3    H155634   5.746   5.769   0.368  1.1653 -1.4435 -0.6303
11381TIP3    H255635   5.796   5.696   0.491 -1.3845 -0.3341  1.1535
11382TIP3   OH255636   4.388   3.621  16.854  0.3102 -0.3048  0.0140
11382TIP3    H155637   4.363   3.528  16.852  0.8756 -0.4882  0.8566
11382TIP3    H255638   4.355   3.652  16.938  1.4856 -0.1498  0.4336
11383TIP3   OH255639   4.050   3.249  15.217  0.1480  0.4119  0.1762
11383TIP3    H155640   4.092   3.240  15.132  0.2963 -0.5421  0.3407
11383TIP3    H255641   3.983   3.181  15.219 -0.1259  0.6830  0.6715
11384TIP3   OH255642   6.466   4.950   1.143 -0.1347  0.4794  0.4504
11384TIP3    H155643   6.466   4.913   1.055 -3.2817  1.4197 -0.0779
11384TIP3    H255644   6.505   4.882   1.198  2.2812  0.0210 -1.6477
11385TIP3   OH255645   3.788   4.868  12.107 -0.5471  0.4343 -0.1335
11385TIP3    H155646   3.758   4.863  12.016 -0.9433  0.5006 -0.0053
11385TIP3    H255647   3.833   4.952  12.113 -0.0885  0.2104 -0.3985
11386TIP3   OH255648   0.251   0.638   1.417 -0.5487 -0.0390  0.1895
11386TIP3    H155649   0.293   0.577   1.477 -1.0296  0.0593  0.6338
11386TIP3    H255650   0.158   0.614   1.418 -0.6861  0.4670  0.0921
11387TIP3   OH255651   4.720   0.893   0.409 -0.2849 -0.1476  0.0797
11387TIP3    H155652   4.728   0.872   0.316 -1.4959 -1.3479  0.2159
11387TIP3    H255653   4.794   0.846   0.450 -1.2266 -1.7909  0.0004
11388TIP3   OH255654   2.389   3.460  14.089  0.1117 -0.3876  0.2185
11388TIP3    H155655   2.330   3.510  14.145 -1.7093 -0.2920 -1.6813
11388TIP3    H255656   2.360   3.369  14.098 -1.4716 -0.1600 -1.9272
11389TIP3   OH255657   4.000   1.488   1.776 -0.2216  0.0296  0.0071
11389TIP3    H155658   3.916   1.533   1.767 -0.7783 -0.5093  2.1506
11389TIP3    H255659   3.978   1.395   1.772  0.1072 -0.1389  1.5833
11390TIP3   OH255660   6.439   6.475   2.340  0.5176 -0.6593 -0.5357
11390TIP3    H155661   6.533   6.470   2.326  0.4435  1.6482 -2.3371
11390TIP3    H255662   6.406   6.527   2.267 -1.8256  0.7522  1.3710
11391TIP3   OH255663   2.487   4.601   4.130  0.0661  0.1319 -0.0487
11391TIP3    H155664   2.543   4.613   4.053 -0.1958 -1.7093 -0.5630
11391TIP3    H255665   2.531   4.534   4.182  0.2217  1.3152  1.4500
11392TIP3   OH255666   2.171   1.571   4.709  0.2585 -0.0137 -0.5414
11392TIP3    H155667   2.134   1.658   4.695 -3.8818 -1.3309  0.8063
11392TIP3    H255668   2.245   1.585   4.767 -1.4644  2.5329  1.2211
11393TIP3   OH255669   2.926   3.239  14.152  0.0287  0.3248  0.0225
11393TIP3    H155670   2.882   3.323  14.143 -0.8921 -0.0941  0.4817
11393TIP3    H255671   2.877   3.180  14.095  0.1586 -0.0890  0.3341
11394TIP3   OH255672   2.783   0.643  14.012 -0.1442 -0.4730 -0.5595
11394TIP3    H155673   2.722   0.571  14.029 -1.3544  0.9846  1.7312
11394TIP3    H255674   2.727   0.715  13.981  0.7552  0.1565 -0.7651
11395TIP3   OH255675   3.612   1.135  13.182  0.1786 -0.3852 -0.1255
11395TIP3    H155676   3.682   1.189  13.146  0.8710 -0.9381  0.3596
11395TIP3    H255677   3.643   1.045  13.168 -0.4730 -0.6339  0.0238
11396TIP3   OH255678   2.050   6.498  16.002  0.3495  0.2273  0.0514
11396TIP3    H155679   2.078   6.442  15.930  1.1066 -0.5879  0.9565
11396TIP3    H255680   2.056   6.443  16.080  1.2969  1.6120  1.0091
11397TIP3   OH255681   5.518   3.548  11.989  0.1168  0.1376 -0.1754
11397TIP3    H155682   5.493   3.582  12.075 -2.0205 -1.2584 -0.1590
11397TIP3    H255683   5.452   3.584  11.930 -0.7248 -1.8966 -0.5489
11398TIP3   OH255684   4.900   2.577   1.393 -0.0225 -0.3381  0.2025
11398TIP3    H155685   4.920   2.513   1.324  0.5250 -0.4304  0.4359
11398TIP3    H255686   4.805   2.574   1.402 -0.1835  0.1796 -1.0330
11399TIP3   OH255687   2.699   3.426   0.471  0.3234  0.4481 -0.0678
11399TIP3    H155688   2.678   3.361   0.538  0.2820  1.7485  1.2240
11399TIP3    H255689   2.794   3.418   0.458  0.1642 -0.5736 -0.7021
11400TIP3   OH255690   6.710   3.757  13.303  0.3531 -0.4260  0.3937
11400TIP3    H155691   6.792   3.805  13.312  0.3901 -0.4552  0.1970
11400TIP3    H255692   6.642   3.824  13.308  0.4417 -0.2223 -0.9780
11401TIP3   OH255693   2.653   5.636   4.227 -0.1682  0.2408 -0.4453
11401TIP3    H155694   2.641   5.601   4.315 -0.4079 -1.9065 -1.2565
11401TIP3    H255695   2.736   5.684   4.232  1.7557 -2.8260  0.1983
11402TIP3   OH255696   6.206   1.417   0.138 -1.0043  0.3785 -0.0788
11402TIP3    H155697   6.165   1.330   0.134  0.3271 -0.2957  0.2091
11402TIP3    H255698   6.242   1.430   0.050  3.5032 -1.8462  1.1299
11403TIP3   OH255699   6.447   3.767   0.175  0.3001 -0.4129 -0.3131
11403TIP3    H155700   6.430   3.861   0.163 -1.3027 -0.4875  1.0005
11403TIP3    H255701   6.389   3.725   0.111  0.9933 -0.5306 -0.8771
11404TIP3   OH255702   1.102   6.036  11.887  0.0112  0.5023  0.2142
11404TIP3    H155703   1.102   6.073  11.975 -0.8351  3.7948 -1.0132
11404TIP3    H255704   1.162   6.093  11.837  0.5315 -1.3044 -1.3557
11405TIP3   OH255705   4.278   2.915   5.062 -0.0720  0.9085 -0.4711
11405TIP3    H155706   4.186   2.918   5.088  0.1502  0.2006  0.4437
11405TIP3    H255707   4.283   2.846   4.996  0.0156  0.0011  0.4561
11406TIP3   OH255708   4.307   4.788  14.664 -0.1231  0.2475 -0.5207
11406TIP3    H155709   4.299   4.841  14.743 -1.2010 -1.5538  0.6560
11406TIP3    H255710   4.347   4.706  14.694  1.6952  0.3993 -2.3115
11407TIP3   OH255711   0.137   0.230  14.473  0.1992  0.6613  0.1468
11407TIP3    H155712   0.099   0.295  14.413 -0.8158  0.5959  0.7072
11407TIP3    H255713   0.191   0.282  14.532 -1.0092  1.0833  0.9130
11408TIP3   OH255714   1.257   2.217   3.611 -0.1373  0.3874  0.4294
11408TIP3    H155715   1.320   2.205   3.539 -1.0118  1.9823 -0.6725
11408TIP3    H255716   1.297   2.284   3.666 -0.2775  0.4503  0.4539
11409TIP3   OH255717   0.682   3.709   6.031  1.2000 -0.0904  0.4640
11409TIP3    H155718   0.594   3.692   5.999  1.6191 -0.5007 -0.4880
11409TIP3    H255719   0.670   3.722   6.125 -0.0346  1.0269  0.1925
11410TIP3   OH255720   2.193   6.176  13.157 -0.6739  0.3544 -0.5984
11410TIP3    H155721   2.218   6.160  13.248 -2.8978 -3.4132 -0.4620
11410TIP3    H255722   2.111   6.226  13.163  0.1407  1.7595 -0.6761
11411TIP3   OH255723   3.473   0.863   5.459  0.6059 -0.3159  0.4335
11411TIP3    H155724   3.526   0.873   5.539  3.2322  0.2842 -1.2723
11411TIP3    H255725   3.537   0.864   5.388 -1.5554 -1.8030 -1.6695
11412TIP3   OH255726   2.821   1.459   2.652 -0.0244  0.3504  0.3584
11412TIP3    H155727   2.912   1.438   2.632 -0.2898 -0.8143  0.3251
11412TIP3    H255728   2.794   1.521   2.584 -0.3301 -2.0208 -1.8045
11413TIP3   OH255729   3.892   3.835   2.175 -0.0721 -0.1081  0.7833
11413TIP3    H155730   3.930   3.876   2.097  1.1385 -2.1414  0.2058
11413TIP3    H255731   3.915   3.893   2.247  1.2335  0.4199 -0.0212
11414TIP3   OH255732   5.764   2.877  16.004 -0.1423  0.4355  0.1652
11414TIP3    H155733   5.686   2.894  15.951  0.2999  1.8690 -0.0525
11414TIP3    H255734   5.774   2.782  16.002 -2.3416  0.1197  0.8546
11415TIP3   OH255735   1.160   3.744   1.074  0.0894 -0.4193 -0.2849
11415TIP3    H155736   1.195   3.833   1.072  1.3680 -0.8950  0.3636
11415TIP3    H255737   1.110   3.737   0.993  0.4440  0.7006 -0.6217
11416TIP3   OH255738   2.216   5.005  10.741 -0.6694 -0.0912 -0.0691
11416TIP3    H155739   2.144   4.957  10.782 -0.1066 -0.6911  0.2286
11416TIP3    H255740   2.237   4.955  10.662  1.6566 -1.9248  1.5477
11417TIP3   OH255741   3.884   6.262   6.803  0.1912  0.0216 -0.3453
11417TIP3    H155742   3.896   6.179   6.850 -1.6021  0.2289  0.5788
11417TIP3    H255743   3.965   6.273   6.753  1.1740 -1.4386  0.8158
11418TIP3   OH255744   1.299   5.805   3.168  0.0918  0.0339 -0.3023
11418TIP3    H155745   1.385   5.827   3.205  0.2651 -0.3972 -0.4339
11418TIP3    H255746   1.320   5.750   3.092 -0.2949  0.0857 -0.4478
11419TIP3   OH255747   5.527   5.936   5.206 -0.0173  0.0693  0.1864
11419TIP3    H155748   5.618   5.908   5.210  0.0508  0.3856  1.0502
11419TIP3    H255749   5.497   5.934   5.297 -1.7608 -2.9179 -0.3030
11420TIP3   OH255750   3.066   4.463   6.080 -0.3208 -0.4028  0.6342
11420TIP3    H155751   3.152   4.460   6.038  0.1589  1.7067  1.3183
11420TIP3    H255752   3.022   4.383   6.053  1.3602 -0.8723 -0.8326
11421TIP3   OH255753   3.588   4.296  11.090 -0.1061  0.0563  0.2947
11421TIP3    H155754   3.546   4.244  11.022 -0.0826 -1.1228  1.1541
11421TIP3    H255755   3.632   4.367  11.043  0.9014 -1.3863 -1.0300
11422TIP3   OH255756   5.453   3.150   5.921  0.5050  0.4784  0.2589
11422TIP3    H155757   5.457   3.215   5.990 -0.3287 -0.0771  0.8519
11422TIP3    H255758   5.435   3.067   5.966  3.1599 -0.5020 -0.3008
11423TIP3   OH255759   6.389   6.118  15.862  0.4639  0.2878 -0.0690
11423TIP3    H155760   6.305   6.086  15.897 -1.1073  3.3268 -0.6540
11423TIP3    H255761   6.439   6.141  15.940  0.7429 -1.4093  0.2882
11424TIP3   OH255762   6.219   5.215   6.744  0.5820 -0.2304  0.2356
11424TIP3    H155763   6.294   5.160   6.771  1.4801  1.1275  0.6025
11424TIP3    H255764   6.220   5.288   6.805 -1.5805 -0.5709  0.7598
11425TIP3   OH255765   4.946   0.822   4.173 -0.1298  0.6420 -0.3930
11425TIP3    H155766   4.941   0.868   4.089  0.5206 -0.2981 -0.9717
11425TIP3    H255767   4.928   0.731   4.151 -2.6864  0.7406  0.9117
11426TIP3   OH255768   2.326   6.698  10.712 -0.1008 -0.5793  0.1316
11426TIP3    H155769   2.403   6.713  10.657 -0.1573  0.4269  0.3017
11426TIP3    H255770   2.271   6.775  10.697 -1.2857 -1.4815 -0.3077
11427TIP3   OH255771   0.503   1.388  13.587 -0.0973  0.1937  0.0404
11427TIP3    H155772   0.524   1.343  13.669 -1.0189 -0.5618 -0.1205
11427TIP3    H255773   0.423   1.438  13.607 -1.5515 -1.6390 -0.9265
11428TIP3   OH255774   6.565   5.782   4.228  0.0392  0.3120  0.2854
11428TIP3    H155775   6.564   5.798   4.322 -0.7849 -0.5058  0.4284
11428TIP3    H255776   6.525   5.695   4.218 -1.0143  0.9066 -0.9050
11429TIP3   OH255777   0.068   2.994  11.711 -0.3213 -0.3703 -0.6948
11429TIP3    H155778   0.004   2.941  11.757 -1.3647  1.9143  0.6502
11429TIP3    H255779   0.151   2.948  11.723 -1.3310 -2.2717 -0.6529
11430TIP3   OH255780   4.619   3.412  13.212 -0.0933 -0.1683 -0.2083
11430TIP3    H155781   4.637   3.406  13.118 -1.1033 -1.2269 -0.3548
11430TIP3    H255782   4.641   3.326  13.246  1.3705  0.5514  0.7576
11431TIP3   OH255783   5.492   5.255  12.293 -0.2645  0.6153 -0.0662
11431TIP3    H155784   5.558   5.204  12.341 -1.1393 -1.3411 -0.8119
11431TIP3    H255785   5.506   5.230  12.201 -0.6328  1.8910 -0.4871
11432TIP3   OH255786   1.199   4.835  12.912 -0.1026  0.2148  0.1033
11432TIP3    H155787   1.264   4.835  12.982  0.7758  2.1024 -0.6271
11432TIP3    H255788   1.117   4.861  12.955 -0.4579 -2.2150  1.0356
11433TIP3   OH255789   4.532   0.337  11.998 -0.6453 -0.6757  0.3387
11433TIP3    H155790   4.473   0.262  11.998  1.4294 -2.3992  0.6208
11433TIP3    H255791   4.617   0.301  12.021  0.6739  1.6058 -0.5969
11434TIP3   OH255792   2.424   5.309  16.092  0.4214  0.4926 -0.0178
11434TIP3    H155793   2.399   5.234  16.146  0.2895 -0.2983 -1.1332
11434TIP3    H255794   2.518   5.319  16.107  0.3247  0.5096  0.6156
11435TIP3   OH255795   2.374   2.594   0.469 -0.1612 -0.3930  0.1174
11435TIP3    H155796   2.338   2.673   0.429  1.0491  0.7442  1.1559
11435TIP3    H255797   2.367   2.609   0.563  2.4561 -0.2989  0.3788
11436TIP3   OH255798   1.293   2.088   1.183 -0.2346 -0.2013 -0.2972
11436TIP3    H155799   1.344   2.012   1.209 -0.8696 -0.4551  0.2434
11436TIP3    H255800   1.202   2.058   1.187 -0.4835  0.5439 -0.2089
11437TIP3   OH255801   0.576   4.081  16.874 -0.1190 -0.2215 -0.1620
11437TIP3    H155802   0.594   4.140  16.801  1.2938 -0.5345 -0.1087
11437TIP3    H255803   0.569   4.138  16.951  2.4719 -0.1406  0.1018
11438TIP3   OH255804   6.703   4.410  13.799 -0.5598  0.2066 -0.1569
11438TIP3    H155805   6.671   4.434  13.712 -1.0738 -0.6767 -0.2237
11438TIP3    H255806   6.649   4.461  13.860 -1.7254 -0.8402 -0.2886
11439TIP3   OH255807   6.443   6.048  16.555 -0.1733 -0.5060  0.1435
11439TIP3    H155808   6.353   6.041  16.587 -0.9274 -1.3459 -1.9949
11439TIP3    H255809   6.488   5.972  16.593 -0.4733 -0.3617  0.8089
11440TIP3   OH255810   2.611   0.886   2.976 -0.5943 -0.0570 -0.5118
11440TIP3    H155811   2.648   0.869   2.889 -1.5782  0.6395 -1.0894
11440TIP3    H255812   2.533   0.830   2.980  0.6013 -1.7446  0.8094
11441TIP3   OH255813   2.767   6.266   3.722 -0.0049  0.1199  0.0892
11441TIP3    H155814   2.714   6.187   3.731 -0.5204  0.3548 -0.7973
11441TIP3    H255815   2.757   6.291   3.631  1.7237  0.1143 -0.1314
11442TIP3   OH255816   3.769   3.289   3.038 -0.1737 -0.3731  0.4323
11442TIP3    H155817   3.765   3.225   3.109 -0.3159 -0.3530  0.4425
11442TIP3    H255818   3.849   3.338   3.055  0.4059 -1.1275 -0.0685
11443TIP3   OH255819   1.620   0.133  13.745 -0.4806  0.0860  0.2135
11443TIP3    H155820   1.675   0.189  13.690 -0.8520 -0.6040 -0.8895
11443TIP3    H255821   1.674   0.115  13.822  0.9907 -0.7968 -0.9664
11444TIP3   OH255822   3.583   2.336  10.928  0.2638 -0.0518  0.1527
11444TIP3    H155823   3.498   2.291  10.927 -0.1811  0.7799 -0.7462
11444TIP3    H255824   3.641   2.277  10.879  0.3282 -0.8156  1.1147
11445TIP3   OH255825   6.096   4.126  16.903 -0.2637  0.0152 -0.4237
11445TIP3    H155826   6.144   4.066  16.846  1.8203  0.4358  0.7629
11445TIP3    H255827   6.018   4.078  16.929 -0.2639 -0.9207 -2.0317
11446TIP3   OH255828   4.351   5.976   4.589  0.4729 -0.2529 -0.7404
11446TIP3    H155829   4.329   5.885   4.612 -0.4654  0.2198  0.3097
11446TIP3    H255830   4.267   6.016   4.568  0.4005  1.1561  1.7615
11447TIP3   OH255831   1.818   6.598  16.571 -0.4108  0.0313  0.0509
11447TIP3    H155832   1.873   6.672  16.593 -1.0681  0.3598  0.6223
11447TIP3    H255833   1.827   6.538  16.645  0.6587 -0.7969 -0.7126
11448TIP3   OH255834   2.602   6.328   5.444 -0.5234  0.1759  0.0389
11448TIP3    H155835   2.582   6.352   5.535 -1.8798 -0.6869 -0.0068
11448TIP3    H255836   2.529   6.361   5.393 -0.5303 -0.6689 -0.5304
11449TIP3   OH255837   3.682   5.230   3.084 -0.7849  0.0015  0.4476
11449TIP3    H155838   3.710   5.263   2.998  1.1099 -0.3830  0.8765
11449TIP3    H255839   3.654   5.308   3.132  2.3022  0.9351  0.9582
11450TIP3   OH255840   2.973   5.632   3.104 -0.0319 -0.1494  0.4150
11450TIP3    H155841   2.973   5.697   3.034 -0.7333 -0.7752 -0.2011
11450TIP3    H255842   2.938   5.677   3.180 -2.7128 -0.3370 -0.5903
11451TIP3   OH255843   2.327   4.361  10.934  0.3430 -0.1075 -0.1671
11451TIP3    H155844   2.406   4.362  10.988 -0.4590 -2.1294  1.1681
11451TIP3    H255845   2.277   4.286  10.966 -0.6849 -0.7762 -3.0473
11452TIP3   OH255846   3.237   5.989   2.656  0.1696 -0.1182  0.1348
11452TIP3    H155847   3.223   5.912   2.711  2.6154 -0.7376 -0.0165
11452TIP3    H255848   3.246   6.061   2.718 -1.6929  0.0425  0.2913
11453TIP3   OH255849   4.562   3.199   1.317 -0.0156  0.0237  0.0887
11453TIP3    H155850   4.632   3.260   1.340  1.9389 -1.2153 -2.1311
11453TIP3    H255851   4.525   3.234   1.236 -1.8850  0.5079  1.0737
11454TIP3   OH255852   4.173   4.789   4.651  0.0321 -0.1500 -0.6074
11454TIP3    H155853   4.142   4.814   4.564 -0.6497 -1.1813 -0.6808
11454TIP3    H255854   4.126   4.708   4.671  1.3778 -0.8140  0.0381
11455TIP3   OH255855   3.934   2.905   7.217 -0.6987 -0.0765 -0.3345
11455TIP3    H155856   3.906   2.915   7.125  0.2935 -0.6560 -0.7155
11455TIP3    H255857   3.910   2.815   7.239 -1.6491  0.3054  0.2450
11456TIP3   OH255858   6.353   5.717  10.767  0.0273 -0.2081  0.6155
11456TIP3    H155859   6.381   5.789  10.710  3.2053 -1.8303 -0.0801
11456TIP3    H255860   6.332   5.646  10.706  0.2397 -0.9288  1.3714
11457TIP3   OH255861   5.641   6.468   2.844 -0.1868 -0.0720 -0.1661
11457TIP3    H155862   5.686   6.449   2.761 -0.5546 -1.0797 -0.1450
11457TIP3    H255863   5.577   6.536   2.822 -0.2278 -0.2798 -0.6961
11458TIP3   OH255864   1.724   0.349  13.243 -0.4590 -0.2111  0.1051
11458TIP3    H155865   1.807   0.305  13.227  0.5882  1.6404  0.2059
11458TIP3    H255866   1.678   0.343  13.159  0.5364  0.2426 -0.4976
11459TIP3   OH255867   1.388   4.847  13.723 -0.3210  0.1195  0.1864
11459TIP3    H155868   1.443   4.917  13.759 -1.7393  0.0612  2.6641
11459TIP3    H255869   1.418   4.838  13.633  1.3764  2.4330  0.4149
11460TIP3   OH255870   5.270   1.193  17.001 -0.3257  0.3248 -0.7141
11460TIP3    H155871   5.336   1.234  16.946  0.2708  0.1023 -0.1723
11460TIP3    H255872   5.286   1.228  17.089 -0.3747 -0.3847 -0.4154
11461TIP3   OH255873   3.658   2.108   3.360 -0.2407  0.2132  0.3177
11461TIP3    H155874   3.698   2.024   3.341 -0.5616 -0.0301  0.7088
11461TIP3    H255875   3.730   2.171   3.351  1.0524 -0.5026  3.7732
11462TIP3   OH255876   6.173   6.643   0.020  0.0521 -0.4827 -0.3114
11462TIP3    H155877   6.119   6.721   0.011  3.5368  2.4765  1.5975
11462TIP3    H255878   6.141   6.601   0.100  0.0329  0.7887  0.3740
11463TIP3   OH255879   6.119   4.685  16.653  0.6896  0.6699  0.4189
11463TIP3    H155880   6.199   4.697  16.602 -0.3330 -0.6114 -1.6261
11463TIP3    H255881   6.082   4.602  16.621 -0.7289  0.4960  2.3212
11464TIP3   OH255882   6.442   1.371  11.702 -0.0872 -0.6134  0.2836
11464TIP3    H155883   6.430   1.424  11.781  1.7724 -1.1266  0.9525
11464TIP3    H255884   6.393   1.291  11.720 -0.0526 -0.5407  0.7217
11465TIP3   OH255885   5.916   0.328   3.887 -0.1373 -0.5024  0.4654
11465TIP3    H155886   5.951   0.244   3.915 -1.7963 -0.4133  3.2291
11465TIP3    H255887   5.879   0.312   3.801  0.2109 -2.4291  0.6329
11466TIP3   OH255888   0.216   3.212  15.401 -0.6566 -0.2595  0.5042
11466TIP3    H155889   0.221   3.233  15.494 -2.0036  0.3198  0.4701
11466TIP3    H255890   0.193   3.295  15.359  3.8988  0.6142 -0.9100
11467TIP3   OH255891   6.403   0.493  12.793  0.3418 -0.4819 -0.3510
11467TIP3    H155892   6.390   0.553  12.720 -1.0570 -0.3360 -0.0159
11467TIP3    H255893   6.323   0.440  12.795  0.1068 -0.1148  1.3949
11468TIP3   OH255894   5.440   5.646  16.863  0.1219 -0.0110 -0.3134
11468TIP3    H155895   5.513   5.704  16.840  0.5822 -0.4922 -0.0819
11468TIP3    H255896   5.455   5.567  16.812 -0.8284  0.2802 -1.0814
11469TIP3   OH255897   6.169   1.638  15.143  0.0134 -0.6234  0.0919
11469TIP3    H155898   6.142   1.576  15.211 -0.1311  0.4764  1.0896
11469TIP3    H255899   6.264   1.633  15.143  0.1746  0.9504  2.0232
11470TIP3   OH255900   2.948   3.808  12.025 -0.8037 -0.1201  0.3583
11470TIP3    H155901   2.939   3.739  11.958 -1.3116 -1.4388  1.7390
11470TIP3    H255902   2.859   3.843  12.035 -0.6152  0.4867 -0.0745
11471TIP3   OH255903   1.964   5.303   5.948 -1.0989  0.0613  0.0341
11471TIP3    H155904   1.873   5.325   5.928 -1.2165 -2.0105 -2.1553
11471TIP3    H255905   1.958   5.229   6.009 -0.8118  1.0926  1.3590
11472TIP3   OH255906   1.502   0.586  14.746  0.0817 -0.4527  0.3583
11472TIP3    H155907   1.423   0.588  14.693  0.8696  2.0822 -0.9025
11472TIP3    H255908   1.559   0.522  14.703 -1.8033 -3.7532  2.3509
11473TIP3   OH255909   0.894   2.795  16.335 -0.0127 -0.2975 -0.3107
11473TIP3    H155910   0.862   2.813  16.247  0.7104  4.2902  0.1589
11473TIP3    H255911   0.907   2.881  16.375  1.1397 -2.1178  3.8051
11474TIP3   OH255912   0.627   6.652  14.257  0.4152 -0.1349  0.3453
11474TIP3    H155913   0.593   6.709  14.326  1.1264 -0.5047  1.0170
11474TIP3    H255914   0.656   6.573  14.303  1.5649 -0.0962 -0.2718
11475TIP3   OH255915   1.754   2.985  14.368  0.5889 -0.2141 -0.2008
11475TIP3    H155916   1.660   2.982  14.387  1.0458  1.9604  3.2541
11475TIP3    H255917   1.762   3.049  14.297 -0.5371 -0.8285 -0.9175
11476TIP3   OH255918   2.637   6.641  17.377 -0.1158  0.4431 -0.0505
11476TIP3    H155919   2.651   6.653  17.283  1.6010 -0.7684  0.0166
11476TIP3    H255920   2.574   6.710  17.401 -2.1899 -0.4813 -2.4335
11477TIP3   OH255921   0.547   4.396   2.117 -0.6204  0.5935  0.1979
11477TIP3    H155922   0.552   4.392   2.021 -0.2406 -1.3457  0.2574
11477TIP3    H255923   0.457   4.371   2.137 -0.2285 -0.8053  0.3652
11478TIP3   OH255924   1.627   3.459  17.096  0.0241  0.5467 -0.1610
11478TIP3    H155925   1.638   3.421  17.009  1.4577 -0.0817  0.2694
11478TIP3    H255926   1.698   3.523  17.104  0.5683 -0.1471  0.9139
11479TIP3   OH255927   6.141   0.410   4.594 -0.2188 -0.5539  0.2634
11479TIP3    H155928   6.189   0.433   4.674 -0.4189  2.0300 -0.2581
11479TIP3    H255929   6.120   0.495   4.554  1.4210 -1.7112 -3.4919
11480TIP3   OH255930   4.356   5.109   3.889 -0.3288 -0.0598  0.9714
11480TIP3    H155931   4.438   5.114   3.840 -1.0609 -0.0952 -0.3015
11480TIP3    H255932   4.359   5.024   3.933  0.1475 -0.2213  0.6279
11481TIP3   OH255933   2.191   1.472   5.148 -0.3088 -0.4302  0.2867
11481TIP3    H155934   2.152   1.486   5.234  1.1536  0.7945  0.7777
11481TIP3    H255935   2.283   1.453   5.165 -0.1502 -0.9569 -0.9801
11482TIP3   OH255936   4.310   4.336  13.255 -0.2330  0.3634 -0.1357
11482TIP3    H155937   4.317   4.429  13.234  2.2137  0.0194 -1.0830
11482TIP3    H255938   4.357   4.326  13.338  0.0958 -0.1359 -0.3762
11483TIP3   OH255939   2.434   3.715  15.837 -0.1405  0.1306  0.3371
11483TIP3    H155940   2.413   3.630  15.798 -0.7938  0.4716 -0.0669
11483TIP3    H255941   2.448   3.696  15.930 -1.9809 -0.1649  0.5923
11484TIP3   OH255942   4.345   1.665  15.678 -0.5079 -0.0293 -0.3018
11484TIP3    H155943   4.388   1.707  15.604 -0.1766  0.9150  0.4040
11484TIP3    H255944   4.279   1.728  15.706 -0.0084  0.0445  0.7746
11485TIP3   OH255945   3.089   5.182  15.806  0.3916  0.1054 -0.2423
11485TIP3    H155946   3.009   5.169  15.858 -0.0165 -3.8425 -1.4817
11485TIP3    H255947   3.067   5.148  15.719  3.0600  0.0758 -1.0033
11486TIP3   OH255948   5.430   1.478   4.034 -0.1398  0.4133 -0.0737
11486TIP3    H155949   5.511   1.434   4.059 -1.1220 -2.1238 -0.9707
11486TIP3    H255950   5.369   1.457   4.106 -0.4397  0.9076 -0.1821
11487TIP3   OH255951   5.526   5.472  12.064  0.6199  0.2092 -0.5635
11487TIP3    H155952   5.552   5.380  12.071 -0.9666 -0.3061 -0.9829
11487TIP3    H255953   5.602   5.516  12.025  1.7214 -0.7422  0.4274
11488TIP3   OH255954   6.268   3.412   2.937 -0.5314  0.1516  0.2231
11488TIP3    H155955   6.174   3.423   2.953 -0.2360  2.4766  0.7629
11488TIP3    H255956   6.281   3.446   2.849  0.0215  1.6015  0.8275
11489TIP3   OH255957   0.276   5.452  12.721  0.7237 -0.6318  0.0640
11489TIP3    H155958   0.184   5.470  12.742  0.8173  0.3244 -0.2810
11489TIP3    H255959   0.319   5.443  12.806  0.3706 -0.7479  0.2311
11490TIP3   OH255960   3.099   3.367   5.296  0.8084  0.6711 -0.1976
11490TIP3    H155961   3.183   3.412   5.305  0.8346  0.6409 -0.2867
11490TIP3    H255962   3.067   3.357   5.385  0.3272  1.7594 -0.2328
11491TIP3   OH255963   1.182   3.665   6.716 -0.1199  0.4103 -0.2670
11491TIP3    H155964   1.166   3.589   6.660 -0.2993 -0.4456  0.9041
11491TIP3    H255965   1.238   3.632   6.786 -1.3229  0.9975  1.0125
11492TIP3   OH255966   0.455   6.190  12.054 -0.5932  0.4113 -0.6206
11492TIP3    H155967   0.404   6.268  12.032 -0.4600  0.8729  0.5762
11492TIP3    H255968   0.545   6.222  12.062 -0.6796  0.3773  0.8664
11493TIP3   OH255969   1.274   4.380   6.096  0.1838  0.1704  0.4638
11493TIP3    H155970   1.188   4.413   6.072  1.5253  1.9060 -2.5241
11493TIP3    H255971   1.274   4.289   6.067 -0.2684  0.5045 -0.6129
11494TIP3   OH255972   5.415   3.089   6.764  0.4754 -0.2678 -0.8642
11494TIP3    H155973   5.463   3.144   6.702  1.1485  0.3252  0.1416
11494TIP3    H255974   5.443   3.000   6.744  1.2863 -0.0111 -0.9115
11495TIP3   OH255975   2.009   6.266   1.832  0.3575 -0.3465 -0.1899
11495TIP3    H155976   2.060   6.191   1.800 -0.6293 -0.7711 -0.8558
11495TIP3    H255977   2.071   6.338   1.836  1.5478 -1.3902  1.3040
11496TIP3   OH255978   4.052   1.226  15.680 -0.4052  0.3979  0.0967
11496TIP3    H155979   3.995   1.176  15.739 -0.1523  0.1040  0.0909
11496TIP3    H255980   4.116   1.267  15.737 -0.0492 -0.0340  0.0098
11497TIP3   OH255981   6.632   5.964   2.289  0.0816 -0.3784  0.4722
11497TIP3    H155982   6.703   5.947   2.351  0.9422 -0.7056 -0.5938
11497TIP3    H255983   6.611   6.057   2.302 -0.8200 -0.7849  2.3257
11498TIP3   OH255984   2.382   1.181  10.546  0.3135 -0.0070  0.8012
11498TIP3    H155985   2.343   1.254  10.498  0.3826 -1.0527 -0.9318
11498TIP3    H255986   2.444   1.222  10.606 -0.2800  1.3934  0.4953
11499TIP3   OH255987   4.576   4.586   1.002 -0.3126 -0.4057  0.5606
11499TIP3    H155988   4.603   4.628   0.920 -2.2581  0.1470  0.1374
11499TIP3    H255989   4.658   4.569   1.049  0.8265 -0.3059 -1.2768
11500TIP3   OH255990   3.548   3.118   2.031  0.0769 -0.1320  0.1543
11500TIP3    H155991   3.505   3.190   2.076  1.6951  0.7096  0.4582
11500TIP3    H255992   3.606   3.080   2.097 -0.1617 -1.1847 -0.2327
11501TIP3   OH255993   1.766   1.077  14.012  0.0724  0.0226 -0.5564
11501TIP3    H155994   1.690   1.125  13.982 -0.7695 -0.1964  1.0872
11501TIP3    H255995   1.789   1.018  13.940 -0.0768  1.4853 -1.8256
11502TIP3   OH255996   2.706   5.088   3.737 -0.4840 -0.1901 -0.0964
11502TIP3    H155997   2.666   5.172   3.761 -2.4653 -1.3780  0.9788
11502TIP3    H255998   2.713   5.092   3.642 -2.4727  0.4253 -0.2631
11503TIP3   OH255999   1.097   5.069  12.323  0.0835  0.6952 -0.2647
11503TIP3    H156000   1.018   5.105  12.363 -0.8202 -0.2119 -1.1623
11503TIP3    H256001   1.167   5.130  12.347 -0.5775  0.6821  1.8733
11504TIP3   OH256002   0.772   2.495  17.425 -0.2910  0.2502 -0.3812
11504TIP3    H156003   0.713   2.569  17.435 -0.9336 -0.2418 -0.4365
11504TIP3    H256004   0.817   2.510  17.342 -1.1428  0.0908 -0.8872
11505TIP3   OH256005   1.211   5.585  12.685  0.3514 -0.2757 -0.7545
11505TIP3    H156006   1.211   5.491  12.698 -1.6171 -0.2513 -0.2251
11505TIP3    H256007   1.122   5.612  12.706  0.6303  1.5926 -1.7200
11506TIP3   OH256008   5.696   2.576  13.124  0.0469 -0.3265 -0.3599
11506TIP3    H156009   5.719   2.506  13.063  0.2975 -1.1630  0.6863
11506TIP3    H256010   5.602   2.563  13.140 -0.4374  0.9471 -1.8749
11507TIP3   OH256011   2.435   4.567   3.733 -0.1722  0.1095 -0.0665
11507TIP3    H156012   2.403   4.567   3.643  0.2201 -0.0322 -0.2092
11507TIP3    H256013   2.485   4.648   3.740  0.4132 -0.2384 -0.2005
11508TIP3   OH256014   4.767   1.487   1.676 -0.3145  0.4945  0.1437
11508TIP3    H156015   4.761   1.581   1.658  0.6496  0.7921  1.2484
11508TIP3    H256016   4.727   1.476   1.762 -1.3624 -0.2870 -0.4211
11509TIP3   OH256017   2.001   1.496  15.830  0.1916  0.0149 -0.1307
11509TIP3    H156018   1.963   1.409  15.819  0.1303 -0.3674  2.4653
11509TIP3    H256019   1.927   1.555  15.840  0.2494 -0.0772  0.8561
11510TIP3   OH256020   3.213   1.665   1.739 -0.1072  0.6485 -0.0115
11510TIP3    H156021   3.227   1.582   1.693  0.6914  0.5536  0.3857
11510TIP3    H256022   3.160   1.717   1.679 -0.5447 -0.1146 -0.3059
11511TIP3   OH256023   2.796   1.833  13.980 -0.2707 -0.3010  0.1277
11511TIP3    H156024   2.875   1.881  14.008 -0.2963 -0.7116  0.9408
11511TIP3    H256025   2.820   1.741  13.989 -0.4065 -0.4471 -0.9077
11512TIP3   OH256026   1.814   1.737  12.667  0.1269  0.2861 -0.0969
11512TIP3    H156027   1.901   1.763  12.634  0.1341  0.4066  0.0143
11512TIP3    H256028   1.762   1.817  12.662 -0.1540  0.0729 -0.7259
11513TIP3   OH256029   2.928   3.675  13.627  0.0269 -0.4469  0.5431
11513TIP3    H156030   2.893   3.596  13.586 -0.1672  0.0246 -0.2159
11513TIP3    H256031   2.879   3.683  13.709 -1.3419 -0.0454 -0.2888
11514TIP3   OH256032   2.478   5.906   3.426 -0.4124 -0.2342  0.0408
11514TIP3    H156033   2.460   5.997   3.449 -0.3768 -0.5668  1.5052
11514TIP3    H256034   2.570   5.907   3.397  0.2527 -0.0817  1.9731
11515TIP3   OH256035   6.698   5.620   1.389  0.3415 -0.0271 -0.0448
11515TIP3    H156036   6.684   5.588   1.300  1.0326 -0.7539  0.0925
11515TIP3    H256037   6.610   5.628   1.426  0.0619  0.0454 -0.7136
11516TIP3   OH256038   1.901   1.249   2.247 -0.0668 -0.3380  0.4369
11516TIP3    H156039   1.833   1.313   2.224  0.0194 -0.6266 -0.6889
11516TIP3    H256040   1.861   1.196   2.316 -0.9584 -0.4374 -0.1414
11517TIP3   OH256041   5.065   2.121   6.220 -0.4204  0.1813  0.5126
11517TIP3    H156042   5.091   2.048   6.276  0.9789 -0.8869 -1.4269
11517TIP3    H256043   5.147   2.162   6.193 -0.8750 -0.4417 -2.1215
11518TIP3   OH256044   6.554   2.820  17.195  0.1229  0.2289  0.6145
11518TIP3    H156045   6.611   2.757  17.151  1.1762  1.0744  0.7489
11518TIP3    H256046   6.598   2.840  17.277 -1.4382 -0.7152  1.7277
11519TIP3   OH256047   4.041   6.186  15.578 -0.1256  0.2661 -0.2022
11519TIP3    H156048   4.117   6.242  15.561 -0.4708  1.7873  2.6474
11519TIP3    H256049   4.078   6.098  15.586  1.4178  0.9794  1.2373
11520TIP3   OH256050   4.118   1.720   1.838 -0.5207 -0.0454  0.1165
11520TIP3    H156051   4.153   1.687   1.920 -0.9616  0.1847  0.4057
11520TIP3    H256052   4.097   1.642   1.787  0.2177 -0.1818  0.0216
11521TIP3   OH256053   1.527   2.855   2.968  0.1238  0.6927  0.1397
11521TIP3    H156054   1.499   2.934   2.922 -0.8089  3.1398  4.4285
11521TIP3    H256055   1.446   2.812   2.995  0.6301 -0.0891  0.4603
11522TIP3   OH256056   6.741   4.249  14.130  0.7031 -0.1145  0.0260
11522TIP3    H156057   6.768   4.157  14.131  0.1263 -0.3088 -1.0303
11522TIP3    H256058   6.754   4.277  14.039 -1.6988  0.0637 -0.3303
11523TIP3   OH256059   1.412   4.790   4.339 -0.1426 -0.0980 -0.3387
11523TIP3    H156060   1.485   4.745   4.295 -0.3057  1.0340 -1.8650
11523TIP3    H256061   1.363   4.720   4.380  1.0172 -1.0429 -0.4885
11524TIP3   OH256062   4.383   1.376   1.853  0.0728  0.0196 -0.6010
11524TIP3    H156063   4.456   1.438   1.860 -0.3202  0.3333  1.3854
11524TIP3    H256064   4.349   1.389   1.765  1.6455  0.7416 -1.1442
11525TIP3   OH256065   1.499   3.017  16.104  0.3667 -0.2185  0.4347
11525TIP3    H156066   1.553   3.080  16.151  1.3364 -1.3864  0.9279
11525TIP3    H256067   1.420   3.009  16.157  0.9860 -0.7051  1.2925
11526TIP3   OH256068   2.253   4.791   0.953 -0.5675  0.6590 -0.4081
11526TIP3    H156069   2.306   4.734   0.897  0.8884  0.4099  1.1339
11526TIP3    H256070   2.189   4.733   0.994  0.3662  0.2335  0.5069
11527TIP3   OH256071   0.889   0.355  14.038  0.6472  0.4644 -0.1786
11527TIP3    H156072   0.929   0.412  14.104  0.5025  0.8154 -0.3905
11527TIP3    H256073   0.959   0.296  14.012 -0.0951 -1.9122  2.6677
11528TIP3   OH256074   3.765   2.729   4.364 -0.6220  0.3176 -0.3497
11528TIP3    H156075   3.740   2.818   4.339  2.3416  0.3967 -3.8587
11528TIP3    H256076   3.846   2.739   4.414  0.2977 -0.3434 -1.6420
11529TIP3   OH256077   3.660   0.336   6.029  0.5493 -0.5750 -0.2939
11529TIP3    H156078   3.680   0.428   6.013 -0.2092 -0.4906 -0.8222
11529TIP3    H256079   3.661   0.327   6.124  1.1066 -0.1415 -0.2487
11530TIP3   OH256080   5.921   1.662  13.478  0.5474 -0.0035 -0.5210
11530TIP3    H156081   5.996   1.617  13.438  0.3869  0.7573 -1.7529
11530TIP3    H256082   5.951   1.685  13.566  0.5534 -2.6384  0.2372
11531TIP3   OH256083   1.156   1.357   0.937  0.2912  0.7230 -0.1762
11531TIP3    H156084   1.091   1.309   0.885  0.5889 -0.5074  0.5478
11531TIP3    H256085   1.164   1.442   0.893 -1.2814  0.6420 -0.6828
11532TIP3   OH256086   0.213   4.038   5.197  0.6117  0.3868  0.2607
11532TIP3    H156087   0.290   4.012   5.146 -0.1703 -0.2053 -0.6626
11532TIP3    H256088   0.185   4.121   5.158 -0.3662 -0.3813 -0.7634
11533TIP3   OH256089   2.899   0.576   4.810  0.0774 -0.0121 -0.3042
11533TIP3    H156090   2.898   0.533   4.725 -0.5549  0.9917 -0.8203
11533TIP3    H256091   2.818   0.627   4.813 -0.0463 -0.2293  1.0122
11534TIP3   OH256092   6.115   4.693  14.204  0.6248  0.6051 -0.1493
11534TIP3    H156093   6.113   4.788  14.211  2.0591  0.7241 -1.0714
11534TIP3    H256094   6.163   4.664  14.282 -0.7781  0.5241  0.7264
11535TIP3   OH256095   0.906   4.145   4.808 -0.3511 -0.5170 -0.1846
11535TIP3    H156096   0.840   4.166   4.874  0.7776 -0.3694  0.9467
11535TIP3    H256097   0.924   4.228   4.765 -2.3154 -0.9024 -1.9350
11536TIP3   OH256098   4.606   6.475  11.762 -0.3292 -0.2133  0.6416
11536TIP3    H156099   4.698   6.449  11.764 -0.7044 -1.6058  0.4963
11536TIP3    H256100   4.597   6.538  11.834  0.5801 -0.5973  1.0991
11537TIP3   OH256101   5.580   4.687   2.340 -0.0962 -0.3781 -0.2272
11537TIP3    H156102   5.612   4.670   2.428 -0.2282  1.2574  0.1740
11537TIP3    H256103   5.495   4.643   2.337 -0.0887 -0.4546  0.4594
11538TIP3   OH256104   6.736   0.575   0.078  0.2400 -0.2650  0.1327
11538TIP3    H156105   6.747   0.484   0.051 -0.0287 -0.2072 -0.1818
11538TIP3    H256106   6.721   0.571   0.172 -0.3620 -0.5981  0.0308
11539TIP3   OH256107   0.523   2.856   4.885 -0.3430  1.4870 -0.0190
11539TIP3    H156108   0.577   2.844   4.963 -1.1679 -0.2440  0.3377
11539TIP3    H256109   0.564   2.928   4.837  1.2338  1.3672  1.1106
11540TIP3   OH256110   6.131   1.675   4.079 -0.2974  0.1783  0.0815
11540TIP3    H156111   6.133   1.665   4.174  0.1308  0.5852  0.1189
11540TIP3    H256112   6.144   1.769   4.065 -0.3788  0.1204 -0.3755
11541TIP3   OH256113   6.564   2.925  12.671 -0.1698 -0.0624 -0.2489
11541TIP3    H156114   6.634   2.929  12.606  1.0025  0.1462  0.9865
11541TIP3    H256115   6.552   2.831  12.688  0.6617 -0.0575  0.4097
11542TIP3   OH256116   6.069   4.115  12.913 -0.0007  0.4317 -0.4926
11542TIP3    H156117   6.005   4.106  12.843 -0.6460  0.5574  0.0714
11542TIP3    H256118   6.040   4.054  12.981  0.0660  1.0031  0.0659
11543TIP3   OH256119   5.023   5.481  13.577  0.2429  0.0038  0.4834
11543TIP3    H156120   4.982   5.558  13.539  0.4834  0.5288  1.2550
11543TIP3    H256121   4.952   5.433  13.618  0.3481  0.8276  1.6783
11544TIP3   OH256122   6.469   3.979   2.023  0.1099 -0.4995  0.0053
11544TIP3    H156123   6.410   3.979   1.948 -0.0430  2.6641 -0.0140
11544TIP3    H256124   6.536   4.045   2.002  1.7017 -1.5328  1.4770
11545TIP3   OH256125   0.106   0.757  15.708 -0.5352 -0.0056 -0.4949
11545TIP3    H156126   0.139   0.847  15.708 -1.5495  0.3818 -0.2005
11545TIP3    H256127   0.180   0.705  15.739 -0.1117  0.7924 -0.1130
11546TIP3   OH256128   0.154   4.014  13.816  0.8236 -0.1379  0.3165
11546TIP3    H156129   0.131   4.018  13.723  0.1990  0.1576  0.4793
11546TIP3    H256130   0.124   3.929  13.845  0.7742 -0.1219  0.3126
11547TIP3   OH256131   6.744   2.076  11.678 -0.1167  0.6681 -0.0276
11547TIP3    H156132   6.687   2.093  11.603 -0.1777  0.4062 -0.0429
11547TIP3    H256133   6.769   1.984  11.668 -1.8500 -0.0304  1.4008
11548TIP3   OH256134   1.671   6.171   5.807 -0.6791 -0.1623 -0.0572
11548TIP3    H156135   1.724   6.134   5.877 -1.0715 -0.0191  0.3227
11548TIP3    H256136   1.608   6.102   5.785  0.3345 -0.7350 -1.2478
11549TIP3   OH256137   3.291   4.534   2.829 -0.0047 -0.5739 -0.2217
11549TIP3    H156138   3.243   4.556   2.908  2.7774 -0.4235  1.5962
11549TIP3    H256139   3.309   4.619   2.787  3.2936  0.1362  2.1599
11550TIP3   OH256140   2.665   2.883  14.630 -0.3467 -0.1985  0.2342
11550TIP3    H156141   2.596   2.854  14.690  0.7050 -3.1479  0.2059
11550TIP3    H256142   2.725   2.933  14.685 -1.4519  0.6313  0.7143
11551TIP3   OH256143   3.489   6.157   3.853  0.6408  0.3262  0.1415
11551TIP3    H156144   3.474   6.231   3.793 -0.2766 -0.5221 -0.7080
11551TIP3    H256145   3.453   6.081   3.807 -2.3365 -0.0326  2.6947
11552TIP3   OH256146   1.572   6.265  13.125  0.5838 -0.5237 -0.2107
11552TIP3    H156147   1.496   6.322  13.117  0.5472 -0.2385  1.6728
11552TIP3    H256148   1.559   6.198  13.057 -1.2136 -0.3275 -0.1208
11553TIP3   OH256149   2.832   5.659  12.948 -0.7883 -0.1100 -0.3506
11553TIP3    H156150   2.881   5.741  12.937 -1.3575  0.1965 -0.6706
11553TIP3    H256151   2.776   5.655  12.871  0.0411 -1.3848 -0.9280
11554TIP3   OH256152   0.402   0.887   2.551 -0.0860 -0.1149 -0.0851
11554TIP3    H156153   0.497   0.896   2.555 -0.1615  1.1013 -0.4632
11554TIP3    H256154   0.373   0.967   2.506 -1.3390 -0.1425  0.6343
11555TIP3   OH256155   3.761   5.567  16.817 -0.2888  0.7129 -0.4666
11555TIP3    H156156   3.806   5.583  16.900 -2.0257  1.6567  0.3510
11555TIP3    H256157   3.831   5.556  16.754  1.1045  2.3345  0.6946
11556TIP3   OH256158   6.530   3.133   5.635  0.8009 -0.7735 -0.7678
11556TIP3    H156159   6.475   3.172   5.567  0.7830 -1.3358 -1.0850
11556TIP3    H256160   6.470   3.081   5.688  0.3915  1.4378  1.0968
11557TIP3   OH256161   2.531   0.177   1.420  0.6923 -0.2179 -0.6123
11557TIP3    H156162   2.607   0.216   1.463 -1.0027  0.7321  1.6993
11557TIP3    H256163   2.520   0.230   1.340  1.7691  0.3554 -0.4037
11558TIP3   OH256164   5.113   0.801  14.662  0.1364  0.1632 -0.3638
11558TIP3    H156165   5.204   0.831  14.672  0.0609  0.0697  0.6334
11558TIP3    H256166   5.099   0.741  14.735 -1.0978  1.0793  0.1780
11559TIP3   OH256167   2.744   4.251   3.614  0.1104  0.4908 -0.2671
11559TIP3    H156168   2.700   4.242   3.530  0.3747  2.3087 -0.6502
11559TIP3    H256169   2.752   4.346   3.627  3.6566  0.2914 -0.0699
11560TIP3   OH256170   1.164   5.153  11.617 -0.4130  0.1162 -0.2266
11560TIP3    H156171   1.141   5.062  11.600 -0.3935 -0.3265  1.8439
11560TIP3    H256172   1.193   5.187  11.532 -0.9233 -1.6317 -1.1522
11561TIP3   OH256173   5.134   0.021   6.207  0.4101 -0.1796 -0.2049
11561TIP3    H156174   5.100   0.110   6.200 -0.3996 -0.4815 -0.2263
11561TIP3    H256175   5.169   0.016   6.296  1.1288  0.3772 -0.4431
11562TIP3   OH256176   1.669   2.565   1.754 -0.5307  0.0104  0.3686
11562TIP3    H156177   1.575   2.557   1.766 -0.6277  1.0114  0.4099
11562TIP3    H256178   1.679   2.589   1.661 -0.1277 -2.5929 -0.3455
11563TIP3   OH256179   3.756   3.584   4.611 -0.1753 -0.1709 -0.7726
11563TIP3    H156180   3.805   3.616   4.687 -0.7022  0.6068 -0.7530
11563TIP3    H256181   3.823   3.549   4.553  0.2211 -0.9643  0.1323
11564TIP3   OH256182   4.527   3.448  15.602  0.2243 -0.2846 -0.4885
11564TIP3    H156183   4.610   3.459  15.648 -0.1560  0.6235 -0.0047
11564TIP3    H256184   4.552   3.423  15.513  1.0141  0.1004 -0.3797
11565TIP3   OH256185   0.919   3.455   0.605  0.4864 -0.0309 -0.2411
11565TIP3    H156186   0.889   3.515   0.537  0.5072 -1.6936 -1.8028
11565TIP3    H256187   0.858   3.467   0.677 -0.1656  1.0558 -0.9484
11566TIP3   OH256188   5.061   1.104  12.134  0.7090 -0.2694  0.2397
11566TIP3    H156189   5.034   1.100  12.043  1.2871 -0.3232  0.0680
11566TIP3    H256190   5.049   1.015  12.167 -0.0741 -0.1104  0.3835
11567TIP3   OH256191   0.209   2.019  14.335  0.3312 -0.1536  0.7308
11567TIP3    H156192   0.128   2.050  14.376 -0.3757 -1.3816  0.3200
11567TIP3    H256193   0.271   2.091  14.347 -1.4678  1.8292 -1.0268
11568TIP3   OH256194   1.236   0.552   6.603 -0.1165 -0.5013 -0.3808
11568TIP3    H156195   1.146   0.533   6.632 -0.5695 -0.9976 -1.9786
11568TIP3    H256196   1.240   0.515   6.515  0.4256  2.8612 -1.9141
11569TIP3   OH256197   1.400   1.417  16.731 -0.4793 -0.4285  0.2999
11569TIP3    H156198   1.312   1.393  16.760 -0.2025 -2.2983 -0.3122
11569TIP3    H256199   1.389   1.442  16.639 -0.2634 -1.3904  0.0085
11570TIP3   OH256200   3.390   5.376  16.035  0.3424  0.1842  0.0821
11570TIP3    H156201   3.327   5.444  16.012  0.3689 -0.2957 -1.4782
11570TIP3    H256202   3.362   5.299  15.987  0.0759 -1.0880  2.1331
11571TIP3   OH256203   3.882   5.115  17.279  0.0063  0.3544 -0.2058
11571TIP3    H156204   3.939   5.103  17.354 -0.4919 -1.1886 -0.0528
11571TIP3    H256205   3.795   5.090  17.310 -0.0877 -1.0008 -1.4789
11572TIP3   OH256206   2.259   6.576  13.384  0.2039  0.3260 -0.3887
11572TIP3    H156207   2.205   6.614  13.453 -0.1301  1.2843 -1.1552
11572TIP3    H256208   2.280   6.650  13.326  1.1634 -0.2930 -0.8703
11573TIP3   OH256209   5.333   5.757   3.861 -0.1271 -0.2322 -0.3334
11573TIP3    H156210   5.360   5.665   3.858 -0.1648 -0.2711  0.3909
11573TIP3    H256211   5.402   5.804   3.813  0.7626 -0.4511  0.6782
11574TIP3   OH256212   4.949   1.223  13.790  0.7895 -0.3647  0.0595
11574TIP3    H156213   4.904   1.162  13.732  0.7775 -0.1476 -0.1658
11574TIP3    H256214   4.984   1.169  13.860  1.6107 -0.7764 -0.6396
11575TIP3   OH256215   6.529   3.278   4.165 -0.0479 -0.3560 -0.0614
11575TIP3    H156216   6.599   3.296   4.102  1.2538  0.9759  1.6727
11575TIP3    H256217   6.558   3.199   4.211 -0.3762 -0.6074 -0.2861
11576TIP3   OH256218   3.724   0.459  13.251  0.2437  0.2433 -0.8472
11576TIP3    H156219   3.711   0.528  13.316 -1.6422 -1.0800  0.2792
11576TIP3    H256220   3.776   0.393  13.297 -1.5086 -0.9224 -0.4206
11577TIP3   OH256221   4.669   1.561  17.027 -0.2466  0.2933  0.5328
11577TIP3    H156222   4.726   1.626  16.985  0.5742 -0.6139  0.1975
11577TIP3    H256223   4.637   1.604  17.106  0.5241  1.0043  0.4711
11578TIP3   OH256224   1.443   0.734  12.089  0.4061  0.3841  0.0239
11578TIP3    H156225   1.518   0.695  12.045 -0.1008 -1.1401  0.4247
11578TIP3    H256226   1.479   0.778  12.166  1.0031  0.7620 -0.4675
11579TIP3   OH256227   4.519   4.108  13.928 -0.0776 -0.2239  0.1034
11579TIP3    H156228   4.577   4.036  13.951  2.1877  1.1348 -1.0360
11579TIP3    H256229   4.572   4.187  13.937 -2.1876  1.2737  0.3836
11580TIP3   OH256230   5.807   4.473  12.581  0.0500 -0.8043  0.3179
11580TIP3    H156231   5.843   4.546  12.531  1.7649 -1.8161 -0.0032
11580TIP3    H256232   5.718   4.500  12.602  0.4767  1.1527 -0.2118
11581TIP3   OH256233   2.755   5.267   6.266 -0.2417 -0.5993  0.0802
11581TIP3    H156234   2.782   5.327   6.335 -0.7287 -0.8342  0.4765
11581TIP3    H256235   2.742   5.184   6.310 -2.9994 -0.1764  0.1903
11582TIP3   OH256236   0.131   5.963  16.661  0.1317 -0.1829 -0.0635
11582TIP3    H156237   0.225   5.984  16.660  0.9426 -3.3405 -1.2643
11582TIP3    H256238   0.110   5.956  16.755  1.8550 -2.0909  0.2546
11583TIP3   OH256239   1.781   6.455  15.000  0.1579  0.0737 -0.2981
11583TIP3    H156240   1.816   6.518  15.064  0.8604 -0.8300  0.2324
11583TIP3    H256241   1.859   6.411  14.966 -0.3227 -0.4139 -0.7688
11584TIP3   OH256242   1.479   0.855   0.635 -0.4664  0.0384 -0.8810
11584TIP3    H156243   1.429   0.932   0.663 -2.2298 -0.4851 -2.4252
11584TIP3    H256244   1.421   0.781   0.649  1.3668 -1.1460  0.9749
11585TIP3   OH256245   0.731   0.536  12.787 -0.0388 -0.1211 -0.1477
11585TIP3    H156246   0.654   0.480  12.794 -0.5650  0.5406 -0.5186
11585TIP3    H256247   0.698   0.624  12.802  0.3589  0.3537 -1.8496
11586TIP3   OH256248   3.761   5.790  14.944 -0.1736  0.2216  0.7219
11586TIP3    H156249   3.778   5.771  14.852 -0.0835 -0.1290  0.8080
11586TIP3    H256250   3.684   5.846  14.944  0.1467  0.6699  0.4020
11587TIP3   OH256251   2.112   1.142  17.201  0.3680  0.0651  0.6776
11587TIP3    H156252   2.110   1.058  17.155 -0.6353  1.2995 -1.7102
11587TIP3    H256253   2.026   1.149  17.241 -1.0292  1.4302 -2.2261
11588TIP3   OH256254   3.097   0.441   5.869 -0.4916 -0.3670  0.2837
11588TIP3    H156255   3.124   0.350   5.882 -0.5534 -0.5686 -0.8997
11588TIP3    H256256   3.163   0.477   5.810 -0.9061  0.1332  0.1173
11589TIP3   OH256257   2.687   3.266   2.995  0.2573 -0.4682  0.2432
11589TIP3    H156258   2.636   3.202   3.044 -1.6987  1.7864  1.3369
11589TIP3    H256259   2.623   3.312   2.941  1.0131  2.5154  1.7086
11590TIP3   OH256260   0.136   3.322  16.405 -0.4256  0.6786 -0.7723
11590TIP3    H156261   0.188   3.251  16.443  0.5957  2.3111  1.0650
11590TIP3    H256262   0.094   3.363  16.481  0.2076  2.9516 -1.5965
11591TIP3   OH256263   1.601   5.415   3.085  0.3336 -0.0665 -0.1051
11591TIP3    H156264   1.605   5.328   3.125  0.8927 -0.9992 -2.0902
11591TIP3    H256265   1.508   5.432   3.072  0.1938 -0.1236  0.7343
11592TIP3   OH256266   2.060   3.662  16.095  0.0838  0.2165  0.0585
11592TIP3    H156267   1.969   3.634  16.110  0.3907 -2.6726 -2.4123
11592TIP3    H256268   2.113   3.596  16.141  0.8532 -0.6488 -1.9412
11593TIP3   OH256269   3.825   2.176   0.315 -0.0127  0.4454  0.1633
11593TIP3    H156270   3.784   2.187   0.230 -1.9014  0.8177  1.0648
11593TIP3    H256271   3.803   2.087   0.342  1.8686 -0.2112 -0.3549
11594TIP3   OH256272   2.343   0.999  16.353 -0.2015  0.4623  0.0640
11594TIP3    H156273   2.310   1.089  16.352 -2.7735 -0.3666 -2.2699
11594TIP3    H256274   2.310   0.963  16.436 -0.3340  1.2577  0.3683
11595TIP3   OH256275   1.223   4.535  10.254 -0.0903  0.4041  0.0223
11595TIP3    H156276   1.256   4.465  10.198  0.2876 -0.3109  1.1132
11595TIP3    H256277   1.154   4.495  10.305  0.3608  0.7308  0.9029
11596TIP3   OH256278   1.863   0.943  12.007 -0.0542  0.1921  0.0915
11596TIP3    H156279   1.902   0.867  11.965 -1.2153 -0.3750  0.0198
11596TIP3    H256280   1.902   0.945  12.094  1.4699  0.6879 -0.5591
11597TIP3   OH256281   6.032   2.658  16.960  0.1478  0.5087 -0.3175
11597TIP3    H156282   6.066   2.619  16.880 -1.0409  0.7720 -0.9553
11597TIP3    H256283   5.949   2.699  16.935 -0.0231  0.9881  0.9429
11598TIP3   OH256284   0.477   3.268  12.167  0.4454 -0.5375 -0.3866
11598TIP3    H156285   0.434   3.317  12.238  1.9073  0.0648  0.1338
11598TIP3    H256286   0.408   3.254  12.103 -1.0370 -1.4063  1.2990
11599TIP3   OH256287   4.469   5.677   6.172 -0.6759 -0.1814  0.0544
11599TIP3    H156288   4.547   5.673   6.228 -0.7908 -2.4174  0.1457
11599TIP3    H256289   4.396   5.688   6.233 -0.5451  0.8889  0.0420
11600TIP3   OH256290   2.735   1.675   2.450  0.0478 -0.8424  0.4248
11600TIP3    H156291   2.759   1.729   2.374  0.8417 -0.8349  0.6722
11600TIP3    H256292   2.659   1.624   2.420 -1.4368  1.1816  0.5406
11601TIP3   OH256293   4.767   1.262  17.307 -0.0142  0.5564  0.3460
11601TIP3    H156294   4.721   1.191  17.262  0.8845  2.2287 -3.6569
11601TIP3    H256295   4.709   1.337  17.300  1.1476  1.4345 -0.2120
11602TIP3   OH256296   5.469   2.937   4.931  0.2779  0.2129  0.0547
11602TIP3    H156297   5.555   2.935   4.888 -0.5824 -0.2741 -1.7570
11602TIP3    H256298   5.440   3.027   4.922 -0.1299 -0.0079 -0.8867
11603TIP3   OH256299   2.969   6.604   6.179 -0.4309 -0.1010 -0.2626
11603TIP3    H156300   2.996   6.595   6.271 -0.9410  0.8542 -0.0046
11603TIP3    H256301   2.902   6.672   6.181 -1.4340 -1.0338 -1.1613
11604TIP3   OH256302   2.378   0.114  11.253  0.2608  0.6623 -0.5396
11604TIP3    H156303   2.384   0.131  11.159  0.3813  1.9959 -0.3006
11604TIP3    H256304   2.375   0.200  11.293  1.3979  0.1262  0.7700
11605TIP3   OH256305   1.408   3.150   3.528  0.1354 -0.3463 -0.0483
11605TIP3    H156306   1.375   3.146   3.618 -0.1202 -2.0162 -0.1836
11605TIP3    H256307   1.500   3.127   3.536 -0.4124 -3.0235 -0.4141
11606TIP3   OH256308   3.049   2.279   3.839 -0.1632 -0.3592  0.0686
11606TIP3    H156309   2.981   2.239   3.893 -0.1751 -1.6592 -0.8701
11606TIP3    H256310   3.001   2.329   3.774 -0.1553  2.5508  2.1040
11607TIP3   OH256311   5.011   6.580  13.580  0.3590 -0.0845  0.3811
11607TIP3    H156312   5.066   6.503  13.565  1.0059  0.5397 -0.5270
11607TIP3    H256313   5.060   6.653  13.542 -1.4800  0.3566 -1.2961
11608TIP3   OH256314   5.448   0.263   5.713  0.3408  0.4775 -0.1789
11608TIP3    H156315   5.516   0.206   5.749  0.1951  1.5839  1.9973
11608TIP3    H256316   5.488   0.350   5.712  0.5133  0.4599 -3.3210
11609TIP3   OH256317   1.081   5.867  16.543 -0.0017 -0.5239 -0.2454
11609TIP3    H156318   1.132   5.937  16.584 -1.4997 -0.3595  1.4714
11609TIP3    H256319   1.058   5.902  16.457  0.5513  0.4671 -0.0078
11610TIP3   OH256320   1.159   4.713  16.482 -0.0860  0.1571 -0.8554
11610TIP3    H156321   1.147   4.796  16.527  0.1302 -0.1597 -0.2086
11610TIP3    H256322   1.218   4.734  16.409  0.4155  0.4576 -0.3666
11611TIP3   OH256323   4.760   2.558  14.929  0.3041 -0.8239 -0.1502
11611TIP3    H156324   4.784   2.589  14.841  0.6811 -1.5352 -0.3025
11611TIP3    H256325   4.712   2.477  14.913 -0.1814 -0.6232  0.2740
11612TIP3   OH256326   4.431   5.914   6.799  0.1097 -0.2345 -0.1717
11612TIP3    H156327   4.496   5.981   6.779 -1.6218  1.2262 -1.2087
11612TIP3    H256328   4.475   5.832   6.779  2.1074  0.5815  0.5741
11613TIP3   OH256329   2.456   0.712  16.658 -0.0095 -0.7097 -0.4123
11613TIP3    H156330   2.536   0.664  16.680  1.4034  2.3499  1.8758
11613TIP3    H256331   2.482   0.775  16.591 -1.0087 -0.8904 -1.0046
11614TIP3   OH256332   5.792   5.132   6.044 -0.6726  0.1963 -0.5151
11614TIP3    H156333   5.796   5.038   6.027 -1.6366 -0.0123  0.3412
11614TIP3    H256334   5.802   5.139   6.139 -0.2360  0.9953 -0.6102
11615TIP3   OH256335   1.466   5.352   5.772  0.6008 -0.0541 -0.1409
11615TIP3    H156336   1.395   5.383   5.828  1.0677 -0.3297  0.6368
11615TIP3    H256337   1.441   5.377   5.684 -0.7359 -0.6444  0.0487
11616TIP3   OH256338   3.048   2.226   2.576 -0.5386 -0.3559 -0.0798
11616TIP3    H156339   3.020   2.154   2.520 -1.6449 -1.0526  1.3218
11616TIP3    H256340   3.117   2.188   2.630 -1.3518 -0.4756  0.8897
11617TIP3   OH256341   6.620   2.472   5.732  0.0628  0.2996  0.0458
11617TIP3    H156342   6.573   2.462   5.815 -0.7565  1.5011 -0.2670
11617TIP3    H256343   6.688   2.404   5.736 -1.8947 -1.7725  0.3278
11618TIP3   OH256344   2.440   4.216   6.334 -0.5242  0.1404 -0.0558
11618TIP3    H156345   2.435   4.212   6.239  0.6193  0.8290 -0.1699
11618TIP3    H256346   2.375   4.281   6.360 -1.1654 -0.3861 -0.3128
11619TIP3   OH256347   1.249   0.764   1.706 -0.4885  0.3061 -0.5262
11619TIP3    H156348   1.207   0.681   1.683 -0.7055 -0.0415  1.0505
11619TIP3    H256349   1.181   0.814   1.751 -0.3029  1.2796 -1.2993
11620TIP3   OH256350   1.094   1.635  15.414 -0.5210  0.3354  0.3934
11620TIP3    H156351   1.188   1.640  15.395 -0.0113 -1.6739  2.0603
11620TIP3    H256352   1.079   1.707  15.475  0.4828 -0.7170  1.9474
11621TIP3   OH256353   2.352   0.672   6.216 -0.1150 -0.3800 -0.0840
11621TIP3    H156354   2.447   0.679   6.209 -0.2636  0.3208 -2.0503
11621TIP3    H256355   2.319   0.709   6.134 -2.1535  0.6726  1.1256
11622TIP3   OH256356   0.797   4.960  11.662 -0.0769  0.1374  0.2109
11622TIP3    H156357   0.825   4.948  11.753  1.1722  0.1642 -0.1429
11622TIP3    H256358   0.777   4.872  11.631 -1.6327  0.2474  0.8317
11623TIP3   OH256359   0.921   1.047   6.189  0.7477 -0.8492  0.0247
11623TIP3    H156360   0.838   1.048   6.141  0.3634 -2.2103  0.6038
11623TIP3    H256361   0.929   1.135   6.225 -0.5425 -0.7551  0.1257
11624TIP3   OH256362   2.958   5.237   1.982  0.3134 -0.4628 -0.2174
11624TIP3    H156363   2.876   5.266   2.020  1.1114 -0.0614  1.2512
11624TIP3    H256364   2.986   5.164   2.037  0.2767 -1.5155 -1.5320
11625TIP3   OH256365   0.828   5.786   1.847 -0.1710  0.0883 -0.0496
11625TIP3    H156366   0.819   5.851   1.915  0.4277  0.2265 -0.0947
11625TIP3    H256367   0.917   5.798   1.813 -0.4453  0.0057 -0.8328
11626TIP3   OH256368   1.976   2.022  11.449 -0.1667 -0.1235 -0.1841
11626TIP3    H156369   1.940   1.934  11.454 -0.0825 -0.3013 -1.9512
11626TIP3    H256370   1.915   2.069  11.392  0.2455  0.7151  0.0541
11627TIP3   OH256371   2.702   0.801   2.004 -0.2041 -0.0743  0.1433
11627TIP3    H156372   2.623   0.781   1.955  0.5184  0.0116 -1.0827
11627TIP3    H256373   2.671   0.845   2.083 -1.3976 -0.4861 -0.0813
11628TIP3   OH256374   1.674   5.937   2.131 -0.6872 -0.3738 -0.7511
11628TIP3    H156375   1.737   5.865   2.132  1.2551  1.2224 -0.5951
11628TIP3    H256376   1.592   5.897   2.102  0.6727 -2.3311 -2.2052
11629TIP3   OH256377   5.994   5.476  12.906  0.4556  0.3102 -0.1021
11629TIP3    H156378   5.950   5.467  12.822  1.1931 -0.7730 -0.3903
11629TIP3    H256379   6.005   5.570  12.918 -1.0971  0.5583 -0.4466
11630TIP3   OH256380   0.954   5.729   3.457  0.4900 -0.2134  0.5448
11630TIP3    H156381   0.911   5.668   3.516 -0.1294  1.1079  1.4997
11630TIP3    H256382   1.047   5.716   3.474  0.3213  0.7972  2.5540
11631TIP3   OH256383   1.028   6.298   3.991 -0.4665 -0.5943 -0.1594
11631TIP3    H156384   1.116   6.324   3.961 -0.3393 -2.1710 -1.2746
11631TIP3    H256385   1.039   6.207   4.020 -1.5845 -0.5431  0.4640
11632TIP3   OH256386   6.692   2.585   2.017 -0.0306 -0.1786 -0.6521
11632TIP3    H156387   6.632   2.640   1.966 -0.1769 -1.0441 -1.4458
11632TIP3    H256388   6.638   2.553   2.090 -0.2496 -0.1125 -0.7823
11633TIP3   OH256389   0.495   2.745  14.662  0.1345  0.2407  0.1853
11633TIP3    H156390   0.545   2.823  14.638 -1.0063  1.6909  2.1762
11633TIP3    H256391   0.407   2.761  14.627 -0.1240 -0.0773  0.6702
11634TIP3   OH256392   2.583   6.262   4.570 -0.6764 -0.5481 -0.3808
11634TIP3    H156393   2.646   6.253   4.642 -0.1482  0.2583 -0.7264
11634TIP3    H256394   2.608   6.344   4.527 -2.0682 -0.1480 -0.4436
11635TIP3   OH256395   4.976   2.246  13.761  0.0149 -0.8995 -0.4080
11635TIP3    H156396   4.893   2.293  13.746  0.2367 -0.0297  0.9816
11635TIP3    H256397   5.012   2.234  13.673 -0.0686  1.5412 -0.8406
11636TIP3   OH256398   3.743   0.241  16.584 -0.0360 -0.2023 -0.2356
11636TIP3    H156399   3.656   0.208  16.606  0.5162 -0.8427  1.0792
11636TIP3    H256400   3.734   0.274  16.494 -2.1891  1.7291  0.5915
11637TIP3   OH256401   2.583   3.453   5.756 -0.6906  0.2087 -0.5412
11637TIP3    H156402   2.573   3.447   5.851 -0.6066 -0.2045 -0.5548
11637TIP3    H256403   2.513   3.512   5.728 -0.3007  0.8671 -0.1527
11638TIP3   OH256404   5.274   5.081   3.116  0.9623 -0.1579  0.3257
11638TIP3    H156405   5.301   5.171   3.133 -1.5296  0.6951  0.1236
11638TIP3    H256406   5.325   5.055   3.039  3.1353  0.3352  1.5206
11639TIP3   OH256407   4.995   6.651  17.019  0.3500 -0.1149  0.4101
11639TIP3    H156408   5.087   6.666  17.041  0.5066  0.9169 -0.8341
11639TIP3    H256409   4.997   6.598  16.940 -0.1621 -1.1264  1.0517
11640TIP3   OH256410   1.902   4.690   0.671 -0.5045 -0.4093 -0.4230
11640TIP3    H156411   1.810   4.666   0.672 -0.2250 -1.5093 -0.4180
11640TIP3    H256412   1.935   4.664   0.757  0.0411 -0.9954 -0.7956
11641TIP3   OH256413   6.156   2.943  15.206  0.0572  0.5438 -0.2962
11641TIP3    H156414   6.203   2.940  15.123  1.3712 -2.1165  0.4450
11641TIP3    H256415   6.065   2.923  15.182  1.0289 -4.5033 -0.9077
11642TIP3   OH256416   6.759   0.313   5.803  0.0745 -0.5106 -0.3725
11642TIP3    H156417   6.678   0.355   5.832 -1.1574 -1.8803 -1.6910
11642TIP3    H256418   6.809   0.383   5.762 -0.0771  0.5128  1.0997
11643TIP3   OH256419   2.831   3.015   4.375 -0.3657 -0.0875  0.7468
11643TIP3    H156420   2.743   3.006   4.340  0.1667 -0.0319 -0.6631
11643TIP3    H256421   2.853   2.927   4.408 -0.6301 -0.3174  0.3200
11644TIP3   OH256422   5.171   3.650   0.110  0.0192  0.0746  0.3986
11644TIP3    H156423   5.098   3.667   0.169  0.6462 -1.2011  1.6150
11644TIP3    H256424   5.245   3.697   0.148  0.2250 -0.0157  0.1196
11645TIP3   OH256425   3.241   6.762  15.836  0.0775 -0.5307  0.1668
11645TIP3    H156426   3.227   6.676  15.874  0.7950 -0.5395  0.4308
11645TIP3    H256427   3.163   6.812  15.860 -0.5945 -1.2577 -0.4652
11646TIP3   OH256428   4.572   0.413   1.939  0.7592 -0.5156  0.2373
11646TIP3    H156429   4.552   0.450   2.026  1.8044 -1.1388  0.7635
11646TIP3    H256430   4.667   0.403   1.939  1.1977  2.1676 -2.0879
11647TIP3   OH256431   4.583   2.285   5.102  0.1917 -0.0660 -0.1888
11647TIP3    H156432   4.580   2.380   5.095 -1.3081 -0.0699 -0.0571
11647TIP3    H256433   4.555   2.267   5.192  0.4537 -0.6280 -0.2175
11648TIP3   OH256434   0.681   2.775  12.592 -0.0569  0.0840  0.1291
11648TIP3    H156435   0.718   2.777  12.504  1.9029  1.1125  0.9194
11648TIP3    H256436   0.588   2.756  12.579  0.4098 -0.9607 -2.0684
11649TIP3   OH256437   6.754   5.388   6.150 -0.7870 -0.1794  0.1374
11649TIP3    H156438   6.700   5.406   6.227  0.1342  0.4459  0.6580
11649TIP3    H256439   6.772   5.294   6.155  0.3541  0.0867  1.4373
11650TIP3   OH256440   2.712   4.182   1.381 -0.4481 -0.0684 -0.4350
11650TIP3    H156441   2.718   4.251   1.447 -2.2632  0.3337 -0.6307
11650TIP3    H256442   2.705   4.229   1.298  0.3665 -0.5431 -0.7779
11651TIP3   OH256443   4.285   4.332  16.088  0.0449 -0.1823 -0.2980
11651TIP3    H156444   4.315   4.289  16.008 -0.6717  0.5859 -0.9934
11651TIP3    H256445   4.365   4.368  16.126  0.6079 -1.7713  0.1176
11652TIP3   OH256446   0.629   0.545   1.322 -0.2287  0.1099 -0.4862
11652TIP3    H156447   0.660   0.495   1.247 -0.7270  0.2554 -0.7906
11652TIP3    H256448   0.591   0.624   1.284 -0.9913 -0.0744 -0.1207
11653TIP3   OH256449   5.190   2.265  14.855  0.1131 -0.3906  0.5537
11653TIP3    H156450   5.114   2.287  14.801  0.4572  1.6055  0.8216
11653TIP3    H256451   5.240   2.204  14.801 -1.0450 -0.7886 -0.1250
11654TIP3   OH256452   2.825   4.774   4.169  0.1132 -0.1178  0.3734
11654TIP3    H156453   2.808   4.863   4.199  2.1679  1.1299 -1.8966
11654TIP3    H256454   2.814   4.777   4.074  0.9622 -2.1072  0.1523
11655TIP3   OH256455   3.671   2.896   1.429  0.0338 -0.4009  0.6472
11655TIP3    H156456   3.741   2.961   1.422 -0.3373  0.1090  1.4847
11655TIP3    H256457   3.620   2.924   1.505 -0.4364 -1.3895  0.7095
11656TIP3   OH256458   2.292   3.404   5.734 -0.1109  0.1119 -0.3637
11656TIP3    H156459   2.352   3.333   5.710  1.2210  0.9578  0.3696
11656TIP3    H256460   2.207   3.361   5.744  0.4771 -1.2188 -0.8315
11657TIP3   OH256461   4.000   3.647   2.373  0.3418  0.3991 -0.3463
11657TIP3    H156462   3.913   3.609   2.360  0.2485  0.7941 -0.9140
11657TIP3    H256463   4.004   3.720   2.312  1.2777  0.0463 -0.7352
11658TIP3   OH256464   4.874   2.588   6.116 -0.2975  0.0388  0.0055
11658TIP3    H156465   4.911   2.675   6.099  1.1190 -0.2018  1.5305
11658TIP3    H256466   4.829   2.597   6.200  3.4086 -1.5210  2.4408
11659TIP3   OH256467   3.672   6.636  11.953  0.4033 -0.0287  0.2876
11659TIP3    H156468   3.717   6.719  11.971  1.7882 -0.4090 -1.1875
11659TIP3    H256469   3.668   6.631  11.857  0.0833 -1.5351  0.3540
11660TIP3   OH256470   5.431   4.217  17.179 -0.2250  0.4235 -0.3847
11660TIP3    H156471   5.337   4.234  17.171 -0.3658  0.2011  0.6136
11660TIP3    H256472   5.446   4.208  17.273  1.1477  2.4538 -0.3254
11661TIP3   OH256473   6.289   6.477  16.394  0.4766  0.0430 -0.0388
11661TIP3    H156474   6.237   6.397  16.388  0.0882  0.2436  0.5143
11661TIP3    H256475   6.298   6.507  16.304  0.7062 -0.6735 -0.2593
11662TIP3   OH256476   1.971   4.921  17.248 -0.0047  0.1652 -0.1472
11662TIP3    H156477   1.940   5.011  17.258  0.3070  0.3322 -0.6249
11662TIP3    H256478   2.040   4.926  17.182 -1.2404 -0.6785 -1.5992
11663TIP3   OH256479   3.207   2.506   3.708  0.1224 -0.2052  0.2746
11663TIP3    H156480   3.261   2.578   3.743  0.4654 -0.5738  0.5124
11663TIP3    H256481   3.266   2.431   3.706 -0.3646 -0.5979  0.4634
11664TIP3   OH256482   1.025   1.359   3.733 -0.2865  0.8434 -0.1119
11664TIP3    H156483   1.018   1.378   3.639  1.2587  0.8747 -0.2465
11664TIP3    H256484   1.073   1.434   3.769 -0.9112  0.8538  0.7245
11665TIP3   OH256485   5.470   1.827  14.748 -0.0239  0.4165  0.1093
11665TIP3    H156486   5.562   1.854  14.747  1.1315 -3.0010 -1.2341
11665TIP3    H256487   5.432   1.869  14.671  0.0046  2.7532  1.2781
11666TIP3   OH256488   3.780   3.033   2.775 -0.2359  0.0533 -0.1280
11666TIP3    H156489   3.709   2.997   2.828 -0.0854 -0.0855 -0.0202
11666TIP3    H256490   3.771   3.128   2.785  0.8567  0.0212  1.6044
11667TIP3   OH256491   0.208   0.931   1.106  0.1902 -0.4298  0.0809
11667TIP3    H156492   0.229   1.020   1.080 -1.3448  0.0214  0.2965
11667TIP3    H256493   0.221   0.878   1.027  1.1635 -0.0469 -0.0302
11668TIP3   OH256494   5.829   5.235   5.644 -0.2776 -0.3179  0.3307
11668TIP3    H156495   5.901   5.197   5.693  0.1020  0.4813  0.4068
11668TIP3    H256496   5.860   5.237   5.553 -0.8253 -1.4283  0.1042
11669TIP3   OH256497   4.404   6.650   2.695  0.2893  0.0156 -0.0657
11669TIP3    H156498   4.324   6.609   2.728 -0.4534  0.3472 -1.3733
11669TIP3    H256499   4.373   6.729   2.651  1.2337 -0.2991 -1.3293
11670TIP3   OH256500   0.966   2.445   6.526 -0.1441 -0.5664  0.6820
11670TIP3    H156501   0.943   2.391   6.602 -1.2776 -1.1712 -0.0692
11670TIP3    H256502   0.939   2.533   6.550  0.1229 -0.6297  1.2344
11671TIP3   OH256503   4.686   3.717  15.881 -0.1636  0.0555  0.4057
11671TIP3    H156504   4.610   3.736  15.827  0.3417 -1.4652 -0.9243
11671TIP3    H256505   4.650   3.676  15.960 -0.6781 -3.0215 -1.2912
11672TIP3   OH256506   0.680   1.563  12.478 -0.0776 -0.1276  0.0302
11672TIP3    H156507   0.625   1.530  12.549 -0.2336  2.0056  0.9860
11672TIP3    H256508   0.690   1.656  12.497 -0.0752  0.5293 -2.7397
11673TIP3   OH256509   5.988   5.308   2.278  0.1286  0.2348 -0.1689
11673TIP3    H156510   5.952   5.219   2.283  0.1384  0.2923  1.2097
11673TIP3    H256511   6.055   5.303   2.210 -0.6620 -0.5241 -0.9148
11674TIP3   OH256512   6.321   2.984   1.937  0.2569  0.1486 -0.1185
11674TIP3    H156513   6.286   3.073   1.939  4.1895  1.9273 -0.3779
11674TIP3    H256514   6.393   2.985   2.000 -0.3373 -3.3118  0.8160
11675TIP3   OH256515   3.848   6.103   1.489  0.1737  0.1027  0.7454
11675TIP3    H156516   3.798   6.021   1.481 -0.8309  0.5686  1.8728
11675TIP3    H256517   3.933   6.083   1.450 -0.7262 -0.8518 -0.8393
11676TIP3   OH256518   1.587   3.778   3.858 -0.5056 -0.3755  0.4051
11676TIP3    H156519   1.641   3.706   3.825  1.3428  1.0265  0.2315
11676TIP3    H256520   1.515   3.784   3.795 -1.7381 -3.1808  1.3985
11677TIP3   OH256521   1.541   6.289  16.847 -0.0359 -0.1380 -0.1262
11677TIP3    H156522   1.593   6.270  16.925  1.5853  1.5026 -0.7315
11677TIP3    H256523   1.586   6.243  16.776  0.0296  0.4695 -0.4908
11678TIP3   OH256524   4.452   2.520   0.089  0.1738 -0.2255 -0.2112
11678TIP3    H156525   4.456   2.500  -0.005  1.3933 -0.3048 -0.1664
11678TIP3    H256526   4.362   2.549   0.104  0.1283  0.3809 -1.5258
11679TIP3   OH256527   3.924   4.084  10.992  0.2768 -0.0886 -0.7120
11679TIP3    H156528   3.912   4.068  10.899  1.6223 -3.7842 -0.4126
11679TIP3    H256529   3.888   4.006  11.035  0.1790  1.2586  1.8467
11680TIP3   OH256530   3.389   4.642  13.786 -0.7266  0.0576 -0.2880
11680TIP3    H156531   3.392   4.554  13.748  1.3166 -0.1900  0.3511
11680TIP3    H256532   3.468   4.684  13.755 -1.6598  1.6988 -0.5444
11681TIP3   OH256533   6.617   1.036  15.663 -0.0890  0.1947  0.0293
11681TIP3    H156534   6.541   1.074  15.706 -0.5529  0.6152 -1.1229
11681TIP3    H256535   6.585   0.955  15.625  0.4071 -0.3604  0.7655
11682TIP3   OH256536   2.502   4.972   0.078 -0.8345 -0.8178 -0.0437
11682TIP3    H156537   2.466   4.998   0.163 -2.1126 -1.7377 -0.2762
11682TIP3    H256538   2.494   4.876   0.077  2.3642 -1.1982  0.1836
11683TIP3   OH256539   1.629   3.953   0.740 -0.2990  0.4933  0.5380
11683TIP3    H156540   1.689   3.899   0.689 -2.1987 -1.9284  0.7376
11683TIP3    H256541   1.667   3.954   0.828  1.7405  2.7589 -0.2497
11684TIP3   OH256542   0.853   1.728  17.157  0.1877 -0.2797  0.8327
11684TIP3    H156543   0.885   1.674  17.085  0.5757  0.7072  0.2563
11684TIP3    H256544   0.869   1.674  17.235  1.1969 -0.7276  0.3370
11685TIP3   OH256545   4.564   5.774  10.864  0.0128  0.4046  0.1398
11685TIP3    H156546   4.598   5.863  10.867 -1.3720  0.9273  2.9253
11685TIP3    H256547   4.469   5.783  10.864 -0.1684 -1.0303  1.3998
11686TIP3   OH256548   5.245   4.936   1.993 -0.3771 -0.4510  0.0097
11686TIP3    H156549   5.171   4.898   2.041 -0.4937 -1.2423 -0.7583
11686TIP3    H256550   5.311   4.866   1.991  0.7154  0.4952  1.3255
11687TIP3   OH256551   4.624   6.530   6.199 -0.1337  0.2544  0.1477
11687TIP3    H156552   4.586   6.585   6.130 -4.1529 -1.2945  0.8572
11687TIP3    H256553   4.616   6.583   6.279 -1.4263 -0.2603  0.3816
11688TIP3   OH256554   5.523   3.360   2.968  0.6933 -0.0252 -0.0084
11688TIP3    H156555   5.504   3.447   2.932  2.4005  0.8747  1.0804
11688TIP3    H256556   5.557   3.310   2.893  1.5847  0.9181 -0.2681
11689TIP3   OH256557   5.078   1.973  13.645 -0.1031  0.7266 -0.0435
11689TIP3    H156558   5.013   1.940  13.707  0.6101  1.3874  1.1071
11689TIP3    H256559   5.029   2.031  13.587 -0.5922  1.0707  0.6871
11690TIP3   OH256560   2.666   1.708   5.330 -0.2870 -0.6717 -0.1671
11690TIP3    H156561   2.589   1.689   5.384 -0.6801  1.8400  0.2747
11690TIP3    H256562   2.741   1.690   5.386 -0.6632  0.4292  0.7182
11691TIP3   OH256563   0.114   1.518   0.830  0.3415  0.8847 -0.2502
11691TIP3    H156564   0.097   1.455   0.760 -0.7076  1.3104 -0.3993
11691TIP3    H256565   0.057   1.593   0.810  0.2016  1.1138  0.9241
11692TIP3   OH256566   0.032   5.189   6.392  0.3055  0.7303  0.1215
11692TIP3    H156567   0.004   5.223   6.477  2.4882  0.3690  1.0459
11692TIP3    H256568  -0.021   5.110   6.379  0.2979  0.5170  1.3727
11693TIP3   OH256569   6.717   4.892  10.893 -0.4669 -0.4840  0.1901
11693TIP3    H156570   6.662   4.965  10.865 -0.8124 -0.9537 -0.3931
11693TIP3    H256571   6.706   4.888  10.988  1.5544  1.8307  0.6262
11694TIP3   OH256572   1.465   3.004  11.194 -0.1617  0.2346 -0.3110
11694TIP3    H156573   1.417   3.055  11.128 -0.3890 -0.6503 -0.8452
11694TIP3    H256574   1.557   3.017  11.172 -0.1809  1.0274  0.0288
11695TIP3   OH256575   6.498   2.596  13.508  0.3207 -0.5120  0.3771
11695TIP3    H156576   6.404   2.581  13.496 -0.3945  3.0760  0.4553
11695TIP3    H256577   6.532   2.603  13.419 -0.1668  1.4169  0.3124
11696TIP3   OH256578   6.437   1.663  12.938 -0.0150  0.4336 -0.2292
11696TIP3    H156579   6.367   1.641  12.999  1.6665 -1.1921  1.2140
11696TIP3    H256580   6.497   1.717  12.989 -0.0862  1.6694 -1.3950
11697TIP3   OH256581   4.754   0.640  15.916  0.2205 -0.0490  0.1165
11697TIP3    H156582   4.737   0.709  15.980 -1.6984 -1.7329  1.5695
11697TIP3    H256583   4.725   0.676  15.832  1.1051  1.5772  0.4865
11698TIP3   OH256584   5.459   5.654   4.747  0.2868  0.0959 -0.1832
11698TIP3    H156585   5.502   5.583   4.701  0.6934 -0.1576  0.5740
11698TIP3    H256586   5.391   5.612   4.800 -3.3242  0.6991 -3.8089
11699TIP3   OH256587   5.445   3.129  16.081  0.0423 -0.2513  0.3362
11699TIP3    H156588   5.507   3.168  16.020  1.0939 -0.6494  1.1205
11699TIP3    H256589   5.469   3.036  16.084 -0.7157 -0.4521  0.5075
11700TIP3   OH256590   0.799   6.253  16.534  0.1234  0.0023 -0.2582
11700TIP3    H156591   0.748   6.203  16.598 -0.5936  1.5424  0.4360
11700TIP3    H256592   0.868   6.193  16.506 -0.4188 -1.2047  0.8766
11701TIP3   OH256593   1.038   0.365  13.701 -0.6891 -0.0076 -0.0549
11701TIP3    H156594   1.051   0.272  13.721  1.0308  0.2947  0.4084
11701TIP3    H256595   1.014   0.366  13.608  1.7038 -0.8293 -0.7724
11702TIP3   OH256596   4.271   4.349   4.088 -0.2357  0.9658  0.4930
11702TIP3    H156597   4.346   4.350   4.028 -1.3598  2.2671 -0.9773
11702TIP3    H256598   4.297   4.289   4.158  1.1770 -0.5855 -1.2392
11703TIP3   OH256599   3.246   4.045  12.733  0.4013  0.6094  0.5746
11703TIP3    H156600   3.335   4.081  12.733 -0.3983  2.7460  1.2869
11703TIP3    H256601   3.244   3.987  12.657  1.6213  2.6205 -1.0889
11704TIP3   OH256602   0.866   4.686   1.800  0.2555  0.0936 -0.0131
11704TIP3    H156603   0.928   4.694   1.727 -0.5367  2.3190 -0.5154
11704TIP3    H256604   0.780   4.680   1.758 -0.0830 -0.2409  0.7153
11705TIP3   OH256605   2.388   0.869  15.411 -0.3851  0.5377  0.0010
11705TIP3    H156606   2.352   0.782  15.428 -0.8395  0.8404  0.6348
11705TIP3    H256607   2.353   0.894  15.326 -0.9378  0.4442  0.1955
11706TIP3   OH256608   5.749   1.168   1.979 -0.2355 -0.2958  0.1761
11706TIP3    H156609   5.689   1.219   1.925 -0.5715 -0.1543  0.6756
11706TIP3    H256610   5.692   1.115   2.035  0.0825  0.5104  1.2950
11707TIP3   OH256611   2.316   2.695  11.210 -0.4359  0.0388 -0.0440
11707TIP3    H156612   2.384   2.629  11.195  0.7163  0.7644  1.6661
11707TIP3    H256613   2.325   2.755  11.136 -0.8500 -1.1492 -1.1031
11708TIP3   OH256614   6.171   1.247   1.087 -0.3993 -0.6517 -0.5494
11708TIP3    H156615   6.092   1.203   1.054 -1.6581  1.4081 -0.4962
11708TIP3    H256616   6.184   1.210   1.174 -1.7752 -0.5178 -0.2574
11709TIP3   OH256617   4.551   6.728  14.513 -0.0760 -0.3139 -0.1732
11709TIP3    H156618   4.599   6.797  14.467  0.5287 -0.8773 -0.3952
11709TIP3    H256619   4.524   6.769  14.595  3.9889 -0.9932  1.7220
11710TIP3   OH256620   6.695   1.985  17.479 -0.2035  0.4986  0.3204
11710TIP3    H156621   6.678   1.941  17.563  0.2157  1.9021  1.1692
11710TIP3    H256622   6.788   1.972  17.463  0.0691  1.6196  0.9176
11711TIP3   OH256623   2.491   5.145   0.815 -0.3513  0.2178 -0.1319
11711TIP3    H156624   2.556   5.160   0.884  0.1965 -1.5803 -0.2084
11711TIP3    H256625   2.525   5.191   0.739 -0.7372  1.8509  0.6361
11712TIP3   OH256626   1.058   6.368   5.335 -0.3935  0.0631  0.5779
11712TIP3    H156627   1.141   6.388   5.291 -1.8713  0.3018 -2.2978
11712TIP3    H256628   1.007   6.448   5.327 -1.8725 -0.9207 -0.1055
11713TIP3   OH256629   5.631   2.119   1.392  0.3928  0.3020  0.2942
11713TIP3    H156630   5.639   2.126   1.297 -1.8263 -2.8201 -0.2762
11713TIP3    H256631   5.690   2.186   1.426  1.3504  1.4750 -3.2476
11714TIP3   OH256632   0.434   2.167   0.419 -0.3688 -0.6951 -0.0213
11714TIP3    H156633   0.513   2.160   0.473  0.0212  0.7808 -0.3574
11714TIP3    H256634   0.365   2.192   0.480  0.1318  1.2746 -0.1818
11715TIP3   OH256635   5.928   0.139  11.711 -0.1827 -0.2298  0.3169
11715TIP3    H156636   5.989   0.212  11.698  0.6020 -0.8354  0.5237
11715TIP3    H256637   5.876   0.138  11.631  0.5436 -0.1313 -0.1681
11716TIP3   OH256638   0.968   1.488   2.657 -0.1181 -0.1954  0.0349
11716TIP3    H156639   1.005   1.528   2.735  1.0226 -1.2625  0.0765
11716TIP3    H256640   1.038   1.430   2.625  0.1174  1.4406 -2.7261
11717TIP3   OH256641   6.766   6.363   6.358 -0.1394  0.9198  0.0519
11717TIP3    H156642   6.795   6.379   6.269 -0.7232 -0.7367 -0.4844
11717TIP3    H256643   6.844   6.331   6.403 -0.4746 -1.1473 -0.7224
11718TIP3   OH256644   3.880   2.202  15.264 -0.4298  0.1586  0.1201
11718TIP3    H156645   3.954   2.235  15.314  1.0206 -1.5721 -0.7792
11718TIP3    H256646   3.880   2.254  15.184  0.9876 -0.9816 -0.6741
11719TIP3   OH256647   2.318   1.008   2.084  0.3286 -0.8162 -0.0533
11719TIP3    H156648   2.307   0.949   2.009  1.7388 -1.4781  0.2379
11719TIP3    H256649   2.234   1.055   2.090 -0.1175 -1.3830 -1.4910
11720TIP3   OH256650   5.873   3.484  10.944 -0.2786  0.2343  0.4490
11720TIP3    H156651   5.799   3.545  10.948 -2.6123 -2.4461  2.1674
11720TIP3    H256652   5.935   3.518  11.008 -1.5459  0.8096  1.4223
11721TIP3   OH256653   2.244   5.891   0.557  0.0949 -0.1982  0.3334
11721TIP3    H156654   2.244   5.855   0.468  3.1619 -1.0151  0.5286
11721TIP3    H256655   2.229   5.985   0.545  0.7839 -0.2371 -1.1152
11722TIP3   OH256656   5.718   0.585   1.635  0.1937 -0.0200 -0.2244
11722TIP3    H156657   5.752   0.541   1.712  0.8883 -0.4379 -0.7599
11722TIP3    H256658   5.631   0.546   1.622 -0.0140  0.2012  0.4521
11723TIP3   OH256659   6.107   2.360  12.739  0.0243  0.2252  0.1364
11723TIP3    H156660   6.081   2.358  12.831  0.6125  1.5666  0.3557
11723TIP3    H256661   6.027   2.336  12.691 -0.4240  0.0203  0.9702
11724TIP3   OH256662   3.534   5.981  17.238 -0.7341 -0.1799  0.3967
11724TIP3    H156663   3.622   6.014  17.217 -0.4857 -1.0651  0.0278
11724TIP3    H256664   3.478   6.059  17.232 -0.0730  0.2863  0.0617
11725TIP3   OH256665   0.114   3.204   4.226  0.3775  0.2371 -0.0928
11725TIP3    H156666   0.110   3.144   4.152 -0.8949  0.3911 -0.1682
11725TIP3    H256667   0.160   3.281   4.192  0.1919  0.1272 -0.5936
11726TIP3   OH256668   2.676   4.022  15.277 -0.2468 -0.3667  0.1367
11726TIP3    H156669   2.688   4.010  15.371 -0.7434 -0.8003  0.1519
11726TIP3    H256670   2.761   3.997  15.239  0.2722  0.7550  0.5318
11727TIP3   OH256671   4.039   1.512   5.396  0.0133 -1.4830 -0.0520
11727TIP3    H156672   4.003   1.576   5.335 -1.8650 -1.1400  1.3240
11727TIP3    H256673   3.976   1.510   5.468  3.1133 -0.2635  2.9620
11728TIP3   OH256674   3.175   0.785   4.039 -0.0775 -0.6981  0.4771
11728TIP3    H156675   3.137   0.873   4.046 -0.6942 -1.0248  1.3365
11728TIP3    H256676   3.246   0.795   3.976  1.1876  0.8764  2.0710
11729TIP3   OH256677   0.465   6.540  13.741 -0.1218  0.1106 -0.2921
11729TIP3    H156678   0.466   6.472  13.808 -0.0485  0.3970  0.0023
11729TIP3    H256679   0.555   6.544  13.709 -0.0183  0.3899  0.0243
11730TIP3   OH256680   5.787   2.307  15.333  0.4178 -0.0450 -0.0224
11730TIP3    H156681   5.771   2.377  15.270  3.6193  0.1586 -0.7958
11730TIP3    H256682   5.787   2.227  15.280 -1.6340 -0.5265  0.6013
11731TIP3   OH256683   1.932   5.462  10.671 -0.0935  0.0545  0.1868
11731TIP3    H156684   2.010   5.518  10.675 -0.7496  0.9491  0.8377
11731TIP3    H256685   1.958   5.382  10.716  0.4675  0.3306  0.3629
11732TIP3   OH256686   4.360   3.479   5.636  0.3127  0.7981 -0.1390
11732TIP3    H156687   4.279   3.428   5.650 -0.8805  2.8250  0.7517
11732TIP3    H256688   4.334   3.570   5.651  2.1710  1.8171 -2.4585
11733TIP3   OH256689   4.508   0.684  15.413  0.0899  0.5536 -0.2765
11733TIP3    H156690   4.449   0.759  15.425  1.2141  1.1914  1.8847
11733TIP3    H256691   4.542   0.666  15.501 -0.3985 -2.7718 -0.6576
11734TIP3   OH256692   2.080   4.399   2.867 -0.0207 -0.9029 -0.0428
11734TIP3    H156693   2.098   4.372   2.958  0.3160 -1.2216 -0.2000
11734TIP3    H256694   2.156   4.369   2.818 -0.5930 -1.5075 -0.5822
11735TIP3   OH256695   4.804   1.001  15.251 -0.7327 -0.0798 -0.3212
11735TIP3    H156696   4.839   1.038  15.170 -0.2792  1.7429  0.6742
11735TIP3    H256697   4.878   0.998  15.311 -1.3777 -0.0149  0.5077
11736TIP3   OH256698   1.162   4.024  17.450 -0.0883  0.0294 -0.3556
11736TIP3    H156699   1.080   4.074  17.457 -0.2118 -0.2418  0.2040
11736TIP3    H256700   1.135   3.934  17.437 -0.1913 -1.1660  5.3607
11737TIP3   OH256701   6.302   4.446   5.927 -0.0926  0.0177 -0.3935
11737TIP3    H156702   6.249   4.515   5.887 -0.2399  0.2268  0.1599
11737TIP3    H256703   6.316   4.475   6.017 -0.1612 -0.6782 -0.1554
11738TIP3   OH256704   0.499   5.709   3.788 -0.5955  0.0159 -0.1758
11738TIP3    H156705   0.406   5.707   3.813 -0.4340  0.3594  0.4828
11738TIP3    H256706   0.525   5.618   3.785 -0.8715 -0.0700 -0.0263
11739TIP3   OH256707   2.385   0.730   2.293  0.4784 -0.5252  0.7654
11739TIP3    H156708   2.418   0.813   2.258 -1.2615  1.1904  2.8975
11739TIP3    H256709   2.295   0.724   2.259  0.7482 -1.8307  0.2241
11740TIP3   OH256710   5.398   3.283   2.183 -0.0409  0.3670  0.0913
11740TIP3    H156711   5.449   3.222   2.237  0.4920  0.2747 -0.5081
11740TIP3    H256712   5.328   3.229   2.147 -0.0731  0.3030  0.2480
11741TIP3   OH256713   1.876   4.171  15.300 -0.1156 -0.0639 -0.3359
11741TIP3    H156714   1.908   4.095  15.349 -0.6388 -0.3015 -0.3574
11741TIP3    H256715   1.782   4.157  15.293 -0.8933  2.3307  2.8356
11742TIP3   OH256716   1.470   6.564  14.712 -0.8129  0.6636  0.0308
11742TIP3    H156717   1.466   6.573  14.808 -1.8518  2.4387 -0.1260
11742TIP3    H256718   1.381   6.542  14.686 -0.2709 -1.0497 -0.4608
11743TIP3   OH256719   2.947   5.259  13.143  0.1357 -0.3950  0.2729
11743TIP3    H156720   2.997   5.254  13.225 -0.2696  1.9026  0.7267
11743TIP3    H256721   2.978   5.185  13.092  3.0014  0.1148  1.0900
11744TIP3   OH256722   4.209   0.327  17.011  0.1361  0.2054  0.4028
11744TIP3    H156723   4.181   0.251  16.961  0.1221  0.5110 -0.0558
11744TIP3    H256724   4.191   0.402  16.954  2.4439  0.3891 -0.1850
11745TIP3   OH256725   6.749   6.437   3.154 -0.1992  0.4864  0.1902
11745TIP3    H156726   6.784   6.349   3.166 -0.3294  0.4047 -0.0336
11745TIP3    H256727   6.737   6.470   3.243 -0.1064  0.2962  0.2731
11746TIP3   OH256728   2.808   3.525  16.267  0.4082  0.5089  0.1543
11746TIP3    H156729   2.793   3.528  16.173  1.6584 -0.2647 -0.0879
11746TIP3    H256730   2.871   3.594  16.284  2.9152 -1.5624 -0.1676
11747TIP3   OH256731   4.171   6.064  13.310 -0.2004  0.0904  0.2862
11747TIP3    H156732   4.149   6.001  13.379 -3.0121 -0.8104 -1.2438
11747TIP3    H256733   4.143   6.148  13.344 -2.3447 -0.4618  0.0227
11748TIP3   OH256734   6.255   3.661   1.529  0.0380  0.1031 -0.4048
11748TIP3    H156735   6.316   3.635   1.598 -0.7468 -0.4303  0.1033
11748TIP3    H256736   6.234   3.752   1.550  3.7129  1.7744 -2.8608
11749TIP3   OH256737   3.335   2.336   6.935 -0.4161  0.0315 -1.0074
11749TIP3    H156738   3.306   2.265   6.878 -1.0939 -0.3036 -0.2633
11749TIP3    H256739   3.263   2.348   6.997  0.4332  0.1495 -0.0039
11750TIP3   OH256740   2.057   1.209   1.833  0.1974 -0.4250 -0.1861
11750TIP3    H156741   2.099   1.251   1.758  1.2108 -0.0895  0.5447
11750TIP3    H256742   1.965   1.201   1.808  0.5896 -0.6865 -1.6147
11751TIP3   OH256743   1.721   2.300   3.819 -0.5529  0.3692  0.2486
11751TIP3    H156744   1.674   2.218   3.801  0.1738 -0.0621  0.2540
11751TIP3    H256745   1.758   2.326   3.735 -0.8023  0.7071  0.2426
11752TIP3   OH256746   5.040   0.211   6.775  0.2278 -0.1054  0.0722
11752TIP3    H156747   4.954   0.230   6.736  1.1962  0.9846 -1.6770
11752TIP3    H256748   5.053   0.117   6.759 -0.5562 -0.2475  0.2194
11753TIP3   OH256749   6.564   1.021  13.251 -0.5414  0.4628 -0.5666
11753TIP3    H156750   6.564   0.933  13.288 -0.5652  0.4541 -0.5875
11753TIP3    H256751   6.475   1.035  13.220 -0.2490  0.0432 -1.6508
11754TIP3   OH256752   5.412   0.260   0.650 -0.5768  0.3417  0.2732
11754TIP3    H156753   5.328   0.305   0.651 -0.0906  1.3341 -0.6599
11754TIP3    H256754   5.476   0.331   0.640  0.5094 -0.2283  2.7203
11755TIP3   OH256755   1.516   0.280   3.805 -0.2492  0.5081 -0.4230
11755TIP3    H156756   1.469   0.269   3.887 -0.0353  0.1980 -0.3401
11755TIP3    H256757   1.474   0.219   3.744 -0.7928  1.1618 -0.7135
11756TIP3   OH256758   6.639   1.099  12.464 -0.5934 -0.8822 -0.5849
11756TIP3    H156759   6.597   1.184  12.450  0.0193 -0.4547  0.0974
11756TIP3    H256760   6.729   1.113  12.434 -0.5574 -1.3761 -0.7134
11757TIP3   OH256761   6.596   5.663  15.895  0.0840  0.6127  0.3943
11757TIP3    H156762   6.666   5.726  15.879  1.4235 -1.0371 -0.5783
11757TIP3    H256763   6.636   5.578  15.877 -2.0050 -0.4355  0.4232
11758TIP3   OH256764   4.344   4.005   0.519 -0.4337  0.5291  0.0039
11758TIP3    H156765   4.402   3.994   0.594  0.9103  0.0651 -1.0751
11758TIP3    H256766   4.266   4.048   0.556 -0.9586 -2.0121  2.1775
11759TIP3   OH256767   5.311   4.519   0.242  0.2450  0.4636  0.3666
11759TIP3    H156768   5.358   4.601   0.225  1.9903 -0.5235  0.1366
11759TIP3    H256769   5.329   4.499   0.333 -1.0740  0.8429  0.7358
11760TIP3   OH256770   5.201   1.899   0.453  0.1027 -0.7319  0.4190
11760TIP3    H156771   5.142   1.825   0.440 -0.9619  0.0389  0.6526
11760TIP3    H256772   5.164   1.946   0.527  1.1524 -0.3391  0.7085
11761TIP3   OH256773   3.830   4.991  14.117 -0.2714 -0.3773  0.2625
11761TIP3    H156774   3.809   5.071  14.165 -2.6748  0.2084 -1.5544
11761TIP3    H256775   3.856   4.929  14.185 -0.1958  1.3790  1.9198
11762TIP3   OH256776   1.528   4.430   1.466  0.0623 -0.3921 -0.2244
11762TIP3    H156777   1.448   4.481   1.452  0.7209  1.2459  1.5933
11762TIP3    H256778   1.599   4.489   1.443  0.8549 -0.3136  2.1460
11763TIP3   OH256779   1.432   3.035  11.526 -0.2200 -0.0654  0.2990
11763TIP3    H156780   1.466   3.122  11.546 -1.3668  0.3486  0.5657
11763TIP3    H256781   1.339   3.040  11.550 -0.4198 -1.2051 -0.1667
11764TIP3   OH256782   1.083   3.623  11.690  0.1533 -0.4228 -0.2005
11764TIP3    H156783   1.091   3.583  11.603  0.1706 -0.6375 -0.1004
11764TIP3    H256784   1.069   3.716  11.672 -2.1500 -0.7772 -0.4887
11765TIP3   OH256785   1.125   3.560   2.964  0.2357  0.2061  0.4172
11765TIP3    H156786   1.048   3.601   2.924  0.1610  0.6751  1.0302
11765TIP3    H256787   1.196   3.576   2.902 -0.1369 -0.1637 -0.1164
11766TIP3   OH256788   0.198   4.371  13.763  0.0772  0.3398  0.2486
11766TIP3    H156789   0.104   4.367  13.778 -0.4004  0.9833 -2.1524
11766TIP3    H256790   0.227   4.279  13.764 -0.8159  0.0416 -0.2012
11767TIP3   OH256791   2.896   6.672  12.620  0.4670  0.0112 -0.5312
11767TIP3    H156792   2.812   6.656  12.662  0.5462  0.0725 -0.3501
11767TIP3    H256793   2.917   6.763  12.641  0.6817 -0.0699 -0.3927
11768TIP3   OH256794   6.088   0.358  13.444  0.2613  0.0030 -0.0893
11768TIP3    H156795   6.152   0.288  13.460  1.4736  0.7450 -1.4032
11768TIP3    H256796   6.137   0.423  13.394 -1.0290  1.4967  0.5377
11769TIP3   OH256797   1.186   6.678   3.512  0.0773 -0.5022 -1.0217
11769TIP3    H156798   1.199   6.584   3.521 -1.8516 -0.7418 -0.2563
11769TIP3    H256799   1.117   6.687   3.447 -0.8732  0.2853  0.0533
11770TIP3   OH256800   2.894   2.376  14.930 -0.3627  0.4466 -0.3252
11770TIP3    H156801   2.981   2.392  14.966  0.6448 -0.8767 -2.0185
11770TIP3    H256802   2.846   2.334  15.000  1.2476 -1.2676 -0.1739
11771TIP3   OH256803   3.291   4.328   6.001 -1.0644 -0.2901 -0.2545
11771TIP3    H156804   3.368   4.385   5.998 -1.8202  0.7484 -0.2953
11771TIP3    H256805   3.312   4.264   6.070 -0.5995  0.6118  0.4653
11772TIP3   OH256806   1.018   4.528   4.283 -0.2656 -0.0532 -0.4795
11772TIP3    H156807   1.006   4.566   4.370  0.0308 -1.0929  0.0306
11772TIP3    H256808   0.958   4.453   4.282 -0.7365  0.3211 -1.4121
11773TIP3   OH256809   3.869   0.338  11.906 -0.1013  0.1386 -0.0658
11773TIP3    H156810   3.820   0.257  11.895  0.3006  0.1469 -2.3986
11773TIP3    H256811   3.832   0.398  11.842  0.9014  1.1770  0.2765
11774TIP3   OH256812   0.024   0.954   2.709  0.3155  0.1248  0.0600
11774TIP3    H156813  -0.007   0.953   2.800  0.9601  0.8532  0.2948
11774TIP3    H256814  -0.003   1.039   2.676 -1.6072 -0.8345 -1.0609
11775TIP3   OH256815   1.787   5.233   1.298  0.4418  0.4275 -0.2255
11775TIP3    H156816   1.805   5.161   1.237  0.9040  0.1098  0.2753
11775TIP3    H256817   1.692   5.240   1.299  0.2817 -1.2240  0.9004
11776TIP3   OH256818   1.517   1.042  13.206 -0.5058 -0.3898 -0.1122
11776TIP3    H156819   1.562   1.120  13.174 -1.9221  0.6471  0.2973
11776TIP3    H256820   1.584   0.995  13.255  0.3767  0.5945 -0.3136
11777TIP3   OH256821   4.867   1.596  12.001 -0.2871 -0.0856  0.1282
11777TIP3    H156822   4.858   1.505  11.975  0.2503  0.2050 -1.1227
11777TIP3    H256823   4.928   1.594  12.075 -0.4538 -0.7476  0.2532
11778TIP3   OH256824   0.844   5.196  13.616 -0.4089  0.5006  0.1278
11778TIP3    H156825   0.903   5.159  13.681 -0.7845 -0.5802 -0.1293
11778TIP3    H256826   0.824   5.284  13.649  1.0521  0.7561  0.3860
11779TIP3   OH256827   2.889   1.789   2.677  0.4200  0.1664 -0.0653
11779TIP3    H156828   2.843   1.748   2.751 -0.3291  0.1756 -0.5153
11779TIP3    H256829   2.831   1.775   2.602 -0.7402  3.4815  0.0260
11780TIP3   OH256830   1.740   4.149   1.222 -0.2724 -0.3342  0.2028
11780TIP3    H156831   1.691   4.072   1.194  0.1517 -0.6868  0.4233
11780TIP3    H256832   1.730   4.211   1.150 -0.5630 -0.6173 -0.0042
11781TIP3   OH256833   6.389   4.685  15.406  0.3154  0.3461  0.0647
11781TIP3    H156834   6.309   4.736  15.391  0.7052  0.1257 -3.7799
11781TIP3    H256835   6.438   4.694  15.324  4.3073  0.4893  2.2456
11782TIP3   OH256836   4.759   3.298   5.570  0.0047  0.0285  1.0800
11782TIP3    H156837   4.839   3.330   5.611  1.4246 -0.9802 -0.7237
11782TIP3    H256838   4.745   3.357   5.496 -1.3483  0.6266  1.7975
11783TIP3   OH256839   6.719   4.706  16.462 -0.2986 -0.3028 -0.3478
11783TIP3    H156840   6.773   4.741  16.391  1.4702 -1.7262  0.2339
11783TIP3    H256841   6.705   4.614  16.438  1.7705 -1.2895  1.9037
11784TIP3   OH256842   3.594   1.889   4.176  0.2034  0.9449  0.6802
11784TIP3    H156843   3.616   1.981   4.191 -1.9499  1.7278 -0.5363
11784TIP3    H256844   3.566   1.857   4.262 -1.0997  2.0639  0.6928
11785TIP3   OH256845   0.042   0.441   3.262  0.2432 -0.4200  0.2312
11785TIP3    H156846  -0.049   0.436   3.232  0.3637 -0.4385 -0.1417
11785TIP3    H256847   0.093   0.422   3.183  0.5656 -0.5482  0.4744
11786TIP3   OH256848   5.196   3.735   2.788  0.2986  0.3140  0.3421
11786TIP3    H156849   5.190   3.639   2.787  0.1736  0.2984 -1.4539
11786TIP3    H256850   5.148   3.761   2.866 -1.2372 -1.0280 -0.0815
11787TIP3   OH256851   0.043   1.222  16.406  0.0725  0.1715 -0.1172
11787TIP3    H156852   0.031   1.226  16.501 -3.2695 -1.5985 -0.3072
11787TIP3    H256853   0.042   1.313  16.378 -1.3310  0.6681  1.3866
11788TIP3   OH256854   0.212   6.232   0.924  0.4755 -0.4594 -0.1433
11788TIP3    H156855   0.243   6.238   0.834  0.8544  1.0001  0.0571
11788TIP3    H256856   0.120   6.257   0.920  0.6358  0.1403 -0.0462
11789TIP3   OH256857   1.742   6.579   1.003  0.5707 -0.7376 -0.1317
11789TIP3    H156858   1.817   6.566   1.062 -0.0688 -0.8791  0.6732
11789TIP3    H256859   1.754   6.667   0.968 -0.0015  0.1216  1.6855
11790TIP3   OH256860   0.125   4.894  13.868  0.1286 -0.5237  0.3017
11790TIP3    H156861   0.147   4.802  13.880  0.1089 -0.4928  0.5770
11790TIP3    H256862   0.117   4.904  13.773 -0.1753 -0.8747  0.2877
11791TIP3   OH256863   5.414   2.103   1.799 -0.3786 -0.1168  0.5174
11791TIP3    H156864   5.434   2.110   1.892  0.6842 -0.2590  0.3169
11791TIP3    H256865   5.400   2.009   1.784 -0.8094 -0.0655  0.5740
11792TIP3   OH256866   4.928   3.547  15.548 -0.7748 -0.3349  0.0914
11792TIP3    H156867   4.892   3.468  15.589 -0.7852 -0.5531 -0.3262
11792TIP3    H256868   4.989   3.514  15.482 -1.1622 -0.0147 -0.4420
11793TIP3   OH256869   4.807   0.293   4.089 -0.4128 -0.6157  0.1543
11793TIP3    H156870   4.729   0.294   4.033 -0.2517  0.5595 -0.0872
11793TIP3    H256871   4.851   0.211   4.068 -2.0748 -1.7826  1.0117
11794TIP3   OH256872   3.023   1.863   0.442 -0.3372 -0.0954 -0.3121
11794TIP3    H156873   3.020   1.937   0.503  0.9986  0.6657 -1.1155
11794TIP3    H256874   3.045   1.787   0.497  0.0119  0.4228  0.2709
11795TIP3   OH256875   3.365   5.341   2.988 -0.0029  0.3338 -0.0771
11795TIP3    H156876   3.388   5.383   3.071 -0.0975  0.5657 -0.1675
11795TIP3    H256877   3.271   5.353   2.980  0.0150  0.3620 -0.2474
11796TIP3   OH256878   2.109   5.209   0.829 -0.0106 -0.3576  0.0120
11796TIP3    H156879   2.180   5.228   0.890  1.5381 -0.8366 -1.5366
11796TIP3    H256880   2.111   5.113   0.819 -1.2457 -0.4295  0.3557
11797TIP3   OH256881   6.217   3.326  14.972 -0.2631  0.0492  0.8334
11797TIP3    H156882   6.130   3.308  15.006 -0.1151 -2.1261  0.2501
11797TIP3    H256883   6.203   3.386  14.899 -1.2482 -0.0881  0.8962
11798TIP3   OH256884   4.232   3.979  13.792 -0.4833  0.2523 -0.3312
11798TIP3    H156885   4.177   4.020  13.726  1.2677  2.9078 -0.2560
11798TIP3    H256886   4.320   3.977  13.753 -0.0239 -1.1910  0.6782
11799TIP3   OH256887   3.929   1.675   5.204 -0.1753 -0.1749 -0.9002
11799TIP3    H156888   3.906   1.753   5.152 -1.7599 -0.0753 -0.1234
11799TIP3    H256889   3.845   1.645   5.240  0.8324 -0.2396  1.5979
11800TIP3   OH256890   4.939   3.944  11.001 -0.2328  0.6560  0.5326
11800TIP3    H156891   4.857   3.915  11.040 -0.6522  1.9453  0.6764
11800TIP3    H256892   4.938   4.039  11.014  1.6507  0.6106  1.2353
11801TIP3   OH256893   5.840   4.673   3.524 -0.0748  0.1752 -0.5420
11801TIP3    H156894   5.906   4.679   3.593  0.7905  0.9441 -1.4026
11801TIP3    H256895   5.835   4.580   3.502  0.4722  0.0709 -0.2291
11802TIP3   OH256896   1.577   2.070  12.444  0.0386 -0.7279 -0.4170
11802TIP3    H156897   1.518   2.105  12.377  0.2789 -0.1426 -0.3340
11802TIP3    H256898   1.663   2.105  12.421  0.3726 -1.6337 -0.5757
11803TIP3   OH256899   5.772   5.086  11.552  0.4527 -0.3038  0.5293
11803TIP3    H156900   5.787   5.142  11.628  0.4651 -1.1985  1.2011
11803TIP3    H256901   5.763   5.147  11.478  3.0891  0.5231  0.7728
11804TIP3   OH256902   5.958   1.965  11.378 -0.2800 -0.2973  0.4195
11804TIP3    H156903   5.928   2.016  11.302 -0.2018  0.6946  1.0449
11804TIP3    H256904   5.896   1.986  11.447 -0.9433 -1.9631  0.3910
11805TIP3   OH256905   3.504   0.399   0.305  0.3336  0.6416 -0.4922
11805TIP3    H156906   3.444   0.471   0.286  0.6232  0.8007 -0.8197
11805TIP3    H256907   3.585   0.442   0.332 -0.0815  0.4256  1.2201
11806TIP3   OH256908   1.260   5.596  14.465  0.0121  0.5367  0.3427
11806TIP3    H156909   1.279   5.517  14.416  2.7974  0.9503  0.6145
11806TIP3    H256910   1.213   5.652  14.403 -1.5421 -1.0581 -0.0029
11807TIP3   OH256911   2.370   0.036   0.422  0.3829 -0.6677  0.6966
11807TIP3    H156912   2.415  -0.040   0.384 -0.3467 -0.7931  0.0443
11807TIP3    H256913   2.284   0.002   0.448 -0.1517  0.0371 -0.0792
11808TIP3   OH256914   0.192   0.811  14.098 -0.4410 -0.3204  0.1755
11808TIP3    H156915   0.230   0.859  14.172 -0.7151  1.3468 -0.6925
11808TIP3    H256916   0.263   0.754  14.068 -0.1354 -0.5770  1.3286
11809TIP3   OH256917   2.643   1.647  15.541  0.2880 -0.2543  0.2010
11809TIP3    H156918   2.708   1.673  15.606  1.6330  3.0195 -2.1549
11809TIP3    H256919   2.571   1.709  15.554 -0.3035 -0.8580 -0.1750
11810TIP3   OH256920   3.817   0.407   2.679  0.0364  0.6703 -0.2856
11810TIP3    H156921   3.827   0.325   2.728  1.0782  0.7248 -0.4060
11810TIP3    H256922   3.722   0.421   2.678 -0.3622 -1.5740 -1.9810
11811TIP3   OH256923   6.333   5.479   0.019  0.2033 -0.0559 -0.8867
11811TIP3    H156924   6.305   5.388   0.023 -1.9029  0.5601  1.2771
11811TIP3    H256925   6.338   5.499  -0.074 -1.4686 -1.8011 -1.4063
11812TIP3   OH256926   4.157   0.421   2.735 -0.1191  0.4890  0.1804
11812TIP3    H156927   4.129   0.437   2.645 -1.3070  2.4631  0.8225
11812TIP3    H256928   4.211   0.497   2.757  0.8380 -0.3763  0.8822
11813TIP3   OH256929   3.916   5.404  14.649  0.2542 -1.0720  0.1691
11813TIP3    H156930   3.915   5.423  14.555 -3.7761  1.9189  0.5301
11813TIP3    H256931   3.978   5.467  14.686  1.1161 -1.5922 -0.3712
11814TIP3   OH256932   4.309   0.426   1.820 -0.1623  0.0941  0.4663
11814TIP3    H156933   4.403   0.439   1.831 -0.3079  1.2345  0.5217
11814TIP3    H256934   4.276   0.417   1.910 -0.0556 -0.7525  0.4256
11815TIP3   OH256935   3.737   4.484  16.081  0.7093 -0.2132 -0.5108
11815TIP3    H156936   3.662   4.535  16.113  2.0592  2.4971 -1.3646
11815TIP3    H256937   3.812   4.517  16.130  1.7102 -1.1707 -1.3423
11816TIP3   OH256938   2.610   6.343   3.204 -0.1651  0.0379  0.0429
11816TIP3    H156939   2.630   6.306   3.118  1.1922  1.6770 -0.4001
11816TIP3    H256940   2.533   6.398   3.188  0.6714  1.1143 -0.3701
11817TIP3   OH256941   4.910   1.691   0.987  0.0734 -1.0553 -0.5073
11817TIP3    H156942   4.865   1.774   1.002  1.4035 -0.3043 -0.5167
11817TIP3    H256943   4.920   1.653   1.074 -0.4801 -1.1805 -0.4958
11818TIP3   OH256944   6.125   4.020  14.134  0.1577  0.0418  0.8192
11818TIP3    H156945   6.185   3.947  14.124  0.5302  0.5713 -1.3937
11818TIP3    H256946   6.038   3.980  14.131  0.2760 -0.2679 -2.4959
11819TIP3   OH256947   4.458   2.633  11.976  0.2512  0.1825 -0.3172
11819TIP3    H156948   4.472   2.614  12.069 -0.1364  0.4532 -0.2028
11819TIP3    H256949   4.380   2.687  11.974 -0.3258 -0.6410 -0.8890
11820TIP3   OH256950   4.622   5.932   6.498 -0.6396  0.1093 -0.6857
11820TIP3    H156951   4.632   5.958   6.589 -2.7659  1.0028 -0.6627
11820TIP3    H256952   4.656   6.007   6.448  0.5482 -0.3909 -0.6548
11821TIP3   OH256953   4.176   1.419  14.592  0.3829  0.4087 -0.0173
11821TIP3    H156954   4.142   1.424  14.503  1.6370  0.7332 -0.4956
11821TIP3    H256955   4.174   1.509  14.624 -0.1554  0.2782  0.3181
11822TIP3   OH256956   1.242   4.897   2.863  0.2532 -0.1549  0.3069
11822TIP3    H156957   1.156   4.901   2.904  1.0062 -0.4069  1.9787
11822TIP3    H256958   1.235   4.826   2.800 -0.8030 -0.0614  0.2929
11823TIP3   OH256959   0.870   2.342   2.403  0.4733  0.1041  0.9119
11823TIP3    H156960   0.895   2.351   2.311  0.0967  1.2026  0.9023
11823TIP3    H256961   0.888   2.428   2.441  1.4436 -0.5785  2.0823
11824TIP3   OH256962   0.721   4.587   4.591 -0.0520 -0.1151 -0.2952
11824TIP3    H156963   0.670   4.507   4.604 -0.2191 -0.0299 -0.4195
11824TIP3    H256964   0.656   4.652   4.564  0.2880 -0.2891 -1.6030
11825TIP3   OH256965   0.297   4.130   3.504 -0.3822 -0.1401  0.0594
11825TIP3    H156966   0.385   4.105   3.532 -0.3936 -0.3482 -0.0843
11825TIP3    H256967   0.290   4.095   3.415 -1.0036 -1.0665  0.4606
11826TIP3   OH256968   2.171   2.496   4.233  0.0406  0.2495  0.2694
11826TIP3    H156969   2.094   2.492   4.289  0.3380 -2.5206  0.6276
11826TIP3    H256970   2.238   2.448   4.281  1.4724  1.0729 -0.8218
11827TIP3   OH256971   6.637   1.547  11.677  0.6737 -0.1287 -0.3059
11827TIP3    H156972   6.696   1.497  11.620  1.1107  0.3257 -0.2548
11827TIP3    H256973   6.569   1.484  11.702  1.8755 -1.0600  0.7524
11828TIP3   OH256974   1.136   4.767   3.550 -0.4028 -0.6570  0.5060
11828TIP3    H156975   1.165   4.725   3.470 -1.8342 -1.2742  0.2740
11828TIP3    H256976   1.161   4.706   3.620 -1.0280 -1.1438  0.3173
11829TIP3   OH256977   4.427   2.721  13.453 -0.1638  0.1509 -0.3153
11829TIP3    H156978   4.417   2.746  13.545 -1.7301  0.5442 -0.5663
11829TIP3    H256979   4.361   2.653  13.439  0.4868 -0.3485 -0.9947
11830TIP3   OH256980   0.412   3.378  12.820 -0.0118  0.2185 -0.2087
11830TIP3    H156981   0.463   3.340  12.748 -0.9753 -0.6698 -0.4450
11830TIP3    H256982   0.361   3.305  12.855  1.6428  0.2461  2.5066
11831TIP3   OH256983   0.923   2.198  15.510  0.3211 -0.0570 -0.1167
11831TIP3    H156984   0.921   2.253  15.588  1.4170  0.5244 -0.4621
11831TIP3    H256985   0.840   2.152  15.510  0.1305  0.2466  1.1648
11832TIP3   OH256986   5.663   5.706   1.471  0.2818  0.5138 -0.1887
11832TIP3    H156987   5.756   5.684   1.465  0.7035  1.4679  1.9333
11832TIP3    H256988   5.644   5.751   1.389  1.8182  0.7551 -0.4491
11833TIP3   OH256989   5.237   5.856   2.719  0.0087  0.6314 -0.5741
11833TIP3    H156990   5.158   5.842   2.668  1.1013 -3.6507 -1.5285
11833TIP3    H256991   5.221   5.809   2.801  1.1606  0.5308 -0.3797
11834TIP3   OH256992   2.556   3.412  14.471  0.6083  0.0894 -0.1971
11834TIP3    H156993   2.591   3.484  14.419  0.9381  0.2221  0.1978
11834TIP3    H256994   2.473   3.446  14.506  0.6770  0.2158 -0.1558
11835TIP3   OH256995   2.828   3.079  11.998  0.1425 -0.2318  0.1672
11835TIP3    H156996   2.758   3.066  12.062  0.4181 -1.7156  0.2030
11835TIP3    H256997   2.909   3.074  12.049  0.3259 -0.3247 -0.1258
11836TIP3   OH256998   4.053   1.436   5.062  0.2416 -0.3958  0.0596
11836TIP3    H156999   4.060   1.531   5.052 -3.3421 -0.0653 -0.7976
11836TIP3    H257000   4.039   1.403   4.974 -0.5677 -1.4460  0.5479
11837TIP3   OH257001   1.143   6.557  15.628 -0.1366 -0.7749 -0.3431
11837TIP3    H157002   1.110   6.636  15.670 -0.8741 -1.2778  0.0485
11837TIP3    H257003   1.232   6.579  15.602 -0.0267 -0.1131  0.5611
11838TIP3   OH257004   2.300   1.311   6.069 -0.3912  0.4881 -0.2427
11838TIP3    H157005   2.361   1.339   6.000  0.6442  2.0982  1.2255
11838TIP3    H257006   2.220   1.361   6.051 -0.4186  0.2621 -0.7602
11839TIP3   OH257007   1.902   1.242  15.320 -0.1163 -0.0439  0.5493
11839TIP3    H157008   1.991   1.208  15.328 -0.2695 -0.3349  1.0873
11839TIP3    H257009   1.868   1.203  15.240  0.1828 -0.0675  0.4331
11840TIP3   OH257010   2.940   4.372   5.150  0.0975  0.1370 -0.3107
11840TIP3    H157011   2.887   4.294   5.136 -1.5383  0.4502  3.1669
11840TIP3    H257012   3.030   4.339   5.153 -0.4866 -1.5023  0.2482
11841TIP3   OH257013   6.326   5.058  12.658  0.6469  0.2494  0.0926
11841TIP3    H157014   6.341   5.087  12.747 -0.3998 -0.7276  0.6110
11841TIP3    H257015   6.414   5.046  12.621  1.0851  0.6358  0.9841
11842TIP3   OH257016   4.357   5.875   0.936  0.1449 -0.0736 -0.2321
11842TIP3    H157017   4.265   5.888   0.913  0.1064  1.1132  0.5000
11842TIP3    H257018   4.389   5.811   0.872 -1.1771 -0.4940 -0.4994
11843TIP3   OH257019   2.701   4.081   3.022  0.1897 -0.1432 -0.5262
11843TIP3    H157020   2.706   4.020   3.096  0.0324  0.0917 -0.3207
11843TIP3    H257021   2.710   4.167   3.061 -0.9046  0.0405 -0.6648
11844TIP3   OH257022   5.025   5.234  16.627  0.6223 -0.3687  0.0910
11844TIP3    H157023   5.042   5.264  16.538  1.0182 -1.1801 -0.1122
11844TIP3    H257024   5.108   5.249  16.673  0.8072 -1.0781  0.0009
11845TIP3   OH257025   5.475   1.547   0.462  0.5398 -0.7988 -0.5894
11845TIP3    H157026   5.451   1.597   0.541 -0.8144 -2.4974  0.1435
11845TIP3    H257027   5.391   1.527   0.421  1.2037 -0.5517 -2.1162
11846TIP3   OH257028   3.020   4.320  12.085 -0.0142  0.6771  0.0310
11846TIP3    H157029   2.960   4.337  12.158 -0.2431 -0.4585  0.1305
11846TIP3    H257030   3.057   4.233  12.105 -0.0770  0.3567 -1.1987
11847TIP3   OH257031   0.560   1.696   2.429 -0.2006  1.0028 -0.9896
11847TIP3    H157032   0.635   1.645   2.460  0.5299  2.1516 -0.7911
11847TIP3    H257033   0.517   1.639   2.366  2.0583  1.0120 -2.7076
11848TIP3   OH257034   5.302   6.754   6.460  0.0636  0.3689 -0.7529
11848TIP3    H157035   5.301   6.666   6.423 -0.1615 -0.2638  0.7034
11848TIP3    H257036   5.394   6.779   6.461  0.0616  0.5020 -1.9086
11849TIP3   OH257037   1.273   5.687  15.985  0.5292  0.2603  0.2061
11849TIP3    H157038   1.256   5.780  16.003 -0.9919 -0.0950  0.7866
11849TIP3    H257039   1.218   5.667  15.909 -0.2280 -0.4604  0.9125
11850TIP3   OH257040   1.809   5.534  15.086  0.0350 -0.0718 -0.6840
11850TIP3    H157041   1.903   5.547  15.069 -0.1758  0.3265 -1.6310
11850TIP3    H257042   1.803   5.445  15.119  0.9028  0.3595  0.7626
11851TIP3   OH257043   5.478   5.815   4.528  0.0085  0.1438  0.1422
11851TIP3    H157044   5.424   5.893   4.511 -0.6913 -0.1032  1.1176
11851TIP3    H257045   5.432   5.770   4.598  1.7591  0.1729  1.3685
11852TIP3   OH257046   2.043   1.519  14.218  0.8126  0.3798 -0.4568
11852TIP3    H157047   2.045   1.533  14.313  1.3226 -1.0048 -0.2377
11852TIP3    H257048   2.069   1.603  14.181 -0.0187  1.1383  0.5955
11853TIP3   OH257049   3.656   2.941  12.008 -0.1342 -0.0418  0.1565
11853TIP3    H157050   3.635   2.858  11.965 -0.2643  0.4550 -0.7551
11853TIP3    H257051   3.752   2.945  12.006 -0.1591  0.6895 -1.5270
11854TIP3   OH257052   1.337   5.043  12.773 -0.0769 -0.3000 -0.1481
11854TIP3    H157053   1.299   4.957  12.794  0.0926 -0.6515 -1.2218
11854TIP3    H257054   1.366   5.077  12.857  1.9297 -2.2764  0.0566
11855TIP3   OH257055   3.910   1.870   2.007 -0.5613 -0.6618  0.2318
11855TIP3    H157056   3.873   1.824   2.083 -0.9926 -0.7544 -0.0282
11855TIP3    H257057   3.967   1.806   1.965  1.2788  0.0003  1.5883
11856TIP3   OH257058   6.691   3.892   0.959 -0.0396 -0.2050  0.3099
11856TIP3    H157059   6.726   3.806   0.935 -0.5742 -0.6349  1.0328
11856TIP3    H257060   6.622   3.908   0.894  1.5892  0.7658 -1.2874
11857TIP3   OH257061   2.761   4.844  11.032  0.1717 -0.9779 -0.6135
11857TIP3    H157062   2.774   4.806  11.118 -0.2163  0.6802  0.2213
11857TIP3    H257063   2.848   4.843  10.991  0.1699 -2.6852 -0.6360
11858TIP3   OH257064   0.900   0.145  12.243  0.4416 -0.0768 -0.4659
11858TIP3    H157065   0.927   0.055  12.258 -0.5618 -0.2300  0.5160
11858TIP3    H257066   0.933   0.193  12.319  3.8017  1.1036 -2.4112
11859TIP3   OH257067   4.893   2.997   2.460  1.0678  0.4293 -0.2406
11859TIP3    H157068   4.900   3.082   2.416  2.4423  0.2226 -0.4762
11859TIP3    H257069   4.938   3.009   2.544  2.0872 -0.2879 -0.6603
11860TIP3   OH257070   1.165   1.078   1.677  0.0856  0.3588 -0.2449
11860TIP3    H157071   1.116   1.101   1.756  0.8487 -0.4083  0.4683
11860TIP3    H257072   1.124   0.997   1.646  1.0437 -0.4334  0.5058
11861TIP3   OH257073   4.368   2.542   0.376 -0.1657  0.3517  0.2245
11861TIP3    H157074   4.280   2.536   0.340 -0.2961 -0.3635  0.6380
11861TIP3    H257075   4.355   2.568   0.468 -0.0947 -1.7489  0.8797
11862TIP3   OH257076   1.151   3.991  11.010 -0.2658 -0.5048  0.3481
11862TIP3    H157077   1.185   3.946  10.932 -1.0620 -1.2506  0.4125
11862TIP3    H257078   1.072   4.036  10.979 -0.6110 -0.8423  0.7339
11863TIP3   OH257079   0.338   4.947   0.808  0.2588 -0.2377  0.3975
11863TIP3    H157080   0.309   4.882   0.872 -0.4076  1.7882  2.3020
11863TIP3    H257081   0.401   5.001   0.856  0.1467  1.0319 -0.8322
11864TIP3   OH257082   1.350   2.331   5.693 -0.1050  0.7295 -0.1441
11864TIP3    H157083   1.407   2.352   5.620  1.2135  1.8497  1.1540
11864TIP3    H257084   1.404   2.345   5.771 -1.3888 -0.6193  1.0619
11865TIP3   OH257085   4.113   5.348   0.514 -0.2874  0.1910 -0.1630
11865TIP3    H157086   4.133   5.291   0.440 -1.8021 -0.7471  0.1023
11865TIP3    H257087   4.139   5.297   0.591  0.1434  0.6585  0.0025
11866TIP3   OH257088   0.936   3.264  14.674 -0.3802 -0.3008  0.4544
11866TIP3    H157089   0.939   3.329  14.744 -2.1029 -1.6025  1.8398
11866TIP3    H257090   0.997   3.196  14.700 -1.2322 -0.9244  0.8746
11867TIP3   OH257091   1.028   3.818   0.424  0.1050 -0.3723 -0.3949
11867TIP3    H157092   1.035   3.748   0.359 -0.6317 -1.4930  0.6906
11867TIP3    H257093   0.937   3.849   0.416  0.0911 -0.3304 -0.0718
11868TIP3   OH257094   2.787   3.515   6.804  0.3249  0.1941 -0.6752
11868TIP3    H157095   2.718   3.577   6.827 -0.4469 -0.4926 -1.0817
11868TIP3    H257096   2.782   3.507   6.709 -1.2911 -2.3291 -0.4962
11869TIP3   OH257097   5.885   1.439   0.876 -0.2569  0.1096  0.2600
11869TIP3    H157098   5.828   1.498   0.826 -0.7210  0.6656  1.3958
11869TIP3    H257099   5.824   1.391   0.933  0.3885  0.6888  1.4714
11870TIP3   OH257100   1.251   1.473  10.733 -0.0867  0.2618 -0.3769
11870TIP3    H157101   1.288   1.533  10.798  1.3184 -0.7354 -0.2116
11870TIP3    H257102   1.158   1.468  10.756  0.0384  1.2810  0.4551
11871TIP3   OH257103   5.790   0.122   2.394 -0.7077  0.3037 -0.1534
11871TIP3    H157104   5.854   0.056   2.368  1.7552  3.0256 -1.5408
11871TIP3    H257105   5.782   0.112   2.489  1.0338 -0.7416 -0.0779
11872TIP3   OH257106   3.300   3.659   1.726 -0.4262 -0.5552  0.3087
11872TIP3    H157107   3.268   3.684   1.813  0.4278  2.6203 -0.1893
11872TIP3    H257108   3.392   3.636   1.741 -1.0552 -3.1778  0.6620
11873TIP3   OH257109   4.873   6.173  14.337 -0.2961 -0.2324  0.1366
11873TIP3    H157110   4.904   6.169  14.247  1.1590 -1.3982  0.6508
11873TIP3    H257111   4.819   6.095  14.348  0.4339 -0.6768  0.5854
11874TIP3   OH257112   1.067   6.404   6.407 -0.1837  0.4494 -0.2380
11874TIP3    H157113   0.979   6.436   6.428 -0.4163 -0.0939 -0.3621
11874TIP3    H257114   1.126   6.459   6.459 -0.7004 -0.2899  1.1804
11875TIP3   OH257115   1.156   5.667   3.984 -0.5070 -0.0318  0.2196
11875TIP3    H157116   1.242   5.667   4.026 -0.0420 -0.5121 -0.7220
11875TIP3    H257117   1.095   5.653   4.057  0.1577  0.7950  0.9667
11876TIP3   OH257118   0.466   1.245   5.309 -0.0150 -0.5743 -0.3132
11876TIP3    H157119   0.409   1.312   5.272 -0.4590 -0.5781  0.3389
11876TIP3    H257120   0.509   1.205   5.233  0.7117  0.8422 -0.6736
11877TIP3   OH257121   4.307   4.916  14.901 -0.2255 -0.5637 -0.7619
11877TIP3    H157122   4.346   5.003  14.908 -0.9339 -0.3028  0.0356
11877TIP3    H257123   4.286   4.891  14.991  0.1677 -1.6614 -0.9521
11878TIP3   OH257124   0.801   5.850   2.416  0.7789 -0.1736 -0.1515
11878TIP3    H157125   0.814   5.841   2.511  2.2799 -1.1497 -0.4103
11878TIP3    H257126   0.729   5.790   2.397 -0.4308  1.0163  0.5380
11879TIP3   OH257127   1.133   5.017   4.149  0.1422  0.2385  0.3240
11879TIP3    H157128   1.138   4.993   4.241 -1.8653  0.6369  0.5860
11879TIP3    H257129   1.079   4.949   4.109  2.3126 -0.8377 -0.9621
11880TIP3   OH257130   3.672   4.977  17.392 -0.0564 -0.9666  0.4062
11880TIP3    H157131   3.752   4.932  17.366  0.3932 -0.6153  1.1361
11880TIP3    H257132   3.625   4.992  17.310  1.4835  0.4309 -0.2873
11881TIP3   OH257133   3.933   4.628   4.868 -0.1126  0.1131 -0.3353
11881TIP3    H157134   3.870   4.574   4.915  0.6841  1.1229  2.0391
11881TIP3    H257135   4.006   4.568   4.849 -0.5887 -0.3881 -0.5984
11882TIP3   OH257136   1.756   4.174   2.452  0.4426  0.4474  0.0687
11882TIP3    H157137   1.846   4.195   2.478  0.9161  0.6740 -1.6433
11882TIP3    H257138   1.705   4.251   2.479  0.6670  0.1312  1.4475
11883TIP3   OH257139   2.397   3.172   5.683 -0.1580 -0.4568  0.2934
11883TIP3    H157140   2.488   3.197   5.698  0.0573 -1.6603  1.2107
11883TIP3    H257141   2.402   3.081   5.652 -0.9751 -0.0075 -1.2559
11884TIP3   OH257142   1.342   2.071  17.153 -0.1744 -0.0888 -0.0156
11884TIP3    H157143   1.388   2.133  17.210 -0.6391 -0.0582  0.3351
11884TIP3    H257144   1.375   2.091  17.065  1.3434 -0.8522  0.3508
11885TIP3   OH257145   3.352   6.147  16.270 -0.1339  0.1747  0.0349
11885TIP3    H157146   3.347   6.082  16.340  1.3497  0.3278  0.3124
11885TIP3    H257147   3.419   6.208  16.300 -0.1376  0.7556 -1.1143
11886TIP3   OH257148   5.291   3.972   3.816 -0.1465 -0.1320  0.5884
11886TIP3    H157149   5.351   3.945   3.885  0.7076  0.5079  0.1121
11886TIP3    H257150   5.297   4.067   3.814 -0.6146 -0.1055  0.0267
11887TIP3   OH257151   5.983   6.443   5.082 -0.0380 -0.4423 -0.6412
11887TIP3    H157152   6.013   6.400   5.162  0.3489  0.7570 -0.1208
11887TIP3    H257153   5.921   6.510   5.113 -0.4569 -0.4681 -1.4046
11888TIP3   OH257154   1.887   0.377  11.147 -0.1736  0.1372  0.2095
11888TIP3    H157155   1.826   0.445  11.174  0.7579  1.2920 -0.5233
11888TIP3    H257156   1.846   0.338  11.069  0.4756  1.6272 -0.9217
11889TIP3   OH257157   3.637   6.182  14.141 -0.4033 -0.0692  0.1723
11889TIP3    H157158   3.625   6.265  14.093 -1.6876 -0.7227 -0.6769
11889TIP3    H257159   3.720   6.195  14.188 -1.4098  2.3532  1.4679
11890TIP3   OH257160   3.808   6.151  16.629 -0.2405  0.6426 -0.0631
11890TIP3    H157161   3.790   6.231  16.678 -0.5114  0.0853  0.7799
11890TIP3    H257162   3.896   6.125  16.656 -0.3458  0.3930  0.0494
11891TIP3   OH257163   5.393   4.872  12.317  0.4385 -0.2570 -0.0842
11891TIP3    H157164   5.455   4.910  12.255  0.9229  0.1556  0.6380
11891TIP3    H257165   5.308   4.906  12.289  0.8124  1.0866  0.3159
11892TIP3   OH257166   5.473   2.399  14.727 -0.0372 -0.4926 -0.0016
11892TIP3    H157167   5.440   2.338  14.662 -0.6538 -0.4216  0.2393
11892TIP3    H257168   5.561   2.367  14.747  0.7137  0.2773 -1.8649
11893TIP3   OH257169   4.804   1.216  15.666 -0.2148 -0.1392 -0.1997
11893TIP3    H157170   4.769   1.192  15.580 -1.2828 -0.2202  0.2428
11893TIP3    H257171   4.761   1.156  15.727 -0.0155  0.3889  0.4748
11894TIP3   OH257172   1.195   1.571  11.291 -0.1948 -0.4309 -0.0135
11894TIP3    H157173   1.120   1.516  11.267 -1.4870  0.6825  1.2864
11894TIP3    H257174   1.271   1.516  11.275 -1.2323 -1.3895 -1.9656
11895TIP3   OH257175   2.470   5.869  13.639 -0.3569 -0.0695  0.0073
11895TIP3    H157176   2.443   5.778  13.648  1.3080 -0.6003  0.0627
11895TIP3    H257177   2.479   5.882  13.544  0.6603 -0.3855  0.0471
11896TIP3   OH257178   4.963   5.049  11.844  0.1160  0.0972  0.0861
11896TIP3    H157179   4.942   5.106  11.770  2.0331  2.5724  1.3124
11896TIP3    H257180   4.888   5.059  11.903 -0.5930 -0.4966 -0.6710
11897TIP3   OH257181   2.689   1.975   0.598 -0.2345 -0.1816  0.1780
11897TIP3    H157182   2.760   2.037   0.582 -0.6614  0.4882  0.8247
11897TIP3    H257183   2.732   1.896   0.630  0.5477 -1.1212 -2.8482
11898TIP3   OH257184   1.370   4.677  13.942  0.6128  0.3845  0.4678
11898TIP3    H157185   1.348   4.746  13.879 -0.4520  1.5582  2.0684
11898TIP3    H257186   1.375   4.597  13.888 -1.5313  1.1105 -0.9497
11899TIP3   OH257187   3.775   2.373   6.295 -0.1834  0.4229 -0.2895
11899TIP3    H157188   3.766   2.415   6.209 -1.0437  1.3217  0.2261
11899TIP3    H257189   3.765   2.279   6.277 -0.4174  0.6054 -1.1645
11900TIP3   OH257190   4.044   3.224   3.946  0.5914  0.8171 -0.0395
11900TIP3    H157191   4.080   3.307   3.979  1.5122  0.6913 -0.6901
11900TIP3    H257192   4.111   3.192   3.885  0.1584 -0.3151  0.0708
11901TIP3   OH257193   6.306   2.984   0.372  0.0674 -0.8496 -0.2214
11901TIP3    H157194   6.383   2.959   0.321  0.1779 -0.4009 -0.2751
11901TIP3    H257195   6.305   2.923   0.445 -1.3618 -3.0379 -1.9217
11902TIP3   OH257196   2.232   4.780   2.014 -0.8308  0.0996  0.7030
11902TIP3    H157197   2.154   4.814   2.059 -1.5000 -0.1099 -0.2539
11902TIP3    H257198   2.268   4.855   1.967 -1.8448 -0.2603 -0.7553
11903TIP3   OH257199   1.300   4.852  15.872  0.2320  0.6070  0.6669
11903TIP3    H157200   1.232   4.825  15.935  0.9093  0.2371  1.2615
11903TIP3    H257201   1.252   4.890  15.799 -0.5422  2.3468  2.0111
11904TIP3   OH257202   2.199   0.211  16.078 -0.0685  0.2390  0.0708
11904TIP3    H157203   2.211   0.201  16.173  1.3062 -0.5932 -0.1630
11904TIP3    H257204   2.105   0.197  16.065 -0.5376  1.7701  1.4438
11905TIP3   OH257205   5.574   3.404   2.613 -0.4052 -0.0926  0.4928
11905TIP3    H157206   5.510   3.453   2.665 -0.2295  1.6262 -0.8205
11905TIP3    H257207   5.537   3.405   2.524  0.9565  0.0844 -0.0937
11906TIP3   OH257208   2.221   2.200  15.013 -0.1621 -0.2356 -0.0766
11906TIP3    H157209   2.193   2.268  15.074  3.1260  0.3633  0.9510
11906TIP3    H257210   2.217   2.242  14.927 -1.6429 -0.0013  0.0766
11907TIP3   OH257211   4.234   2.375  14.523  0.3440  0.2597 -0.3181
11907TIP3    H157212   4.305   2.314  14.505  1.1881  0.4499  2.1182
11907TIP3    H257213   4.192   2.341  14.602  1.2073  3.0563  1.4802
11908TIP3   OH257214   0.469   0.843   1.642  0.0251  0.1754  0.5322
11908TIP3    H157215   0.397   0.792   1.678  0.6211 -0.0396  1.4581
11908TIP3    H257216   0.441   0.865   1.553 -0.5731 -1.0978  0.3855
11909TIP3   OH257217   4.454   2.515   5.084  0.1786  0.2354  0.1823
11909TIP3    H157218   4.366   2.491   5.111 -0.2324  0.5573 -0.8250
11909TIP3    H257219   4.478   2.588   5.142 -0.6141  0.7981 -0.1834
11910TIP3   OH257220   6.764   6.623   2.487 -0.3098 -0.1957 -0.6796
11910TIP3    H157221   6.715   6.682   2.429  0.9609  0.6715 -0.9246
11910TIP3    H257222   6.697   6.577   2.537 -1.4416  3.0351  1.1367
11911TIP3   OH257223   4.528   6.734  15.426 -0.9960 -0.2630  0.4742
11911TIP3    H157224   4.612   6.701  15.393 -1.6587 -1.0831 -0.4854
11911TIP3    H257225   4.547   6.822  15.458  0.7583 -1.3279  2.6549
11912TIP3   OH257226   1.033   0.081  16.633  0.0247  0.4544  0.4187
11912TIP3    H157227   1.066   0.153  16.578 -0.6650  0.1400 -0.4437
11912TIP3    H257228   1.111   0.031  16.657  0.6583  2.1036  1.9712
11913TIP3   OH257229   1.701   2.819   0.567  0.0345 -0.2283  0.1824
11913TIP3    H157230   1.777   2.779   0.608  0.2842  0.2808  0.2329
11913TIP3    H257231   1.635   2.822   0.636 -0.8708 -2.7760 -0.4603
11914TIP3   OH257232   2.104   0.381   4.076 -0.4540 -0.1012 -0.2152
11914TIP3    H157233   2.072   0.429   4.153 -0.8872 -1.3463  0.4166
11914TIP3    H257234   2.124   0.448   4.012  0.2117  1.0135  1.0947
11915TIP3   OH257235   4.213   6.203  14.210 -0.3356 -0.5951  0.4005
11915TIP3    H157236   4.227   6.292  14.178 -0.2818 -0.9130 -0.4660
11915TIP3    H257237   4.136   6.211  14.267  0.0179  0.1101  0.7992
11916TIP3   OH257238   3.660   3.306   5.419  0.4956  0.9115  0.3672
11916TIP3    H157239   3.688   3.357   5.495 -0.9586  1.5400  0.5284
11916TIP3    H257240   3.564   3.312   5.421  0.2258 -2.0441  0.5283
11917TIP3   OH257241   1.197   1.766  12.649 -0.0995 -0.1982  0.1357
11917TIP3    H157242   1.222   1.833  12.586 -1.4538  0.3551  0.1669
11917TIP3    H257243   1.269   1.766  12.713 -0.3614  1.6708  0.4854
11918TIP3   OH257244   6.475   5.706  17.024 -0.3251 -0.4454 -0.5290
11918TIP3    H157245   6.504   5.785  17.070 -1.6535  0.6554 -1.5217
11918TIP3    H257246   6.550   5.647  17.029  0.8562  1.0329 -0.1065
11919TIP3   OH257247   0.977   1.610   0.207  0.2000 -0.0079 -0.0779
11919TIP3    H157248   0.996   1.675   0.140  0.8055  0.0664  0.1620
11919TIP3    H257249   0.911   1.651   0.263  1.1720  0.7341  0.5517
11920TIP3   OH257250   3.343   2.178   2.389 -0.1964  0.0421 -0.4604
11920TIP3    H157251   3.341   2.157   2.483 -0.0169  2.5791  0.1659
11920TIP3    H257252   3.293   2.107   2.348 -0.9565 -0.7060  1.6330
11921TIP3   OH257253   3.274   2.731  15.281 -0.1893  0.3026 -0.5051
11921TIP3    H157254   3.333   2.784  15.334 -1.5764  2.8291 -1.3236
11921TIP3    H257255   3.323   2.651  15.262  1.5280  0.7145  1.8421
11922TIP3   OH257256   5.956   2.773  15.114  0.3336  0.0561  0.1694
11922TIP3    H157257   5.942   2.731  15.199  1.0673  0.4775  0.5054
11922TIP3    H257258   6.017   2.715  15.069  0.3423  0.0989  0.1261
11923TIP3   OH257259   1.072   5.964   0.902  0.1420 -0.0119 -0.4785
11923TIP3    H157260   1.061   5.944   0.995  2.1559  3.2800  0.6193
11923TIP3    H257261   1.075   5.878   0.860  0.8697 -1.7041  2.7087
11924TIP3   OH257262   0.040   2.054   0.547 -0.3120 -0.0735  1.0180
11924TIP3    H157263   0.082   2.073   0.463 -0.2543 -0.0895  1.0432
11924TIP3    H257264   0.026   2.140   0.587  1.7682 -0.1375  2.0262
11925TIP3   OH257265   6.007   4.887   5.114 -0.2375  0.6760 -0.6439
11925TIP3    H157266   6.008   4.791   5.123  0.4949  0.8111  0.9723
11925TIP3    H257267   5.961   4.902   5.032 -1.6884 -1.0165 -0.2076
11926TIP3   OH257268   2.120   0.193  12.258  0.4503 -0.3575 -0.0531
11926TIP3    H157269   2.129   0.145  12.176  1.1447 -0.3845  0.0330
11926TIP3    H257270   2.164   0.276  12.243 -1.6803  0.7246 -0.5522
11927TIP3   OH257271   5.611   0.702   1.271  0.3836  0.1688  0.7388
11927TIP3    H157272   5.560   0.636   1.224 -0.1345  1.3262 -0.4010
11927TIP3    H257273   5.553   0.730   1.342  0.1504  0.1821  0.5457
11928TIP3   OH257274   0.408   0.407  16.078 -0.6592 -0.1393 -0.8503
11928TIP3    H157275   0.468   0.416  16.004 -0.2262  2.8199 -0.2637
11928TIP3    H257276   0.336   0.467  16.058 -0.7520  0.3814  0.9070
11929TIP3   OH257277   3.618   2.264   4.770  0.1848 -0.0334 -0.0502
11929TIP3    H157278   3.538   2.288   4.723 -0.7151 -2.0093  0.3999
11929TIP3    H257279   3.687   2.269   4.704 -0.4923  0.4875 -0.7373
11930TIP3   OH257280   2.293   1.927  14.702 -0.3339  0.2550 -0.6394
11930TIP3    H157281   2.342   1.845  14.701  0.2716  0.5854  0.3132
11930TIP3    H257282   2.360   1.995  14.694 -0.5576  0.7266  1.1051
11931TIP3   OH257283   1.639   2.112  14.984  0.2358  0.0493  0.0436
11931TIP3    H157284   1.718   2.060  14.997  0.1172  0.1569  1.3421
11931TIP3    H257285   1.627   2.114  14.889  0.7924 -1.4525 -0.0865
11932TIP3   OH257286   3.279   3.214   1.215 -0.6225 -0.1728  0.2985
11932TIP3    H157287   3.320   3.127   1.213 -1.6010 -0.6423 -0.0895
11932TIP3    H257288   3.231   3.216   1.298 -0.2270  0.1842  0.5231
11933TIP3   OH257289   2.012   0.351   4.774  0.0508 -0.5133 -0.2325
11933TIP3    H157290   2.080   0.411   4.744 -0.5555  0.1041 -0.4002
11933TIP3    H257291   2.010   0.363   4.869 -0.1819 -0.1424 -0.2834
11934TIP3   OH257292   3.139   2.221   2.076 -0.6857 -0.4724 -0.4583
11934TIP3    H157293   3.231   2.247   2.084 -1.2668  1.7062 -0.1280
11934TIP3    H257294   3.142   2.130   2.045  1.5745  0.2976 -2.9051
11935TIP3   OH257295   5.863   4.004  13.359 -0.2887  0.3708  0.1930
11935TIP3    H157296   5.883   4.052  13.439  1.3285 -1.0501  0.6875
11935TIP3    H257297   5.883   3.913  13.379  0.5466  0.0202 -1.9286
11936TIP3   OH257298   1.724   0.875  17.470  0.0863 -0.0351 -0.0847
11936TIP3    H157299   1.771   0.927  17.535  2.1470  0.1568 -1.6341
11936TIP3    H257300   1.646   0.926  17.451 -0.5600 -0.0762  2.1318
11937TIP3   OH257301   1.866   5.740   0.900  0.6378 -0.0890  0.1372
11937TIP3    H157302   1.883   5.650   0.927 -1.2935 -0.9736 -1.3950
11937TIP3    H257303   1.804   5.773   0.965  0.3225 -0.3058 -0.0549
11938TIP3   OH257304   2.803   1.976   3.541 -0.1567  0.2045  0.1850
11938TIP3    H157305   2.816   1.973   3.636 -0.5176  0.3762  0.2436
11938TIP3    H257306   2.738   2.046   3.529  0.5676  0.8129 -0.2643
11939TIP3   OH257307   6.209   3.595  13.087  0.8034  0.2692  0.6247
11939TIP3    H157308   6.154   3.660  13.132  1.1985  0.6049  0.6258
11939TIP3    H257309   6.297   3.633  13.089  0.8783  0.1520 -0.1823
11940TIP3   OH257310   4.084   6.020   0.924 -0.2595  0.2972  0.2674
11940TIP3    H157311   4.081   5.962   0.848 -3.1592  0.7037 -0.0578
11940TIP3    H257312   4.055   5.965   0.997 -1.5993  0.9101  0.2290
11941TIP3   OH257313   5.442   2.382   0.961  0.2599 -0.0678  0.8062
11941TIP3    H157314   5.468   2.331   0.884  1.4591  2.5718 -0.6986
11941TIP3    H257315   5.517   2.377   1.020  0.5249  0.2300  0.4986
11942TIP3   OH257316   5.689   3.761  11.863 -0.6350 -0.0946 -0.0691
11942TIP3    H157317   5.600   3.740  11.889 -0.8369  1.1699  0.3162
11942TIP3    H257318   5.707   3.701  11.790 -1.4120 -1.0627  0.5002
11943TIP3   OH257319   1.122   2.963   0.005  0.5253  0.1118 -0.5296
11943TIP3    H157320   1.199   2.929   0.051  1.6674  3.3990  0.2384
11943TIP3    H257321   1.048   2.918   0.047  1.8503 -0.8644  0.8729
11944TIP3   OH257322   2.077   5.576   4.103  0.3705 -0.0667  0.2300
11944TIP3    H157323   2.036   5.517   4.039  1.1652  1.2729 -1.5950
11944TIP3    H257324   2.028   5.657   4.096  1.9994  0.9012 -0.5352
11945TIP3   OH257325   2.017   1.970   4.003  0.1508  0.0066 -0.2095
11945TIP3    H157326   2.052   1.882   3.991 -0.8357 -0.4900  0.4297
11945TIP3    H257327   1.928   1.957   4.035 -0.1453  1.2390 -0.4585
11946TIP3   OH257328   0.571   4.406  16.085 -0.3313  0.6900  0.5526
11946TIP3    H157329   0.612   4.487  16.116  0.8351  0.6757 -0.8330
11946TIP3    H257330   0.486   4.435  16.050  0.0346  1.3112  0.1551
11947TIP3   OH257331   6.133   5.190   5.552  0.8368  0.2376  0.5656
11947TIP3    H157332   6.205   5.212   5.611  1.9104  0.5893 -0.8089
11947TIP3    H257333   6.112   5.099   5.573  1.3594  0.2790  1.3120
11948TIP3   OH257334   3.505   0.548   5.691  0.0820  0.2846  0.2360
11948TIP3    H157335   3.557   0.479   5.732  0.6937 -0.1636 -1.2017
11948TIP3    H257336   3.415   0.530   5.718  0.4932  0.2391  1.6428
11949TIP3   OH257337   1.441   6.764   0.272 -0.0643 -0.1207 -0.3601
11949TIP3    H157338   1.373   6.797   0.330 -0.7688 -0.6445 -0.8676
11949TIP3    H257339   1.483   6.842   0.237  1.4286  0.2227  2.0191
11950TIP3   OH257340   1.595   5.450   6.118 -0.2753 -0.1668  0.5365
11950TIP3    H157341   1.643   5.384   6.068  0.1036 -0.3474  1.1294
11950TIP3    H257342   1.646   5.460   6.199 -0.5534  0.5491  0.6294
11951TIP3   OH257343   2.638   4.073   0.022  0.0714 -0.3005 -0.3164
11951TIP3    H157344   2.711   4.108  -0.029  1.1479  0.8177  1.8588
11951TIP3    H257345   2.679   4.018   0.088 -0.9343  0.9355  1.4178
11952TIP3   OH257346   1.523   0.240  16.855  0.3866 -0.2049 -0.4000
11952TIP3    H157347   1.567   0.156  16.874 -0.3487 -0.1946  1.5698
11952TIP3    H257348   1.547   0.296  16.928 -0.5933  0.7235 -0.7702
11953TIP3   OH257349   2.468   2.623   3.954  0.7055 -0.4602  0.2818
11953TIP3    H157350   2.527   2.679   3.903 -0.0514  0.3198  0.2445
11953TIP3    H257351   2.521   2.595   4.029  0.8815  0.9357  0.7114
11954TIP3   OH257352   4.015   3.055  10.863  0.0617 -0.6189 -0.0241
11954TIP3    H157353   3.955   3.127  10.845 -1.1984 -1.7204 -0.3808
11954TIP3    H257354   4.030   3.015  10.777 -1.3638 -2.3701  0.4922
11955TIP3   OH257355   4.945   5.298  12.596 -0.2654  0.0284 -0.3746
11955TIP3    H157356   4.970   5.390  12.609 -0.0437 -0.1702  0.7147
11955TIP3    H257357   4.854   5.302  12.567 -0.4592  0.5858  0.2605
11956TIP3   OH257358   2.059   0.195   1.687 -0.1290  0.1460 -0.5330
11956TIP3    H157359   2.001   0.195   1.611  0.9928 -1.7825 -1.4277
11956TIP3    H257360   2.028   0.123   1.741  2.3557 -2.0662 -1.8409
11957TIP3   OH257361   0.635   3.143  13.732 -0.1616 -0.3822 -0.4526
11957TIP3    H157362   0.672   3.231  13.730  0.1949 -0.5002  0.3978
11957TIP3    H257363   0.568   3.143  13.664  0.0091  0.4653 -0.6303
11958TIP3   OH257364   3.298   1.443  12.065 -0.2401 -0.3129 -0.1649
11958TIP3    H157365   3.211   1.481  12.068 -0.1088  0.0130  2.8534
11958TIP3    H257366   3.284   1.350  12.048 -1.2130 -0.3026  0.5336
11959TIP3   OH257367   0.172   0.815  13.789 -0.1266  0.0418 -0.2440
11959TIP3    H157368   0.242   0.876  13.765 -0.3108  0.3194 -0.0726
11959TIP3    H257369   0.197   0.783  13.876 -1.0999  1.4726  0.6007
11960TIP3   OH257370   0.035   0.788  12.643 -0.6445  0.4835  0.0176
11960TIP3    H157371   0.115   0.759  12.600 -0.2483  0.1967  0.9515
11960TIP3    H257372   0.056   0.791  12.736 -1.4534  1.2547  0.1908
11961TIP3   OH257373   2.269   3.886   4.473  0.0718 -0.2026  0.2139
11961TIP3    H157374   2.225   3.879   4.388 -0.0200 -2.1206  0.3944
11961TIP3    H257375   2.324   3.964   4.464  0.3986 -0.5995 -1.7626
11962TIP3   OH257376   0.156   2.220   5.106  0.1181 -0.4503 -0.1977
11962TIP3    H157377   0.187   2.240   5.194  0.5905 -1.0271 -0.2237
11962TIP3    H257378   0.235   2.198   5.057 -0.3418 -2.8645 -0.0214
11963TIP3   OH257379   6.136   3.503   5.787 -0.4042 -0.5189  0.2129
11963TIP3    H157380   6.060   3.558   5.765 -0.6885 -0.8488  0.3560
11963TIP3    H257381   6.140   3.505   5.882 -0.1668 -0.4125  0.1991
11964TIP3   OH257382   1.740   1.536  14.762  0.1908  0.4695 -0.3846
11964TIP3    H157383   1.698   1.609  14.716 -1.6434  0.0542  0.5483
11964TIP3    H257384   1.733   1.462  14.701  0.0486  0.5267 -0.4371
11965TIP3   OH257385   2.530   4.653   3.388 -0.4787  0.2377  0.3323
11965TIP3    H157386   2.435   4.664   3.398 -0.8960 -3.3492  2.0223
11965TIP3    H257387   2.568   4.703   3.460 -1.2081  0.4530  0.5747
11966TIP3   OH257388   5.280   4.003   0.259 -0.0879  0.3204  0.6048
11966TIP3    H157389   5.189   3.976   0.269 -0.1819  1.0992  2.2347
11966TIP3    H257390   5.319   3.985   0.345  1.1836  0.4382  0.0764
11967TIP3   OH257391   1.815   2.480  15.012 -0.1914  0.2386 -0.1963
11967TIP3    H157392   1.806   2.570  15.042 -0.4972  0.3318 -0.5718
11967TIP3    H257393   1.753   2.471  14.940  1.9020  0.5954 -2.1483
11968TIP3   OH257394   1.217   2.662   2.761 -0.8485  0.3649 -0.1180
11968TIP3    H157395   1.265   2.740   2.735  0.9226 -1.1892 -1.7781
11968TIP3    H257396   1.271   2.589   2.731 -2.8227 -1.5200  0.6368
11969TIP3   OH257397   2.695   2.817   2.269 -0.0072  0.3440 -0.0938
11969TIP3    H157398   2.614   2.782   2.231  0.4077  0.2678 -0.9374
11969TIP3    H257399   2.704   2.771   2.353 -0.2473 -0.4745 -0.5053
11970TIP3   OH257400   0.147   2.271  11.294 -0.1778  0.1337  0.3188
11970TIP3    H157401   0.109   2.343  11.244 -2.0966 -0.2285  1.1890
11970TIP3    H257402   0.196   2.220  11.229 -1.4022  0.4791 -0.9167
11971TIP3   OH257403   6.173   4.451   3.428 -0.2641  0.4516  0.9589
11971TIP3    H157404   6.159   4.542   3.401  2.5844  0.7875  0.2940
11971TIP3    H257405   6.134   4.399   3.359 -1.4514  1.1601  1.0706
11972TIP3   OH257406   3.864   5.135   1.652  1.0056  0.1837  0.2163
11972TIP3    H157407   3.830   5.219   1.682 -0.1664 -0.5817  1.0729
11972TIP3    H257408   3.857   5.077   1.727  0.6209 -1.0330 -0.7272
11973TIP3   OH257409   3.695   0.788  13.882  0.1250 -0.0307  0.4406
11973TIP3    H157410   3.641   0.839  13.821 -1.5902  1.8751  3.2893
11973TIP3    H257411   3.643   0.710  13.900  0.3695 -0.3170 -0.0728
11974TIP3   OH257412   1.110   4.620   5.184  0.0068 -0.5150 -0.3457
11974TIP3    H157413   1.173   4.612   5.112 -0.6250 -1.9223 -0.7874
11974TIP3    H257414   1.085   4.530   5.204  0.7149 -0.2277  2.1715
11975TIP3   OH257415   1.280   5.839  12.128 -0.3469  0.1548  0.1323
11975TIP3    H157416   1.344   5.892  12.176  0.6910 -1.1968  0.2999
11975TIP3    H257417   1.330   5.801  12.055 -1.4887  0.7685 -1.0099
11976TIP3   OH257418   0.081   3.652   6.053  0.4352  0.1260  0.3705
11976TIP3    H157419   0.038   3.584   6.000  2.5233 -1.3368  0.4580
11976TIP3    H257420   0.113   3.716   5.990  0.6138 -0.2538  0.0746
11977TIP3   OH257421   0.933   0.487   4.044 -0.2267 -0.1189 -0.3391
11977TIP3    H157422   0.852   0.536   4.055  1.1245  1.8640  1.7082
11977TIP3    H257423   0.939   0.432   4.123  0.0437 -0.8955 -0.8813
11978TIP3   OH257424   1.152   0.751  13.950  0.4682 -0.1329  0.0739
11978TIP3    H157425   1.090   0.803  14.002  1.4491  1.5352 -0.3220
11978TIP3    H257426   1.103   0.725  13.872 -0.3135 -0.6129  0.7090
11979TIP3   OH257427   2.000   2.171   5.935  0.7001 -0.1682 -0.4335
11979TIP3    H157428   1.996   2.267   5.939 -1.0459 -0.2478  0.9354
11979TIP3    H257429   2.045   2.145   6.014  2.3445 -0.4754 -1.4297
11980TIP3   OH257430   5.965   2.359  14.657  0.0436 -0.2043  0.4485
11980TIP3    H157431   6.056   2.330  14.654 -0.0235 -0.5271  1.2951
11980TIP3    H257432   5.915   2.286  14.621  0.0138 -0.5366  1.1479
11981TIP3   OH257433   0.805   5.957  12.964  0.2353 -0.7735  0.4785
11981TIP3    H157434   0.738   5.894  12.991  0.4349 -1.7043 -1.0834
11981TIP3    H257435   0.791   6.033  13.022 -1.0786 -1.5857  1.2890
11982TIP3   OH257436   0.692   0.972  16.537  0.1657 -0.3929  0.5039
11982TIP3    H157437   0.686   0.995  16.629 -0.7517  0.3817  0.2706
11982TIP3    H257438   0.626   1.026  16.494  0.3873 -0.9339 -0.5744
11983TIP3   OH257439   6.145   1.509   3.857  0.4621 -0.2928 -0.1589
11983TIP3    H157440   6.241   1.510   3.847  0.4090 -0.4975 -0.7190
11983TIP3    H257441   6.129   1.567   3.932  1.1182 -1.3924  0.8632
11984TIP3   OH257442   3.278   0.081  11.377 -0.2517 -0.1398 -1.0362
11984TIP3    H157443   3.295  -0.009  11.349 -0.4321  0.3158 -2.7296
11984TIP3    H257444   3.197   0.105  11.332  0.1195  1.0739 -1.0935
11985TIP3   OH257445   2.478   5.519   5.867 -0.7039 -0.0680  0.3367
11985TIP3    H157446   2.515   5.440   5.828  0.7509 -0.2007  1.8483
11985TIP3    H257447   2.401   5.538   5.815 -0.6979 -2.0827 -0.4941
11986TIP3   OH257448   3.324   2.020   4.432 -0.2341 -0.1788 -0.1935
11986TIP3    H157449   3.325   2.097   4.489 -1.0068  0.2355 -0.7183
11986TIP3    H257450   3.416   2.004   4.412  0.0517 -0.3161  1.1332
11987TIP3   OH257451   6.263   1.412   5.262 -0.7694 -0.8551  0.4983
11987TIP3    H157452   6.253   1.324   5.297  1.4234 -1.3132  0.0527
11987TIP3    H257453   6.304   1.400   5.177 -0.1417  0.6070  0.5687
11988TIP3   OH257454   1.965   4.849  16.502 -0.0954 -0.4841  0.0388
11988TIP3    H157455   2.052   4.809  16.508 -0.2190 -1.1898 -2.0451
11988TIP3    H257456   1.942   4.871  16.593  2.0614 -0.6592  0.6841
11989TIP3   OH257457   4.043   0.989   2.908  0.9410 -0.3124  0.4275
11989TIP3    H157458   4.054   1.056   2.975  0.6613  1.6694 -1.4260
11989TIP3    H257459   3.973   1.021   2.852  0.5857 -2.3106 -0.3681
11990TIP3   OH257460   0.426   5.387  12.493 -0.1652 -0.0759  0.5754
11990TIP3    H157461   0.385   5.446  12.557 -0.5233 -0.6022  0.8411
11990TIP3    H257462   0.455   5.312  12.546  2.4291  0.8824  0.6464
11991TIP3   OH257463   4.084   3.650  17.502  0.0860 -0.1405 -0.2699
11991TIP3    H157464   4.149   3.618  17.565  0.0319  0.4980  0.1214
11991TIP3    H257465   4.032   3.713  17.552  0.5749  1.0172 -1.1800
11992TIP3   OH257466   5.651   5.613  12.334 -0.1180  0.0725  0.2335
11992TIP3    H157467   5.699   5.667  12.272  0.9900 -1.3934 -0.2401
11992TIP3    H257468   5.681   5.643  12.420  0.4274  0.2545 -0.0154
11993TIP3   OH257469   3.419   4.770   1.220  0.1323 -0.0019 -0.2432
11993TIP3    H157470   3.391   4.686   1.185 -0.3971  0.3703 -0.7333
11993TIP3    H257471   3.393   4.769   1.312 -5.0039  1.7140 -1.3515
11994TIP3   OH257472   3.367   3.975   0.387  0.0246 -0.4768  0.0824
11994TIP3    H157473   3.374   3.980   0.291 -0.2322 -0.2863  0.0740
11994TIP3    H257474   3.285   4.019   0.407  1.0963  1.4260  0.5711
11995TIP3   OH257475   4.811   5.401  13.174  0.2083 -0.2359 -0.2049
11995TIP3    H157476   4.735   5.381  13.120  0.9830 -0.9378 -1.0723
11995TIP3    H257477   4.803   5.342  13.249  0.5000 -1.1509 -0.8777
11996TIP3   OH257478   3.465   4.596   5.002 -0.4793 -0.2194  0.8246
11996TIP3    H157479   3.454   4.637   4.917  1.9398  0.7231  0.8822
11996TIP3    H257480   3.421   4.655   5.063 -1.0661 -0.1964  0.3838
11997TIP3   OH257481   1.557   4.148   1.461  0.0450 -0.4969  0.1053
11997TIP3    H157482   1.607   4.138   1.380  0.2923 -0.7241  0.2830
11997TIP3    H257483   1.560   4.242   1.480  0.3870 -0.5032  0.0990
11998TIP3   OH257484   1.293   1.305   2.069 -0.0714 -0.2576  0.4432
11998TIP3    H157485   1.232   1.272   2.003  0.9630  3.8081 -3.0679
11998TIP3    H257486   1.357   1.235   2.080 -2.0065 -2.2861 -0.4250
11999TIP3   OH257487   3.948   2.211   3.292 -0.1339 -0.0278  0.6012
11999TIP3    H157488   3.950   2.207   3.196  0.2427 -2.0294  0.6496
11999TIP3    H257489   4.017   2.274   3.314  0.9337 -0.7872 -0.4199
12000TIP3   OH257490   4.866   6.371  15.294  0.1221  0.3466 -0.0755
12000TIP3    H157491   4.944   6.348  15.244  0.0373  1.3347 -0.6822
12000TIP3    H257492   4.861   6.304  15.363 -0.3236 -1.6752 -1.9716
12001TIP3   OH257493   1.028   3.334  11.736  0.1654 -0.0241  0.4006
12001TIP3    H157494   0.947   3.383  11.728  0.5765  1.2558  3.0301
12001TIP3    H257495   1.096   3.401  11.748  1.5867 -1.0712 -1.2069
12002TIP3   OH257496   0.071   4.384  14.788  0.0936  0.1566  0.5911
12002TIP3    H157497   0.071   4.480  14.793  4.5972  0.3685  0.5241
12002TIP3    H257498   0.123   4.364  14.711 -0.6807 -2.3782  0.6526
12003TIP3   OH257499   4.728   5.388  16.903  0.3556  0.2631  0.1088
12003TIP3    H157500   4.774   5.461  16.945  0.4040  0.3807 -0.1493
12003TIP3    H257501   4.647   5.427  16.870 -0.3062 -0.0958  1.2295
12004TIP3   OH257502   1.402   2.258   5.237 -0.1686 -0.0428 -0.2185
12004TIP3    H157503   1.402   2.321   5.309  0.2795 -1.7078  1.3117
12004TIP3    H257504   1.313   2.223   5.235 -0.3975  0.5651 -1.0127
12005TIP3   OH257505   3.677   1.569  13.434 -0.1296  0.1552 -0.0636
12005TIP3    H157506   3.642   1.620  13.361  0.6849  0.1583 -0.4673
12005TIP3    H257507   3.666   1.625  13.510 -3.2345 -0.7798  0.3098
12006TIP3   OH257508   0.320   0.302   2.497  0.2833  0.6343 -0.8385
12006TIP3    H157509   0.302   0.261   2.581  1.5022 -2.2587 -1.8793
12006TIP3    H257510   0.243   0.284   2.444  1.0454 -0.9413 -1.4721
12007TIP3   OH257511   6.653   3.696  13.580  0.0400 -0.2771 -0.0713
12007TIP3    H157512   6.660   3.718  13.487 -0.0531  2.6078  0.5070
12007TIP3    H257513   6.741   3.671  13.606  0.0283 -1.2779 -0.9647
12008TIP3   OH257514   6.627   6.194   1.275 -0.2038  0.3647  0.1922
12008TIP3    H157515   6.629   6.124   1.341  0.7149  1.5453  1.5043
12008TIP3    H257516   6.714   6.234   1.280 -0.0559  0.4121 -1.8852
12009TIP3   OH257517   4.056   0.082  16.109 -0.4203 -0.4756  0.2166
12009TIP3    H157518   4.098   0.163  16.079 -0.3853 -0.8380 -0.7486
12009TIP3    H257519   4.113   0.050  16.179 -1.6266  1.4922  2.2336
12010TIP3   OH257520   4.969   2.326   0.961  0.2955  0.1069  0.1561
12010TIP3    H157521   5.053   2.349   0.920  0.7456 -0.0893  0.9522
12010TIP3    H257522   4.962   2.231   0.951  0.3667  0.0694  0.4555
12011TIP3   OH257523   1.701   3.247   6.404 -0.0079 -0.3512 -0.3193
12011TIP3    H157524   1.634   3.288   6.350  0.2183 -0.0512 -0.3794
12011TIP3    H257525   1.656   3.224   6.486  0.0452  0.7805  0.0484
12012TIP3   OH257526   2.617   1.163   1.515 -0.9847  0.8001 -0.4021
12012TIP3    H157527   2.634   1.094   1.579 -0.7708 -1.1286 -2.4021
12012TIP3    H257528   2.544   1.212   1.551 -1.6552 -0.9640  0.7644
12013TIP3   OH257529   5.441   4.731   0.126  0.4265 -0.3885 -0.7508
12013TIP3    H157530   5.512   4.671   0.101  0.3347 -0.3805 -1.0276
12013TIP3    H257531   5.473   4.817   0.101 -0.6644 -0.6081 -3.1315
12014TIP3   OH257532   3.611   5.185   5.022 -0.7635 -0.5869 -0.3136
12014TIP3    H157533   3.545   5.176   4.954  0.7668 -2.0481 -1.7054
12014TIP3    H257534   3.639   5.095   5.041  2.4290  0.0054 -1.4903
12015TIP3   OH257535   1.172   0.698   3.735  0.5806 -0.6162  0.1008
12015TIP3    H157536   1.096   0.691   3.678 -0.6439 -1.1869  1.7139
12015TIP3    H257537   1.247   0.681   3.678 -0.4712  0.0716 -1.5564
12016TIP3   OH257538   0.314   0.165  17.333  0.0492 -0.3187  0.5712
12016TIP3    H157539   0.376   0.207  17.392  0.7573 -0.0880 -0.3035
12016TIP3    H257540   0.319   0.216  17.252  0.0300 -1.3542 -0.1099
12017TIP3   OH257541   6.533   6.319   4.539 -0.2061  0.0875 -0.2578
12017TIP3    H157542   6.562   6.259   4.607  0.5982  0.1534 -0.5359
12017TIP3    H257543   6.563   6.280   4.457  0.8844  1.1614 -0.4022
12018TIP3   OH257544   5.537   2.851   4.100  0.3733 -0.0418 -0.0229
12018TIP3    H157545   5.509   2.787   4.166 -1.4960 -0.3369 -1.0434
12018TIP3    H257546   5.579   2.799   4.032 -1.9056 -0.4103 -1.2684
12019TIP3   OH257547   0.916   6.048  13.300  0.8659  0.3910  0.1063
12019TIP3    H157548   0.863   6.086  13.230  1.5179  0.7185 -0.2175
12019TIP3    H257549   0.860   5.980  13.338  0.4047  0.3890 -0.5565
12020TIP3   OH257550   3.944   2.118  13.983 -0.1193  0.0061 -0.0973
12020TIP3    H157551   3.979   2.060  14.050  0.1841  0.5332  0.2016
12020TIP3    H257552   3.870   2.162  14.025 -0.9846 -0.8824 -0.6294
12021TIP3   OH257553   4.175   4.875  11.957  0.6052  0.4188  0.4138
12021TIP3    H157554   4.266   4.855  11.978  0.3210 -1.1754  0.2454
12021TIP3    H257555   4.180   4.954  11.903  1.9266  0.0779  0.0070
12022TIP3   OH257556   1.906   5.383  14.304 -0.1481  0.0786  0.6177
12022TIP3    H157557   1.951   5.440  14.242 -1.3111  0.6760  0.2782
12022TIP3    H257558   1.952   5.300  14.299  1.6125  0.9894  1.1490
12023TIP3   OH257559   0.765   2.420   1.217 -0.0428 -0.2266 -0.1613
12023TIP3    H157560   0.746   2.370   1.296 -0.4851 -0.8307 -0.6374
12023TIP3    H257561   0.682   2.463   1.195 -0.4134 -1.4370 -1.2417
12024TIP3   OH257562   1.720   1.377   5.936  0.1003  0.5543  0.6465
12024TIP3    H157563   1.732   1.429   6.016  1.0484 -0.8952  1.4987
12024TIP3    H257564   1.744   1.288   5.962 -0.5509 -0.1448 -1.0111
12025TIP3   OH257565   6.035   5.501   4.392  0.1685 -0.3449  0.2493
12025TIP3    H157566   5.992   5.578   4.430  0.1206 -0.1119 -0.2818
12025TIP3    H257567   6.086   5.535   4.319 -2.2376 -1.1681 -1.9504
12026TIP3   OH257568   0.572   4.223   2.834  0.6621 -0.1688 -0.2724
12026TIP3    H157569   0.547   4.313   2.853  2.0002  0.5335 -1.5993
12026TIP3    H257570   0.489   4.176   2.827 -0.1482  1.2862 -0.9660
12027TIP3   OH257571   6.644   2.085  14.354 -0.2750 -0.7741 -0.3433
12027TIP3    H157572   6.632   2.009  14.410  2.1042 -1.2712 -0.4208
12027TIP3    H257573   6.644   2.159  14.414  1.7048 -1.2543  0.3128
12028TIP3   OH257574   2.342   0.918  16.029 -0.1672  0.3056 -0.1938
12028TIP3    H157575   2.307   1.007  16.035 -1.3597 -0.2154  1.1969
12028TIP3    H257576   2.413   0.916  16.093  0.1905  0.3687 -0.5771
12029TIP3   OH257577   5.851   2.431   4.017  0.2710 -0.2013 -0.2559
12029TIP3    H157578   5.771   2.450   4.066  0.6942 -3.0600  1.7387
12029TIP3    H257579   5.820   2.409   3.929 -0.8351  1.3540 -0.3065
12030TIP3   OH257580   0.265   6.660   6.177 -0.2024 -0.2390  0.0585
12030TIP3    H157581   0.343   6.678   6.124  1.0832  0.0619  1.9807
12030TIP3    H257582   0.289   6.584   6.230 -1.9613 -1.4039 -0.7202
12031TIP3   OH257583   4.595   3.311  16.859  0.1635  0.0922  0.5616
12031TIP3    H157584   4.502   3.288  16.856  0.5078 -1.4344  0.5833
12031TIP3    H257585   4.628   3.288  16.772  0.3857  1.2829  0.3208
12032TIP3   OH257586   5.031   1.232   2.624 -0.6353 -0.3215  0.5328
12032TIP3    H157587   5.018   1.141   2.651  0.4351 -0.2386  1.3720
12032TIP3    H257588   5.059   1.277   2.703  1.4820  0.1656 -0.4245
12033TIP3   OH257589   5.408   1.337   3.006  0.4186 -0.1584  0.3710
12033TIP3    H157590   5.494   1.339   2.964 -0.5924  0.8800 -1.8375
12033TIP3    H257591   5.346   1.331   2.933 -1.5365  2.9209  1.5378
12034TIP3   OH257592   4.610   1.027   5.553  0.1818  0.3623 -0.1935
12034TIP3    H157593   4.592   0.999   5.463 -0.7081 -0.8069  0.3074
12034TIP3    H257594   4.604   0.946   5.605  0.7261  0.9998  0.9061
12035TIP3   OH257595   1.832   3.538  10.976 -0.6339  0.2561  0.1223
12035TIP3    H157596   1.793   3.451  10.971  0.2510 -0.1077 -0.6268
12035TIP3    H257597   1.846   3.564  10.885  0.5074  0.5414  0.3596
12036TIP3   OH257598   5.247   6.677  11.717 -0.3255 -0.3364  0.0969
12036TIP3    H157599   5.312   6.741  11.748  0.7715 -1.4745  0.1916
12036TIP3    H257600   5.178   6.679  11.784  0.0083  0.2781  0.4318
12037TIP3   OH257601   3.686   5.178   2.663 -0.1570  0.7212  0.2561
12037TIP3    H157602   3.746   5.185   2.590  0.2387  0.7968  0.5839
12037TIP3    H257603   3.703   5.091   2.700  0.5201  1.1624  1.0058
12038TIP3   OH257604   0.613   3.675  14.711 -0.0857 -0.0119 -0.2529
12038TIP3    H157605   0.654   3.750  14.667 -1.5575  1.5482  0.9110
12038TIP3    H257606   0.606   3.608  14.643  2.1053  0.5241 -1.1035
12039TIP3   OH257607   2.809   0.691   5.531  0.1398  0.4818  0.0244
12039TIP3    H157608   2.752   0.677   5.606  0.6513 -0.8895  0.1963
12039TIP3    H257609   2.883   0.631   5.546 -0.4275 -0.9269 -2.2468
12040TIP3   OH257610   2.638   6.044  14.435  0.0802 -0.1579  0.5762
12040TIP3    H157611   2.599   6.072  14.353  1.1405  0.0012  0.1072
12040TIP3    H257612   2.683   5.962  14.414 -1.1191 -1.0655  1.4201
12041TIP3   OH257613   0.568   6.764  11.196  0.5773 -0.1591 -0.5771
12041TIP3    H157614   0.649   6.727  11.232 -0.4801 -2.0047  0.0491
12041TIP3    H257615   0.583   6.858  11.196  1.7001 -0.2267  2.1519
12042TIP3   OH257616   6.474   0.371  13.377 -0.0910  0.2365  0.4641
12042TIP3    H157617   6.568   0.377  13.396  0.2260  1.9017 -1.3110
12042TIP3    H257618   6.469   0.311  13.303 -0.2965  0.9693 -0.1247
12043TIP3   OH257619   1.910   0.651   1.961 -0.6724  0.2167 -0.6241
12043TIP3    H157620   1.910   0.639   1.866  0.5400  1.5507 -0.8271
12043TIP3    H257621   1.827   0.696   1.979 -0.6278  0.5213 -1.1464
12044TIP3   OH257622   0.040   5.570   5.645 -0.3572  0.1339 -0.3557
12044TIP3    H157623   0.092   5.533   5.573 -0.5856 -0.3908 -0.2487
12044TIP3    H257624   0.050   5.665   5.634  1.0089  0.0548 -0.0675
12045TIP3   OH257625   6.546   6.135  14.979  0.2141  0.4160 -0.0182
12045TIP3    H157626   6.503   6.065  15.027 -4.4325  2.4824 -0.6125
12045TIP3    H257627   6.582   6.093  14.901 -2.9407 -1.3148 -0.6725
12046TIP3   OH257628   5.991   4.470  12.777  0.2008  0.1068 -0.2542
12046TIP3    H157629   5.936   4.457  12.700  2.7647  0.4682 -2.3055
12046TIP3    H257630   5.953   4.546  12.821 -0.8956  0.3749 -1.5976
12047TIP3   OH257631   1.343   1.910   5.376 -0.7312  0.1967  0.5607
12047TIP3    H157632   1.314   1.829   5.420 -1.6528  2.1908  4.0292
12047TIP3    H257633   1.320   1.896   5.284  3.0265 -5.1086 -0.0524
12048TIP3   OH257634   0.638   1.047  17.196 -0.4448  0.0768  0.1815
12048TIP3    H157635   0.663   0.958  17.171 -2.2265 -0.4596  0.1673
12048TIP3    H257636   0.553   1.036  17.240 -1.1730  1.8643 -0.6962
12049TIP3   OH257637   3.722   5.873   1.511 -0.2283 -0.3588  0.5791
12049TIP3    H157638   3.707   5.783   1.480 -1.7485 -0.1881  0.7164
12049TIP3    H257639   3.640   5.919   1.489 -0.1202  0.5636  2.0111
12050TIP3   OH257640   0.179   2.879  17.178 -0.2804 -0.1678 -0.2104
12050TIP3    H157641   0.220   2.929  17.108 -0.3595  0.4819  0.2037
12050TIP3    H257642   0.155   2.944  17.244 -0.5758 -0.7234  0.2398
12051TIP3   OH257643   5.648   0.270   0.435 -0.1996  0.6233  0.5288
12051TIP3    H157644   5.700   0.320   0.372  0.9485 -1.6359 -0.4352
12051TIP3    H257645   5.708   0.251   0.507 -0.7062  0.8453  1.0201
12052TIP3   OH257646   4.665   1.124  14.840 -0.2093  0.1841  0.5459
12052TIP3    H157647   4.743   1.074  14.863 -0.5508 -0.7678 -0.3005
12052TIP3    H257648   4.687   1.167  14.758 -0.9035 -0.9175 -0.2490
12053TIP3   OH257649   2.964   6.562  11.422  0.3721 -0.2960  0.1100
12053TIP3    H157650   3.035   6.510  11.384 -0.8578 -0.4933 -2.0913
12053TIP3    H257651   2.901   6.572  11.350 -0.6382  2.0546  1.2262
12054TIP3   OH257652   6.073   4.692   4.225  0.0547  0.2124  0.0025
12054TIP3    H157653   6.132   4.629   4.267  0.5614  0.1928 -0.7212
12054TIP3    H257654   6.041   4.747   4.297 -0.1018 -0.6330  0.5844
12055TIP3   OH257655   5.056   4.764  16.880 -0.0162  0.0937  0.6123
12055TIP3    H157656   5.112   4.837  16.853 -0.7120  1.2302  2.0538
12055TIP3    H257657   5.108   4.686  16.864  0.7566  0.8805 -1.0017
12056TIP3   OH257658   4.631   3.460   4.740 -0.5640  0.8940 -0.2952
12056TIP3    H157659   4.629   3.429   4.650 -1.7396  2.0861 -0.7184
12056TIP3    H257660   4.582   3.395   4.790 -2.2753  1.5751 -1.0206
12057TIP3   OH257661   4.214   3.976   3.137  0.4074  0.2566 -0.0501
12057TIP3    H157662   4.218   3.882   3.157  1.3234  0.5102  1.0294
12057TIP3    H257663   4.146   4.009   3.196 -0.0004  0.2593 -0.5165
12058TIP3   OH257664   5.513   1.587   1.048 -0.3087 -0.3911  0.3998
12058TIP3    H157665   5.428   1.546   1.030 -0.0588 -0.4872 -0.5905
12058TIP3    H257666   5.496   1.641   1.126 -0.9000 -1.5254  1.0775
12059TIP3   OH257667   2.181   2.654  16.589 -0.1618 -0.1638 -0.3658
12059TIP3    H157668   2.138   2.730  16.628  0.0765  0.7104 -1.7199
12059TIP3    H257669   2.147   2.579  16.637 -1.9241  0.6418 -0.2969
12060TIP3   OH257670   2.561   6.110  13.303 -0.1243  0.1238 -0.3650
12060TIP3    H157671   2.520   6.142  13.223 -0.8911 -0.2709 -0.1324
12060TIP3    H257672   2.491   6.067  13.352  0.4800 -0.2417  0.2096
12061TIP3   OH257673   0.027   6.485   0.881 -0.3759  0.2482 -0.3737
12061TIP3    H157674   0.047   6.501   0.973  3.1754  0.2159 -0.9993
12061TIP3    H257675  -0.005   6.569   0.849  1.7540  1.3595  0.1983
12062TIP3   OH257676   1.823   1.098  16.956  0.0521 -0.1069  0.0425
12062TIP3    H157677   1.762   1.025  16.944  0.8420 -0.7282 -0.2897
12062TIP3    H257678   1.801   1.159  16.886  0.3632 -0.7296 -0.6104
12063TIP3   OH257679   4.068   3.639  13.135 -0.1334  0.5263 -0.4579
12063TIP3    H157680   4.089   3.546  13.139 -2.0170  0.0001 -1.4996
12063TIP3    H257681   4.092   3.673  13.221 -1.1671 -1.3396  0.6279
12064TIP3   OH257682   4.519   0.183  17.166  0.1701  0.3973 -0.5528
12064TIP3    H157683   4.506   0.180  17.261 -0.8493  0.8272 -0.6731
12064TIP3    H257684   4.473   0.261  17.137 -0.9727 -0.6193 -1.6156
12065TIP3   OH257685   6.397   2.219  11.745  0.1541 -0.2324  0.1618
12065TIP3    H157686   6.405   2.275  11.668  0.7784  0.7067  0.8818
12065TIP3    H257687   6.306   2.191  11.745  0.1403 -0.2483 -0.9043
12066TIP3   OH257688   3.118   2.455  15.679  0.6346 -0.2262  0.4050
12066TIP3    H157689   3.067   2.524  15.721  1.3030  0.9942 -0.7253
12066TIP3    H257690   3.090   2.375  15.724 -2.4765  0.3187 -0.3145
12067TIP3   OH257691   3.151   1.602   0.568 -0.1130 -0.3892  0.1486
12067TIP3    H157692   3.102   1.525   0.539 -0.8640  0.1207  0.0374
12067TIP3    H257693   3.112   1.625   0.652  0.2281 -0.2330  0.2649
12068TIP3   OH257694   2.381   3.384  16.897 -0.4735 -0.3739 -0.0030
12068TIP3    H157695   2.475   3.403  16.906 -0.6670  0.4027  0.5274
12068TIP3    H257696   2.370   3.362  16.805  0.4040 -1.5078  0.1478
12069TIP3   OH257697   0.953   5.072   4.772 -0.1514 -0.1443 -0.1734
12069TIP3    H157698   1.017   5.061   4.842  0.2252  0.4968 -0.4033
12069TIP3    H257699   0.930   4.983   4.746 -0.9285 -0.3981  1.3136
12070TIP3   OH257700   1.308   4.599   0.574  0.1942  0.0264 -0.3619
12070TIP3    H157701   1.373   4.533   0.548 -2.2954 -2.4085 -0.9403
12070TIP3    H257702   1.323   4.612   0.667 -0.0441 -2.5125  0.1146
12071TIP3   OH257703   3.139   0.686  15.711 -0.0908 -0.0196 -0.0473
12071TIP3    H157704   3.134   0.772  15.753  2.0856  0.1371  0.0092
12071TIP3    H257705   3.233   0.674  15.694 -0.6178 -1.2508 -2.4132
12072TIP3   OH257706   4.471   2.555   3.003 -1.1435 -0.9106  0.0458
12072TIP3    H157707   4.399   2.601   3.047 -0.6343 -0.7778  0.7699
12072TIP3    H257708   4.428   2.495   2.942 -1.8284  0.4237 -0.8378
12073TIP3   OH257709   0.404   2.540   0.592  0.5346 -0.6459 -0.2522
12073TIP3    H157710   0.327   2.484   0.600  0.4609 -1.0463 -2.7628
12073TIP3    H257711   0.380   2.621   0.637 -0.4019 -1.6315  1.0949
12074TIP3   OH257712   1.014   1.578   2.348 -1.1009  0.1866 -0.4482
12074TIP3    H157713   1.102   1.552   2.320 -1.0123 -0.1632  0.1478
12074TIP3    H257714   0.991   1.516   2.417 -1.6753  0.4978 -0.3520
12075TIP3   OH257715   2.365   5.461   2.609 -0.0871  0.4108 -0.1785
12075TIP3    H157716   2.416   5.423   2.537 -1.0941  1.0006 -1.2498
12075TIP3    H257717   2.415   5.539   2.635 -1.0162  1.7453 -2.1217
12076TIP3   OH257718   1.494   4.978  12.549  0.0384  0.2275  0.4419
12076TIP3    H157719   1.436   5.003  12.620 -0.0900  1.2251  0.0061
12076TIP3    H257720   1.578   4.962  12.591  0.1936  1.6852  0.7394
12077TIP3   OH257721   1.960   2.063  13.210  0.1831  0.0761  0.6231
12077TIP3    H157722   1.936   2.059  13.303  0.4583 -0.2466  0.6812
12077TIP3    H257723   2.017   1.987  13.197 -2.0055 -1.4760 -0.4286
12078TIP3   OH257724   0.735   4.624   5.634 -0.5993 -0.0051  0.2837
12078TIP3    H157725   0.783   4.599   5.555 -0.8275  0.0264  0.1361
12078TIP3    H257726   0.647   4.646   5.603 -0.4898  0.6876  0.4509
12079TIP3   OH257727   4.862   5.976   5.051 -0.3212  0.2600  0.5124
12079TIP3    H157728   4.828   5.897   5.093 -0.1638 -0.4392 -0.6485
12079TIP3    H257729   4.858   5.958   4.957  3.1283  0.1341  0.2570
12080TIP3   OH257730   2.229   0.780  12.653 -0.0408  0.0612 -0.3428
12080TIP3    H157731   2.221   0.771  12.558  2.7800 -0.1605 -0.6528
12080TIP3    H257732   2.257   0.871  12.666 -0.0367 -0.0191  0.2337
12081TIP3   OH257733   1.908   5.000  16.017  0.0947  0.2413 -0.0457
12081TIP3    H157734   1.950   5.086  16.013 -1.8581  1.3464  1.4604
12081TIP3    H257735   1.929   4.967  16.104 -1.9084  0.7544  0.6858
12082TIP3   OH257736   1.712   6.442  15.801  0.5888  0.7323  0.1805
12082TIP3    H157737   1.806   6.455  15.783  0.3136  2.0039 -0.5202
12082TIP3    H257738   1.704   6.453  15.896  1.2637 -0.2890  0.3732
12083TIP3   OH257739   6.638   2.822  16.197  0.0191  0.2733 -0.4507
12083TIP3    H157740   6.561   2.806  16.143 -1.4284  1.1666  1.2623
12083TIP3    H257741   6.656   2.915  16.186 -0.3282  0.4792  0.6085
12084TIP3   OH257742   0.260   0.768   1.835 -0.9391  0.3237  0.0453
12084TIP3    H157743   0.307   0.729   1.909 -1.1111  0.3407  0.1649
12084TIP3    H257744   0.221   0.847   1.871 -0.8247  0.4594 -0.1266
12085TIP3   OH257745   1.575   0.840  10.656 -0.0151  0.0270 -0.0856
12085TIP3    H157746   1.634   0.866  10.585 -1.3975  2.9969 -0.3381
12085TIP3    H257747   1.501   0.799  10.611 -0.0201  0.1494 -0.1903
12086TIP3   OH257748   5.129   3.201  12.785  0.5798  0.3552  0.1827
12086TIP3    H157749   5.075   3.142  12.838  0.3104  0.9632  0.5963
12086TIP3    H257750   5.216   3.162  12.788  0.5969  0.4251  1.1719
12087TIP3   OH257751   4.731   3.354  17.096 -0.0425 -0.4977 -0.2866
12087TIP3    H157752   4.671   3.383  17.165  1.1216 -1.3907  1.1683
12087TIP3    H257753   4.675   3.340  17.020 -1.5600 -0.5820  0.7962
12088TIP3   OH257754   0.685   3.309  15.688  0.1389  0.3483 -0.0094
12088TIP3    H157755   0.705   3.234  15.743  2.0212  1.6232  1.1564
12088TIP3    H257756   0.748   3.303  15.616  0.5769  1.0238  0.3132
12089TIP3   OH257757   1.079   0.560   2.564  0.1234 -0.1735  0.0799
12089TIP3    H157758   1.107   0.643   2.603  1.0878  0.6170 -2.1615
12089TIP3    H257759   0.988   0.574   2.538  0.4157  0.3434 -0.6766
12090TIP3   OH257760   3.682   1.604  15.870  0.3142  0.1634  0.3354
12090TIP3    H157761   3.587   1.600  15.879  0.3521  1.0771  1.3047
12090TIP3    H257762   3.696   1.642  15.783 -0.2291  0.9415  0.5758
12091TIP3   OH257763   1.246   3.504   1.193 -0.3138  0.1735  0.2025
12091TIP3    H157764   1.190   3.574   1.159 -1.3404 -0.2040  1.0445
12091TIP3    H257765   1.217   3.493   1.284  0.4045 -0.7682  0.3286
12092TIP3   OH257766   6.257   4.130   4.172  0.0189 -0.1812  0.1469
12092TIP3    H157767   6.351   4.115   4.171 -0.1198 -1.2106 -1.1781
12092TIP3    H257768   6.229   4.103   4.260  0.7516 -1.4996  0.0091
12093TIP3   OH257769   0.604   3.152   4.506 -0.3609 -0.2463  0.3598
12093TIP3    H157770   0.599   3.128   4.599 -0.5362  3.6116  1.5086
12093TIP3    H257771   0.679   3.212   4.501 -0.7153  0.0956 -1.8900
12094TIP3   OH257772   1.920   0.751   3.224 -0.1432 -0.3402 -0.2029
12094TIP3    H157773   1.897   0.659   3.236 -0.5157 -0.2030  0.1702
12094TIP3    H257774   1.855   0.799   3.276  2.0900 -0.0059  2.5439
12095TIP3   OH257775   4.039   6.283   5.377  0.3502 -0.4514  0.8348
12095TIP3    H157776   4.068   6.202   5.336 -0.4488 -0.7280  0.7884
12095TIP3    H257777   4.051   6.350   5.309  1.5105 -0.4286  1.0551
12096TIP3   OH257778   2.368   3.836   1.478 -0.3038 -0.1273 -0.6792
12096TIP3    H157779   2.303   3.828   1.548 -0.3688 -0.1775 -0.7449
12096TIP3    H257780   2.425   3.760   1.490 -1.7508 -1.5370 -2.1653
12097TIP3   OH257781   4.524   6.234  15.811  0.1047 -0.0382  0.1010
12097TIP3    H157782   4.432   6.209  15.801  0.1652 -0.3560  0.3116
12097TIP3    H257783   4.525   6.329  15.804 -0.6404  0.2707  2.9874
12098TIP3   OH257784   3.629   0.662   1.856  0.9693  0.1503 -0.1446
12098TIP3    H157785   3.630   0.734   1.793 -1.1405  0.5801  0.2233
12098TIP3    H257786   3.543   0.669   1.898  2.1316 -0.3352  2.5226
12099TIP3   OH257787   1.220   6.614  14.599  0.1576  0.6839 -0.4601
12099TIP3    H157788   1.218   6.578  14.510  0.0892  0.1468 -0.2443
12099TIP3    H257789   1.153   6.565  14.646  1.5112 -0.3856  0.4058
12100TIP3   OH257790   2.907   3.113  12.681 -0.3801  0.4430 -0.1784
12100TIP3    H157791   2.919   3.206  12.663  1.0511  0.9162  2.6942
12100TIP3    H257792   2.812   3.099  12.674 -0.7555  2.3842  0.4467
12101TIP3   OH257793   1.273   0.950  13.120 -0.4685 -0.5198  0.2591
12101TIP3    H157794   1.360   0.984  13.144 -1.7456  1.0632  3.0722
12101TIP3    H257795   1.230   1.024  13.077 -0.4835 -1.2850 -1.0852
12102TIP3   OH257796   6.723   2.766  11.904 -0.4714 -0.4304 -0.0979
12102TIP3    H157797   6.802   2.712  11.901 -0.6876 -0.7707  0.1943
12102TIP3    H257798   6.728   2.812  11.987 -0.3018 -0.0160 -0.3336
12103TIP3   OH257799   4.270   0.766  14.729 -0.1872  0.3388 -0.0329
12103TIP3    H157800   4.363   0.754  14.708 -0.6579 -1.4597 -1.2874
12103TIP3    H257801   4.233   0.811  14.654 -0.5878 -0.1709 -0.1491
12104TIP3   OH257802   0.170   1.673   1.138  0.3847  0.3002  0.1543
12104TIP3    H157803   0.193   1.727   1.062 -0.5589 -0.2060 -0.5111
12104TIP3    H257804   0.201   1.585   1.114  1.0795  0.3447  0.8393
12105TIP3   OH257805   3.086   4.926   0.460 -0.5968 -0.4662  0.8378
12105TIP3    H157806   3.057   4.933   0.551 -0.9610 -1.4679  0.8165
12105TIP3    H257807   3.165   4.980   0.456 -1.1034  0.3558  1.5033
12106TIP3   OH257808   3.079   4.349   4.385 -0.0954 -0.5340 -0.0575
12106TIP3    H157809   3.140   4.414   4.350  0.5403 -2.4590 -2.8680
12106TIP3    H257810   2.994   4.373   4.348 -0.1294 -0.5073  0.0382
12107TIP3   OH257811   5.586   2.875  11.913  0.1465 -0.0141 -0.1537
12107TIP3    H157812   5.620   2.964  11.905  0.2226  0.0351  0.6915
12107TIP3    H257813   5.512   2.882  11.974  0.6900 -0.6664  0.5956
12108TIP3   OH257814   1.871   0.143  14.325 -0.5415  0.4938  0.1599
12108TIP3    H157815   1.814   0.218  14.339  0.9374  1.7645 -0.3648
12108TIP3    H257816   1.857   0.087  14.402 -1.2270  1.5821  0.8489
12109TIP3   OH257817   4.457   0.340   3.663 -0.4049 -0.6728 -0.0088
12109TIP3    H157818   4.363   0.357   3.653 -0.6648 -0.6939  1.8915
12109TIP3    H257819   4.463   0.244   3.666  0.0695 -0.8169 -2.8023
12110TIP3   OH257820   4.641   0.173   2.404  0.8245  0.3962 -0.5820
12110TIP3    H157821   4.577   0.221   2.456  0.3438 -0.9257  0.1039
12110TIP3    H257822   4.589   0.115   2.349  1.3971  0.3709 -1.1143
12111TIP3   OH257823   2.414   2.482  16.636  0.2513  0.0563 -0.1790
12111TIP3    H157824   2.460   2.552  16.682  0.1069  0.2898 -0.3877
12111TIP3    H257825   2.341   2.526  16.592 -1.0294 -0.5111  1.3180
12112TIP3   OH257826   3.831   2.513   5.474 -0.2602 -0.1592  0.0291
12112TIP3    H157827   3.794   2.480   5.557 -1.8571  0.1056 -0.5343
12112TIP3    H257828   3.916   2.470   5.467 -1.6886 -3.3093 -0.0706
12113TIP3   OH257829   4.813   2.906   6.545 -0.0496 -0.1728  0.0817
12113TIP3    H157830   4.830   2.815   6.566 -0.1239 -0.0972  0.4727
12113TIP3    H257831   4.835   2.954   6.625  0.5394  0.2125 -0.3027
12114TIP3   OH257832   5.955   6.274   6.332 -0.7134  0.0461  0.1193
12114TIP3    H157833   5.915   6.294   6.417 -1.0818  1.4321 -0.3607
12114TIP3    H257834   5.926   6.344   6.274  0.1669 -0.4480 -0.9663
12115TIP3   OH257835   5.987   0.982   0.078  0.1434 -0.6922  0.0485
12115TIP3    H157836   5.963   0.993   0.170  1.4437 -1.1657  0.4626
12115TIP3    H257837   6.075   0.945   0.080  1.0013  1.0860 -1.3914
12116TIP3   OH257838   0.686   2.797   0.406  0.0815  0.1902 -0.4485
12116TIP3    H157839   0.591   2.801   0.394  0.0154  0.6558  0.1865
12116TIP3    H257840   0.699   2.740   0.481  0.1132  2.3810  1.3390
12117TIP3   OH257841   2.231   6.614   0.108  0.1537  0.0149  0.1179
12117TIP3    H157842   2.228   6.683   0.041  0.1245 -0.0255  0.0773
12117TIP3    H257843   2.218   6.660   0.191 -1.0825 -0.0808 -0.0010
12118TIP3   OH257844   5.099   4.950  12.331  0.4417 -0.0528 -0.0899
12118TIP3    H157845   5.128   4.994  12.410  0.1637 -0.7796  0.4246
12118TIP3    H257846   5.025   4.897  12.359  0.1854 -0.1326 -0.8889
12119TIP3   OH257847   2.773   4.261  11.238  0.3912 -0.3250  0.0085
12119TIP3    H157848   2.800   4.340  11.285 -0.4666  0.2760 -0.4701
12119TIP3    H257849   2.855   4.219  11.213  0.8608  0.2949  0.4721
12120TIP3   OH257850   4.595   6.098  12.788  0.5696  0.4473  0.0991
12120TIP3    H157851   4.547   6.149  12.853  2.1446  2.0508  0.0716
12120TIP3    H257852   4.682   6.137  12.786  1.7672 -2.0865 -0.1711
12121TIP3   OH257853   5.918   1.863   3.120 -0.4349  0.2649 -0.1144
12121TIP3    H157854   5.854   1.901   3.181 -0.3313 -1.1664  0.9373
12121TIP3    H257855   5.868   1.846   3.040 -1.3258 -0.5234  0.5842
12122TIP3   OH257856   2.697   1.260  13.697  0.6082 -0.0435  0.1555
12122TIP3    H157857   2.745   1.179  13.680  1.3627  0.9776 -3.4477
12122TIP3    H257858   2.634   1.237  13.766  0.5948 -3.7322 -0.8741
12123TIP3   OH257859   0.444   0.292  11.659  0.0342  0.2027  0.1876
12123TIP3    H157860   0.523   0.345  11.661  1.1114 -1.3348  0.2085
12123TIP3    H257861   0.458   0.224  11.725 -0.5183 -1.1437 -1.0042
12124TIP3   OH257862   1.935   6.000   1.080 -0.1594  0.0365 -0.0015
12124TIP3    H157863   1.992   5.948   1.022 -0.1002 -0.0312  0.1178
12124TIP3    H257864   1.852   6.005   1.032  0.4212  1.4836 -0.9183
12125TIP3   OH257865   0.351   2.529  13.435 -0.0756  0.1901  0.0401
12125TIP3    H157866   0.306   2.531  13.350  0.3124  1.2665 -0.1527
12125TIP3    H257867   0.284   2.556  13.497  0.2404  1.7347 -0.2404
12126TIP3   OH257868   4.841   5.380   4.065 -0.0956  0.6886 -0.2241
12126TIP3    H157869   4.896   5.390   3.987  1.1150  0.1115  0.5337
12126TIP3    H257870   4.793   5.298   4.050 -0.3758  0.9330 -0.6664
12127TIP3   OH257871   4.665   1.122  15.438  0.0558  0.2834  0.0292
12127TIP3    H157872   4.724   1.094  15.368  0.0575  2.0027 -0.6992
12127TIP3    H257873   4.618   1.197  15.402 -0.7236  0.5518  1.5071
12128TIP3   OH257874   1.752   4.677  13.951  0.0418 -0.6245 -0.0401
12128TIP3    H157875   1.813   4.655  14.021  2.4444  0.8016 -1.5370
12128TIP3    H257876   1.725   4.767  13.969 -0.7774 -0.8609 -0.0122
12129TIP3   OH257877   3.805   4.323  10.236 -0.1436 -0.2661  0.4630
12129TIP3    H157878   3.889   4.276  10.231 -0.0762 -0.2567  1.3515
12129TIP3    H257879   3.776   4.311  10.326 -1.1078 -0.2671  0.1584
12130TIP3   OH257880   1.826   1.867  12.940  0.3074 -0.2602  0.1092
12130TIP3    H157881   1.900   1.910  12.982  0.7682 -1.8219  0.9655
12130TIP3    H257882   1.824   1.904  12.851  1.6144  0.3855  0.3288
12131TIP3   OH257883   2.904   6.618  10.734 -0.2058 -0.1560 -0.3190
12131TIP3    H157884   2.827   6.561  10.744  1.7336 -2.9250  0.0978
12131TIP3    H257885   2.933   6.634  10.824  0.2289  0.0926 -0.5066
12132TIP3   OH257886   6.533   6.476   3.450  0.2266  0.1583  0.1839
12132TIP3    H157887   6.489   6.393   3.433 -2.0917  0.8749  2.1609
12132TIP3    H257888   6.618   6.450   3.488 -0.0543 -1.2867 -0.1074
12133TIP3   OH257889   3.804   1.208  13.004  0.0145  0.0025  0.3336
12133TIP3    H157890   3.827   1.237  12.916 -1.3708 -0.1648 -0.0981
12133TIP3    H257891   3.875   1.148  13.028  0.5212  0.2233 -0.5706
12134TIP3   OH257892   1.591   6.426  16.378 -0.0991 -0.0091  0.4785
12134TIP3    H157893   1.582   6.353  16.317  1.3122 -0.1399  0.3913
12134TIP3    H257894   1.679   6.461  16.361 -0.3817  1.1069  1.1788
12135TIP3   OH257895   3.193   6.577   5.982 -0.6471 -0.1140  0.5560
12135TIP3    H157896   3.110   6.565   6.028 -0.9718  0.7456  0.2175
12135TIP3    H257897   3.174   6.641   5.913  0.2778  0.0390  0.4192
12136TIP3   OH257898   2.903   0.717   0.478 -0.3132  0.1802  0.4838
12136TIP3    H157899   2.991   0.700   0.445  0.2847  0.7346  1.6973
12136TIP3    H257900   2.878   0.636   0.523 -0.3639  0.0612  0.2376
12137TIP3   OH257901   3.807   5.928   5.123 -0.5754  0.1248  0.1001
12137TIP3    H157902   3.899   5.905   5.128 -0.6960 -1.1453 -2.1416
12137TIP3    H257903   3.771   5.904   5.209  1.3528  1.7995  1.4563
12138TIP3   OH257904   5.035   5.844  11.365 -0.0911  0.5227 -0.0365
12138TIP3    H157905   5.081   5.818  11.285  1.8799  0.1428  1.1393
12138TIP3    H257906   5.034   5.940  11.362  0.6086  0.5334 -0.1976
12139TIP3   OH257907   4.823   0.003   5.517  0.3429  0.0603 -0.3684
12139TIP3    H157908   4.807   0.005   5.422 -1.0580  0.5485 -0.1418
12139TIP3    H257909   4.918  -0.007   5.524  0.7049  1.7737 -1.8469
12140TIP3   OH257910   4.059   2.142  14.331  0.2652  0.1397  0.1090
12140TIP3    H157911   4.137   2.148  14.385  0.2361  0.3534  0.1316
12140TIP3    H257912   4.040   2.233  14.307 -1.3220  0.3733  2.0050
12141TIP3   OH257913   1.521   0.325  13.016  0.0809 -0.2125  0.3652
12141TIP3    H157914   1.578   0.366  12.951 -0.1023  0.0348  0.3597
12141TIP3    H257915   1.460   0.272  12.965 -0.5868  0.6265  0.2783
12142TIP3   OH257916   4.853   4.189  13.930 -0.7294  0.3281 -0.1615
12142TIP3    H157917   4.946   4.178  13.947 -0.2731  1.5510 -1.6478
12142TIP3    H257918   4.834   4.127  13.860 -0.9883  0.2592 -0.0330
12143TIP3   OH257919   1.217   2.658   1.046 -0.5408 -0.3781  0.1157
12143TIP3    H157920   1.148   2.724   1.044 -1.3039 -1.1427  0.3906
12143TIP3    H257921   1.234   2.644   1.139 -0.9472 -1.1230  0.0868
12144TIP3   OH257922   4.727   0.555   0.537 -0.1308 -0.3116  0.2497
12144TIP3    H157923   4.739   0.565   0.443  0.1054  2.4384  0.5067
12144TIP3    H257924   4.809   0.588   0.575 -0.3353 -1.1133  1.4361
12145TIP3   OH257925   0.092   2.774  16.383 -0.1540 -0.3026  0.2069
12145TIP3    H157926   0.009   2.799  16.342 -0.1282  0.0869  0.3904
12145TIP3    H257927   0.159   2.803  16.321 -0.0691  1.1839  0.9656
12146TIP3   OH257928   6.511   0.775  16.936  0.2506  0.1714  1.0775
12146TIP3    H157929   6.560   0.711  16.988  0.6641  0.7695  1.4378
12146TIP3    H257930   6.429   0.786  16.984 -1.0656 -2.1551 -0.4494
12147TIP3   OH257931   2.969   0.215  14.831 -0.0208  0.0987 -0.2581
12147TIP3    H157932   3.020   0.216  14.912 -0.5163 -0.7799  0.0765
12147TIP3    H257933   2.912   0.291  14.838 -0.8739 -0.5987  0.7757
12148TIP3   OH257934   4.243   5.525  15.865  0.3022 -0.6332  0.2299
12148TIP3    H157935   4.166   5.503  15.813 -0.3248  0.0932  0.8196
12148TIP3    H257936   4.301   5.572  15.805 -1.0242  1.4531  0.4946
12149TIP3   OH257937   6.177   0.716   6.593  0.5759 -0.2007 -0.1832
12149TIP3    H157938   6.238   0.751   6.658 -3.7513  2.3090  3.0082
12149TIP3    H257939   6.147   0.633   6.630 -0.5487  0.3363  0.1465
12150TIP3   OH257940   3.592   3.963  14.919  0.3236  0.2607  0.7347
12150TIP3    H157941   3.627   3.874  14.919  0.7801  0.3493 -2.2150
12150TIP3    H257942   3.498   3.952  14.904  0.6837  0.2140 -2.0824
12151TIP3   OH257943   3.742   2.637  14.085  0.6377  0.4430  0.3041
12151TIP3    H157944   3.656   2.630  14.043  0.8282  0.8964 -0.1632
12151TIP3    H257945   3.724   2.630  14.178 -0.1560  2.6724  0.3664
12152TIP3   OH257946   3.994   4.107   5.755 -0.2556  0.4819 -0.5192
12152TIP3    H157947   4.060   4.140   5.816 -1.7513 -0.0055  1.4789
12152TIP3    H257948   4.029   4.023   5.725  0.5632  0.7841 -0.4321
12153TIP3   OH257949   0.943   2.142  14.783  0.1003 -0.0620 -0.5497
12153TIP3    H157950   0.921   2.084  14.710  2.6573 -0.5185 -1.0510
12153TIP3    H257951   1.019   2.102  14.824  0.7656  1.9335  0.3000
12154TIP3   OH257952   1.245   4.669   2.735 -0.3976  0.2502 -0.0325
12154TIP3    H157953   1.271   4.649   2.825  1.1599 -0.0381 -0.5115
12154TIP3    H257954   1.194   4.594   2.707 -1.3680  0.5926  0.7854
12155TIP3   OH257955   2.438   1.598   2.704  0.1450 -0.1236  0.1675
12155TIP3    H157956   2.519   1.552   2.684 -0.7490 -2.1415  0.9992
12155TIP3    H257957   2.464   1.690   2.712  1.9049 -0.3619 -1.9996
12156TIP3   OH257958   4.621   4.306   5.943 -0.1531 -0.3242  0.2118
12156TIP3    H157959   4.610   4.364   6.019  1.9496 -1.6759  1.6829
12156TIP3    H257960   4.675   4.356   5.882 -1.3664  0.5560 -0.1776
12157TIP3   OH257961   0.247   2.601  15.855 -0.4258  0.3812 -0.1618
12157TIP3    H157962   0.196   2.522  15.838  1.1032 -0.9844  1.2662
12157TIP3    H257963   0.181   2.670  15.864 -1.9847 -1.1387  0.7291
12158TIP3   OH257964   4.865   4.771   6.254  0.1929  0.0343 -0.8008
12158TIP3    H157965   4.834   4.763   6.345  0.0911  3.4787 -0.3892
12158TIP3    H257966   4.798   4.824   6.211  2.0079  1.6361 -1.8154
12159TIP3   OH257967   2.098   0.050  17.496 -0.1867 -0.3265  0.5946
12159TIP3    H157968   2.021   0.001  17.525 -1.7580  1.3550 -0.4724
12159TIP3    H257969   2.093   0.133  17.542  1.5857 -0.5517  1.2523
12160TIP3   OH257970   4.605   2.315   1.339 -0.1573 -0.0217 -0.6346
12160TIP3    H157971   4.578   2.396   1.384 -1.8674 -1.1507  0.5122
12160TIP3    H257972   4.635   2.258   1.410  0.4757 -0.6140 -1.3678
12161TIP3   OH257973   4.222   4.786  13.805 -0.0630  0.8200  0.8163
12161TIP3    H157974   4.220   4.865  13.751 -1.4242  0.2357 -0.0733
12161TIP3    H257975   4.270   4.723  13.752 -0.9406  0.4026  0.4884
12162TIP3   OH257976   6.384   2.460   5.139  0.5259  0.3800  0.8315
12162TIP3    H157977   6.436   2.405   5.198  0.1874  0.5546  1.2986
12162TIP3    H257978   6.313   2.404   5.110  1.2277 -0.0197 -0.2045
12163TIP3   OH257979   2.813   6.224  10.750 -0.0405  0.2226  0.1854
12163TIP3    H157980   2.858   6.267  10.677  1.4466 -1.0984  0.2783
12163TIP3    H257981   2.872   6.237  10.824  0.1601 -1.4581  0.3414
12164TIP3   OH257982   4.611   6.592  16.629  0.2711 -0.1263  0.8246
12164TIP3    H157983   4.614   6.618  16.537  0.4633  2.1111  1.4057
12164TIP3    H257984   4.676   6.647  16.673  0.8865 -1.8146  2.1872
12165TIP3   OH257985   3.821   2.506  13.705  0.9146 -0.4268  1.1140
12165TIP3    H157986   3.854   2.561  13.777  1.9039  2.3566 -1.2624
12165TIP3    H257987   3.731   2.538  13.691  1.9095  1.7740 -1.1164
12166TIP3   OH257988   5.051   3.975   2.643 -0.1738  0.0437 -0.6643
12166TIP3    H157989   5.049   3.879   2.645  1.0465 -0.1023 -2.9108
12166TIP3    H257990   4.980   3.999   2.584  0.7617  0.3546 -1.7129
12167TIP3   OH257991   0.106   6.229  16.561  0.4276 -0.5448  0.0269
12167TIP3    H157992   0.093   6.139  16.590 -1.9525  0.1136  1.2159
12167TIP3    H257993   0.175   6.263  16.619 -0.7710 -0.7560  1.6613
12168TIP3   OH257994   0.231   0.446   3.018  0.3081  0.7052  0.1584
12168TIP3    H157995   0.173   0.474   2.948  1.3148  0.3779 -0.8276
12168TIP3    H257996   0.274   0.526   3.048 -1.5824  1.1830  1.8310
12169TIP3   OH257997   5.818   3.017   2.213  0.0661  0.0511  0.6780
12169TIP3    H157998   5.805   2.923   2.204 -0.4640  0.1048  0.8787
12169TIP3    H257999   5.767   3.055   2.141 -2.2978  0.3522  2.3937
12170TIP3   OH258000   2.255   2.612  13.660 -0.0493  0.3720 -0.0018
12170TIP3    H158001   2.325   2.554  13.628 -0.5364  0.0874 -0.5721
12170TIP3    H258002   2.194   2.620  13.586 -1.1536 -0.2247  0.8100
12171TIP3   OH258003   5.084   4.612  16.133 -0.0181  0.4417 -0.4845
12171TIP3    H158004   5.105   4.527  16.171 -1.1827  0.0453 -0.6859
12171TIP3    H258005   5.005   4.640  16.179 -0.4724  0.7397 -1.4290
12172TIP3   OH258006   5.401   0.805  12.410 -0.4742  0.0938  0.8169
12172TIP3    H158007   5.456   0.873  12.451  0.7284 -0.3116 -0.0725
12172TIP3    H258008   5.366   0.847  12.331  1.5689 -0.7607 -0.6129
12173TIP3   OH258009   3.214   1.928  15.175  0.1636 -0.5144 -0.3893
12173TIP3    H158010   3.267   1.921  15.096  1.1720  2.1035 -0.0392
12173TIP3    H258011   3.148   1.994  15.154 -0.3556 -0.7235  0.5467
12174TIP3   OH258012   4.419   1.230  13.646 -0.2220  0.2970 -0.0764
12174TIP3    H158013   4.338   1.247  13.694  0.6334  2.7593  0.6516
12174TIP3    H258014   4.473   1.180  13.706 -1.1630 -1.3815 -0.5753
12175TIP3   OH258015   4.610   6.484   5.488  0.5064 -0.2973 -0.0937
12175TIP3    H158016   4.705   6.489   5.502  0.4435  0.1484  0.1981
12175TIP3    H258017   4.600   6.426   5.413  0.9560 -1.2487  0.5549
12176TIP3   OH258018   2.175   3.533   3.320 -0.8197  0.5307  0.5228
12176TIP3    H158019   2.115   3.594   3.363 -1.8232  0.6199 -0.9495
12176TIP3    H258020   2.186   3.462   3.384 -3.0863  0.1503  0.5728
12177TIP3   OH258021   6.179   0.541  17.248  0.0426 -0.6392  0.1597
12177TIP3    H158022   6.126   0.594  17.306  0.9443 -1.5523  1.9019
12177TIP3    H258023   6.266   0.582  17.251  0.4004 -1.4005  0.4384
12178TIP3   OH258024   3.496   3.864   5.436  0.0672  0.2573 -0.4273
12178TIP3    H158025   3.440   3.897   5.366  0.1795 -0.1095 -0.6937
12178TIP3    H258026   3.501   3.936   5.499 -2.1229 -0.3105  0.4705
12179TIP3   OH258027   5.137   2.027   2.763 -0.2025  0.0602 -0.6242
12179TIP3    H158028   5.126   1.987   2.849 -0.4300  2.5619  0.6039
12179TIP3    H258029   5.113   1.958   2.701 -2.5632 -1.0396  1.3553
12180TIP3   OH258030   0.966   2.369   0.622  0.3439 -0.2917 -0.1113
12180TIP3    H158031   1.034   2.366   0.555  0.0167 -0.0112 -0.4619
12180TIP3    H258032   0.993   2.441   0.680 -0.2870  0.6699 -0.9620
12181TIP3   OH258033   3.525   1.756  12.851 -0.5956  0.0830 -0.2085
12181TIP3    H158034   3.501   1.669  12.818  0.9273 -0.8700  1.0893
12181TIP3    H258035   3.521   1.748  12.946 -0.1431  1.3524 -0.0597
12182TIP3   OH258036   5.840   2.817   0.150  0.4081 -0.1855 -0.0462
12182TIP3    H158037   5.770   2.864   0.196  1.2385  0.1655  0.8932
12182TIP3    H258038   5.920   2.845   0.194  1.4231  1.1835 -2.5291
12183TIP3   OH258039   4.235   0.073   5.073  0.6594  0.0442 -0.1283
12183TIP3    H158040   4.308   0.023   5.109 -0.3399 -0.3398  1.4837
12183TIP3    H258041   4.252   0.076   4.979  2.1315 -1.0298  0.0658
12184TIP3   OH258042   2.128   4.577   5.631 -0.3646  0.5562  0.7050
12184TIP3    H158043   2.050   4.615   5.669 -0.3855 -0.3267  1.5821
12184TIP3    H258044   2.182   4.552   5.706  1.1379  1.8928  0.1191
12185TIP3   OH258045   2.634   4.248   5.284 -0.1859 -0.0747 -0.2493
12185TIP3    H158046   2.694   4.190   5.330  0.8347 -0.4850 -1.9985
12185TIP3    H258047   2.645   4.333   5.327  0.9008 -0.3919  0.1271
12186TIP3   OH258048   1.867   1.418  13.224 -0.4102  0.3389  0.4158
12186TIP3    H158049   1.946   1.465  13.195 -1.1821  1.3654 -0.0967
12186TIP3    H258050   1.858   1.442  13.316 -0.5091  0.8120  0.2891
12187TIP3   OH258051   0.316   1.437   0.992 -0.2542 -0.5419  0.4860
12187TIP3    H158052   0.251   1.464   0.927 -1.9187 -2.4448  1.2864
12187TIP3    H258053   0.399   1.471   0.958 -1.3896  0.4381 -1.4607
12188TIP3   OH258054   3.208   0.678   2.925  0.0280 -0.5151 -0.2704
12188TIP3    H158055   3.258   0.638   2.996 -1.0619 -0.2027  0.7107
12188TIP3    H258056   3.118   0.647   2.939 -0.5534  0.9866 -0.4048
12189TIP3   OH258057   4.759   2.187   5.571 -0.0525 -0.0550 -0.1760
12189TIP3    H158058   4.842   2.174   5.617 -0.4450 -1.2549  0.2236
12189TIP3    H258059   4.785   2.226   5.487  0.9436 -0.6661 -0.1708
12190TIP3   OH258060   1.004   1.196  17.263 -0.6411  0.2338 -0.0522
12190TIP3    H158061   1.096   1.184  17.286 -0.6774 -0.8397 -0.4057
12190TIP3    H258062   0.972   1.107  17.246 -1.2599  0.7303 -1.7026
12191TIP3   OH258063   4.881   6.314  11.714 -0.1500 -0.2736 -0.4868
12191TIP3    H158064   4.923   6.338  11.631 -0.4527  0.9836 -0.3023
12191TIP3    H258065   4.837   6.231  11.696 -0.7355  0.2905 -1.7749
12192TIP3   OH258066   1.662   3.970   5.443 -0.1399  0.2001 -0.0742
12192TIP3    H158067   1.665   4.064   5.461  2.9096  0.3380 -0.7659
12192TIP3    H258068   1.723   3.957   5.371 -0.8161 -2.2988 -0.3164
12193TIP3   OH258069   4.733   5.537  16.158  0.0545  0.1879  0.1350
12193TIP3    H158070   4.782   5.534  16.075  0.3811 -1.8749  0.3497
12193TIP3    H258071   4.664   5.472  16.147  0.2796 -0.3211  1.5677
12194TIP3   OH258072   1.758   6.042  11.143 -0.4999 -0.5649 -0.7993
12194TIP3    H158073   1.843   6.080  11.165 -0.8510 -0.0499 -0.3021
12194TIP3    H258074   1.776   5.950  11.125 -0.0759 -0.8452  0.9166
12195TIP3   OH258075   1.384   1.898   1.961  0.1444 -0.2380  0.0771
12195TIP3    H158076   1.338   1.900   1.877  2.1034 -2.6741 -1.1983
12195TIP3    H258077   1.476   1.912   1.938  0.6667 -0.5140  1.8607
12196TIP3   OH258078   5.522   0.088  12.485  0.4448 -0.0412 -0.3613
12196TIP3    H158079   5.517   0.183  12.491 -0.7268 -0.0390 -0.9887
12196TIP3    H258080   5.586   0.072  12.415  0.6867  0.2807 -0.2156
12197TIP3   OH258081   3.070   1.614   1.961 -0.0208 -0.1882 -0.2976
12197TIP3    H158082   3.131   1.632   1.889  1.6431 -0.8973  0.8858
12197TIP3    H258083   3.002   1.560   1.921 -1.4039  2.7390 -2.2730
12198TIP3   OH258084   4.583   1.795  13.032  0.6749 -0.8650  0.2057
12198TIP3    H158085   4.539   1.725  13.081  0.0001 -1.2432 -0.9229
12198TIP3    H258086   4.515   1.861  13.017  0.7708 -0.9371 -0.5728
12199TIP3   OH258087   4.496   6.088  17.521  0.0413  0.0009  0.0927
12199TIP3    H158088   4.533   6.176  17.530  1.3712 -0.4880 -0.3659
12199TIP3    H258089   4.510   6.065  17.429 -1.7682 -0.0765 -0.2047
12200TIP3   OH258090   1.441   2.875   4.891 -0.0730 -0.2130  0.9649
12200TIP3    H158091   1.500   2.815   4.844 -0.7665  0.4901 -0.9146
12200TIP3    H258092   1.354   2.851   4.860 -0.2887  2.5534 -0.9015
12201TIP3   OH258093   2.888   5.690  11.951 -0.4165 -0.2820 -0.4826
12201TIP3    H158094   2.864   5.756  12.016 -4.1002 -0.4754 -1.3813
12201TIP3    H258095   2.946   5.735  11.890 -1.0839  1.4849  0.1196
12202TIP3   OH258096   0.544   3.829   1.841 -0.3727 -0.1407  0.2125
12202TIP3    H158097   0.485   3.768   1.885  0.3756 -1.6495 -0.8127
12202TIP3    H258098   0.496   3.855   1.762 -0.6662  0.5833  0.6177
12203TIP3   OH258099   5.074   5.409   6.671  0.4010 -0.5653  0.1312
12203TIP3    H158100   5.149   5.349   6.674  0.7986 -0.2932 -2.3540
12203TIP3    H258101   5.112   5.496   6.684  0.1903 -0.5924  1.0045
12204TIP3   OH258102   4.186   0.855   0.877 -0.3462  0.5228 -0.0824
12204TIP3    H158103   4.189   0.782   0.939 -0.4123  1.4823  1.0783
12204TIP3    H258104   4.265   0.844   0.824 -1.0543 -1.1590 -0.8480
12205TIP3   OH258105   6.701   1.267   5.156  0.2340 -0.3662  0.7565
12205TIP3    H158106   6.632   1.302   5.099  2.3769  0.5122 -1.4909
12205TIP3    H258107   6.694   1.317   5.237 -0.5684  1.0914 -0.1650
12206TIP3   OH258108   5.791   3.840  16.769  0.5943  0.4366 -0.3239
12206TIP3    H158109   5.777   3.888  16.850  0.2122  0.1204 -0.1967
12206TIP3    H258110   5.703   3.832  16.730  0.8436  1.0706 -1.0454
12207TIP3   OH258111   6.183   0.326  12.872  0.0445 -0.1995  0.0180
12207TIP3    H158112   6.200   0.244  12.826 -1.0332 -0.0575 -0.6635
12207TIP3    H258113   6.195   0.305  12.965  2.5713 -0.4086 -0.2766
12208TIP3   OH258114   2.816   0.490   4.304  0.1830  0.4306  0.3079
12208TIP3    H158115   2.897   0.453   4.271 -0.1990  1.1476 -1.6014
12208TIP3    H258116   2.800   0.567   4.249 -0.9619  1.2499  1.6909
12209TIP3   OH258117   1.290   1.375  14.362  0.1558 -0.4413 -0.1935
12209TIP3    H158118   1.344   1.339  14.291  1.6348 -0.7188  1.0160
12209TIP3    H258119   1.204   1.388  14.323  0.9681 -0.4445 -2.0744
12210TIP3   OH258120   4.751   0.602  16.593  0.2715 -0.0008 -0.2170
12210TIP3    H158121   4.668   0.637  16.561  0.5053 -0.6212 -1.5762
12210TIP3    H258122   4.735   0.582  16.685 -0.7517  0.8851 -0.1850
12211TIP3   OH258123   1.846   4.095   0.942  0.1455 -0.3602  0.2782
12211TIP3    H158124   1.935   4.086   0.976 -0.1464  1.4671  1.7062
12211TIP3    H258125   1.793   4.037   0.997  0.1277  0.3569  1.0442
12212TIP3   OH258126   5.012   3.901  15.426  0.3051  0.1167 -0.0467
12212TIP3    H158127   5.006   3.985  15.471 -0.1079 -0.2552  0.5965
12212TIP3    H258128   5.094   3.862  15.458  0.9881  0.6687 -1.0519
12213TIP3   OH258129   6.593   5.054  12.599  0.2633  0.1321 -0.1806
12213TIP3    H158130   6.636   5.024  12.679 -0.3308 -0.4062 -0.0540
12213TIP3    H258131   6.628   4.997  12.530 -0.0328 -0.1291 -0.1201
12214TIP3   OH258132   4.299   2.537   4.023  0.1061 -0.3772  0.0348
12214TIP3    H158133   4.347   2.455   4.034 -0.5491 -0.8221 -0.2735
12214TIP3    H258134   4.249   2.524   3.942  0.9079  0.8013 -0.6732
12215TIP3   OH258135   0.593   4.384   5.484  0.1616  0.7045 -0.4083
12215TIP3    H158136   0.681   4.421   5.496  0.2623  0.2580  0.2943
12215TIP3    H258137   0.606   4.311   5.424  0.6163 -0.5541  1.1461
12216TIP3   OH258138   5.431   6.178   5.145 -0.3910  0.6238  0.4028
12216TIP3    H158139   5.464   6.100   5.189 -2.8977 -1.8781 -1.6904
12216TIP3    H258140   5.475   6.179   5.060 -0.3228  1.5609  0.4359
12217TIP3   OH258141   3.477   0.518   4.497 -0.7356 -0.4290  0.3232
12217TIP3    H158142   3.384   0.528   4.475 -1.0009 -1.8551  0.7154
12217TIP3    H258143   3.522   0.576   4.436 -1.8695  0.1508  0.0056
12218TIP3   OH258144   2.939   1.297  14.551 -0.3856 -0.1169  0.1743
12218TIP3    H158145   2.991   1.307  14.631 -0.3056 -0.9115  0.2336
12218TIP3    H258146   2.991   1.239  14.496 -0.7082 -0.0380 -0.2124
12219TIP3   OH258147   6.729   3.862   3.097 -0.3131 -0.8539 -0.5502
12219TIP3    H158148   6.734   3.780   3.147 -0.9405 -0.7945 -0.3773
12219TIP3    H258149   6.809   3.908   3.119  0.3081 -1.6562 -1.0737
12220TIP3   OH258150   6.640   4.827   5.677 -0.6140 -0.3452 -0.4286
12220TIP3    H158151   6.670   4.829   5.768 -0.8224 -1.0176 -0.3455
12220TIP3    H258152   6.562   4.882   5.676  0.6797  1.6200 -0.6897
12221TIP3   OH258153   3.089   4.497   2.508  0.2145 -0.2360 -0.7783
12221TIP3    H158154   3.101   4.588   2.537  0.4786 -1.3271  2.9819
12221TIP3    H258155   3.178   4.463   2.497  0.2401 -0.9550  1.2945
12222TIP3   OH258156   5.390   0.253   4.417 -0.3620  0.9636  0.4311
12222TIP3    H158157   5.482   0.248   4.391 -0.8360 -0.8034 -1.0547
12222TIP3    H258158   5.389   0.320   4.485  1.8188  1.8923 -0.3540
12223TIP3   OH258159   2.728   2.156  14.463  0.1135  0.0009 -0.2069
12223TIP3    H158160   2.803   2.097  14.460  0.0978 -0.1498  1.4448
12223TIP3    H258161   2.699   2.163  14.372  1.8559 -0.2769 -0.8224
12224TIP3   OH258162   2.623   6.465   1.324  0.2067  0.6087  0.1519
12224TIP3    H158163   2.645   6.441   1.234 -2.7150  0.5237 -0.6380
12224TIP3    H258164   2.652   6.556   1.332 -0.5525  1.0114 -1.3160
12225TIP3   OH258165   0.419   2.642   0.977  0.0948 -0.5005 -0.4605
12225TIP3    H158166   0.398   2.725   1.020 -0.9048  0.2026 -2.2175
12225TIP3    H258167   0.335   2.609   0.945  0.6261 -1.6474 -0.7434
12226TIP3   OH258168   4.740   2.750  13.143 -0.4307 -0.2152 -0.1335
12226TIP3    H158169   4.756   2.818  13.077 -0.1224 -1.2196 -1.1160
12226TIP3    H258170   4.752   2.668  13.096 -0.8754 -0.9600  1.0248
12227TIP3   OH258171   4.325   1.264  11.689 -0.0294  0.7460  0.2080
12227TIP3    H158172   4.386   1.208  11.738  1.9328  1.0096 -1.7590
12227TIP3    H258173   4.373   1.345  11.673 -1.3457  1.4459 -0.4207
12228TIP3   OH258174   5.228   1.994   5.679  0.4927  0.2042 -1.0110
12228TIP3    H158175   5.227   1.990   5.583 -1.6828  0.3708 -1.0494
12228TIP3    H258176   5.211   1.904   5.707  3.1847 -0.2770 -0.6731
12229TIP3   OH258177   0.210   3.247   5.202 -0.1051  0.2374  0.1055
12229TIP3    H158178   0.272   3.194   5.152  0.9951  1.7839 -0.2591
12229TIP3    H258179   0.170   3.305   5.136  1.6447  2.5750  0.9570
12230TIP3   OH258180   6.675   3.627   3.598  0.3377  0.1386 -0.1836
12230TIP3    H158181   6.734   3.682   3.649 -0.2342 -0.5384  1.2608
12230TIP3    H258182   6.665   3.673   3.514 -1.1100  2.9482  1.3766
12231TIP3   OH258183   1.118   4.319  14.635  0.3944 -0.3833  0.2952
12231TIP3    H158184   1.108   4.275  14.720  1.0398 -1.8529 -0.3594
12231TIP3    H258185   1.213   4.328  14.625  0.2864  0.7869  0.2042
12232TIP3   OH258186   3.371   6.745   6.122  0.4183 -0.3027  0.0066
12232TIP3    H158187   3.345   6.665   6.077 -1.8630  1.0626 -1.2704
12232TIP3    H258188   3.363   6.814   6.056  0.8420  1.2061  1.4644
12233TIP3   OH258189   6.580   5.715  14.990 -0.0798 -0.2404 -0.9947
12233TIP3    H158190   6.563   5.638  15.045  3.2846 -0.9722 -0.7546
12233TIP3    H258191   6.622   5.778  15.049 -0.2405  0.6638 -1.8109
12234TIP3   OH258192   1.223   6.764  13.885 -0.6235  0.2893  0.2045
12234TIP3    H158193   1.246   6.745  13.976  1.2550 -0.8644 -0.4512
12234TIP3    H258194   1.163   6.693  13.860 -1.2287  0.6690  0.5563
12235TIP3   OH258195   2.055   4.214  17.499  0.2123 -0.0905  0.0168
12235TIP3    H158196   1.985   4.149  17.492  0.4637 -0.1808 -2.7555
12235TIP3    H258197   2.053   4.242  17.591 -2.0765 -1.5732  0.4946
12236TIP3   OH258198   2.443   6.393   0.389  0.3144 -0.3979 -0.1518
12236TIP3    H158199   2.444   6.473   0.336  0.3163 -1.1192 -1.2686
12236TIP3    H258200   2.469   6.324   0.328 -0.9669 -1.4554  0.4662
12237TIP3   OH258201   1.521   0.934   2.534 -0.3437 -0.6255  0.0988
12237TIP3    H158202   1.570   0.869   2.584  1.8266  2.0412  1.7526
12237TIP3    H258203   1.553   0.924   2.445  1.9051 -0.2591  0.7894
12238TIP3   OH258204   2.675   0.642  15.404  0.4298  0.1820  0.2334
12238TIP3    H158205   2.621   0.721  15.397  0.9861  0.4755 -1.1889
12238TIP3    H258206   2.740   0.663  15.470 -0.3866  0.3120  1.0139
12239TIP3   OH258207   5.500   0.560   5.721 -0.3238 -0.0114 -0.3704
12239TIP3    H158208   5.578   0.546   5.775 -0.3292  0.4068 -0.2486
12239TIP3    H258209   5.533   0.564   5.632  0.1616  2.5918 -0.1654
12240TIP3   OH258210   1.549   6.153  14.882  0.4833  0.0718 -0.3639
12240TIP3    H158211   1.468   6.196  14.855  0.5478  0.5383  0.1750
12240TIP3    H258212   1.618   6.200  14.835  0.4856  0.0225 -0.4095
12241TIP3   OH258213   2.563   1.855   6.427  0.2814 -0.1791 -0.2081
12241TIP3    H158214   2.538   1.887   6.341 -0.6695 -1.3804 -0.4015
12241TIP3    H258215   2.514   1.910   6.489  2.8711  2.4157 -0.2394
12242TIP3   OH258216   0.118   1.210  13.206 -0.0900  0.7687  0.2884
12242TIP3    H158217   0.099   1.304  13.208  1.2072  1.0443  1.0201
12242TIP3    H258218   0.180   1.197  13.278 -0.4501 -0.6979  0.3523
12243TIP3   OH258219   3.232   4.537   4.285  0.2798  0.3155  0.2370
12243TIP3    H158220   3.175   4.587   4.226 -0.3316 -1.7354 -1.0081
12243TIP3    H258221   3.313   4.525   4.235  0.5426  0.3362  0.6555
12244TIP3   OH258222   4.286   1.599   4.345  0.9976 -0.2644 -0.5730
12244TIP3    H158223   4.191   1.608   4.343  1.0212 -0.0740 -1.3227
12244TIP3    H258224   4.308   1.563   4.259  1.8052  1.9404 -1.3684
12245TIP3   OH258225   1.306   2.647  10.545 -0.6993 -0.3918  0.1506
12245TIP3    H158226   1.251   2.725  10.541  0.2471  0.3281  0.7950
12245TIP3    H258227   1.395   2.680  10.536 -0.3769 -1.6350 -1.8941
12246TIP3   OH258228   4.393   6.594  15.976 -0.4768 -0.4374  0.0882
12246TIP3    H158229   4.395   6.549  15.891 -0.6215 -0.8339  0.2924
12246TIP3    H258230   4.393   6.687  15.954  1.8030 -0.4633 -0.3238
12247TIP3   OH258231   5.598   0.492  14.759  0.2275  0.2513  0.0224
12247TIP3    H158232   5.657   0.417  14.755  0.4676  0.3989  0.6892
12247TIP3    H258233   5.586   0.518  14.668  1.8557  0.7282 -0.0905
12248TIP3   OH258234   5.774   1.804  12.703  0.2055  0.1488  0.3023
12248TIP3    H158235   5.730   1.801  12.788  1.8787  0.9990  1.2574
12248TIP3    H258236   5.824   1.722  12.700  0.7590  0.4768  0.4985
12249TIP3   OH258237   2.917   5.204  16.124  0.7272  0.2068  0.2797
12249TIP3    H158238   2.871   5.285  16.103  0.5236  0.1941  0.6588
12249TIP3    H258239   2.899   5.146  16.051 -1.0698 -0.2995  1.0669
12250TIP3   OH258240   6.752   5.374  11.443  0.3733  0.4699  0.0674
12250TIP3    H158241   6.749   5.304  11.508 -0.3717 -0.0115 -0.4652
12250TIP3    H258242   6.662   5.379  11.409  0.8488  0.3549 -1.2860
12251TIP3   OH258243   0.111   2.055   2.963  0.1693  0.5936 -0.0338
12251TIP3    H158244   0.173   2.129   2.966 -2.1886  2.6782  0.6738
12251TIP3    H258245   0.108   2.024   3.053  0.5718  0.1129 -0.1807
12252TIP3   OH258246   3.734   6.244   3.111 -0.1830 -0.0289  0.0606
12252TIP3    H158247   3.719   6.173   3.174  1.2344 -0.1741  0.2772
12252TIP3    H258248   3.647   6.282   3.096 -0.9252 -1.5679  0.2213
12253TIP3   OH258249   0.517   4.625  17.331  0.1776  0.6953  0.0740
12253TIP3    H158250   0.436   4.594  17.290  0.2291 -0.7405  0.9940
12253TIP3    H258251   0.571   4.654  17.258 -0.9882  1.2876 -0.5895
12254TIP3   OH258252   4.059   4.217  12.746  0.8317 -0.0086 -0.3750
12254TIP3    H158253   4.125   4.202  12.814  1.8423 -1.1977 -1.5696
12254TIP3    H258254   4.060   4.136  12.694  0.2149  0.9435 -1.9225
12255TIP3   OH258255   5.019   6.167   3.575 -0.3294 -0.2151  0.6548
12255TIP3    H158256   5.087   6.230   3.550 -1.9629  0.5631 -2.3745
12255TIP3    H258257   4.966   6.214   3.639 -0.7517  1.0524 -0.5696
12256TIP3   OH258258   2.509   3.349  15.977  0.1915 -0.2716  0.0982
12256TIP3    H158259   2.413   3.351  15.970  0.0552 -0.5734  1.5430
12256TIP3    H258260   2.536   3.276  15.922 -0.4817 -0.7029  0.3336
12257TIP3   OH258261   5.386   3.494   1.229  0.0372 -0.0572 -0.1674
12257TIP3    H158262   5.396   3.585   1.202 -0.9501 -0.0657 -0.6039
12257TIP3    H258263   5.354   3.448   1.151 -0.0070 -0.6664  0.1957
12258TIP3   OH258264   4.230   2.924   2.253 -0.5293 -0.6483  0.6230
12258TIP3    H158265   4.317   2.962   2.264 -0.9600  0.4500  0.3159
12258TIP3    H258266   4.213   2.930   2.159 -0.4869 -1.8859  0.5253
12259TIP3   OH258267   3.644   5.713  15.227 -0.1646 -0.0205 -0.0281
12259TIP3    H158268   3.635   5.754  15.313 -0.2854 -0.2225  0.0547
12259TIP3    H258269   3.705   5.770  15.180 -1.7790  1.3047 -0.5781
12260TIP3   OH258270   1.339   5.165  15.515 -0.0496  0.1200  0.3582
12260TIP3    H158271   1.311   5.077  15.490 -0.3371  0.0547  0.8999
12260TIP3    H258272   1.276   5.223  15.472  0.2057  0.0679 -0.0893
12261TIP3   OH258273   6.765   1.920   4.723  0.3701  0.1113 -0.8276
12261TIP3    H158274   6.744   2.013   4.718  0.1781  0.2642  1.6153
12261TIP3    H258275   6.717   1.888   4.798  2.8875 -1.2241  0.3598
12262TIP3   OH258276   5.752   3.726  17.352  0.0151 -0.1664  0.0050
12262TIP3    H158277   5.753   3.678  17.270 -0.8752 -0.7507  0.3228
12262TIP3    H258278   5.698   3.803  17.335 -0.5921 -0.5478  0.1720
12263TIP3   OH258279   6.739   1.495   3.159 -0.7865 -0.3562 -0.3162
12263TIP3    H158280   6.733   1.486   3.064 -1.4073 -0.0538 -0.3077
12263TIP3    H258281   6.656   1.534   3.186 -0.4370 -0.0013  0.2987
12264TIP3   OH258282   5.995   2.019  10.877  0.1678  0.0844 -1.1352
12264TIP3    H158283   5.951   2.020  10.792 -0.6101  1.5694 -0.7393
12264TIP3    H258284   6.041   1.935  10.879 -0.7398 -0.4806 -2.5394
12265TIP3   OH258285   6.254   5.746  14.875  0.4291 -0.3390  0.2288
12265TIP3    H158286   6.204   5.780  14.801 -0.5469  0.4094  1.2068
12265TIP3    H258287   6.316   5.685  14.835  0.2815  0.4325 -1.2555
12266TIP3   OH258288   5.345   1.069  11.894  0.5407 -0.0756  0.0054
12266TIP3    H158289   5.297   1.048  11.975  0.1903  0.8096  0.0404
12266TIP3    H258290   5.433   1.035  11.909  0.2055 -0.8164  0.3561
12267TIP3   OH258291   1.182   1.163  11.438  0.6144 -0.5088  0.2735
12267TIP3    H158292   1.239   1.233  11.406  0.5979 -0.3389  0.6094
12267TIP3    H258293   1.186   1.171  11.533  0.8129 -1.1272  0.3168
12268TIP3   OH258294   2.442   6.415  13.600 -0.1085  0.3562 -0.0345
12268TIP3    H158295   2.392   6.488  13.564  0.0775  0.8730  0.7242
12268TIP3    H258296   2.421   6.415  13.694 -0.2415 -0.6741 -0.0540
12269TIP3   OH258297   6.758   1.386   0.620  0.3158 -0.5210 -0.2846
12269TIP3    H158298   6.662   1.390   0.628  0.4788 -0.7112  2.3814
12269TIP3    H258299   6.773   1.306   0.570 -0.9092 -0.2462 -1.1585
12270TIP3   OH258300   4.923   0.382   5.991 -0.0477  0.2023  0.0705
12270TIP3    H158301   4.870   0.417   5.919  0.0772 -1.0518 -0.6804
12270TIP3    H258302   4.929   0.288   5.972 -0.3949 -0.2557  1.9814
12271TIP3   OH258303   2.803   0.816  16.419 -0.0111  0.3033  0.6528
12271TIP3    H158304   2.828   0.734  16.376  0.8457  1.0949 -0.4021
12271TIP3    H258305   2.886   0.854  16.449 -0.3188  1.1136  0.5099
12272TIP3   OH258306   6.035   5.462  17.092  0.7038 -0.0642  0.4135
12272TIP3    H158307   6.066   5.521  17.024  1.1051 -0.4938  0.2139
12272TIP3    H258308   5.968   5.511  17.139  0.8183  0.4333  0.0592
12273TIP3   OH258309   4.867   6.406   6.989  0.1221  0.1768  0.2235
12273TIP3    H158310   4.821   6.364   6.917 -0.2520 -0.3003  0.7393
12273TIP3    H258311   4.809   6.397   7.064 -0.2330  2.1147  0.2416
12274TIP3   OH258312   2.286   1.927   5.904  0.7698 -0.2793 -0.2456
12274TIP3    H158313   2.374   1.889   5.901  1.0001  0.2764 -0.9734
12274TIP3    H258314   2.254   1.908   5.992  1.2450 -1.3158 -0.2836
12275TIP3   OH258315   6.038   6.753  14.411 -0.4931 -0.4648  0.1562
12275TIP3    H158316   6.089   6.779  14.334 -3.1978 -0.7456 -1.8917
12275TIP3    H258317   6.094   6.689  14.455  0.6390 -1.4452 -2.4342
12276TIP3   OH258318   0.167   1.763  14.088  0.4886  0.2455  0.8856
12276TIP3    H158319   0.131   1.852  14.093  1.1115  0.9160 -2.8884
12276TIP3    H258320   0.260   1.773  14.110  0.4853  0.4661  0.7988
12277TIP3   OH258321   6.303   4.671  12.134 -0.1906 -0.5965  0.3650
12277TIP3    H158322   6.247   4.688  12.059 -1.4292 -1.6286  1.0155
12277TIP3    H258323   6.296   4.576  12.149  2.3398 -0.9129  0.0219
12278TIP3   OH258324   3.386   6.218  17.240  0.4573 -0.3094  0.1654
12278TIP3    H158325   3.353   6.285  17.179  0.0824 -0.2235  0.4571
12278TIP3    H258326   3.426   6.268  17.311 -0.9457 -0.3417  1.0225
12279TIP3   OH258327   1.658   6.122   0.420 -0.3742  0.0761 -0.3891
12279TIP3    H158328   1.633   6.150   0.508 -0.2004 -0.5037 -0.1548
12279TIP3    H258329   1.691   6.033   0.431  1.0931  0.5422 -0.8054
12280TIP3   OH258330   5.077   0.716  16.682 -0.2751  0.2830  0.2573
12280TIP3    H158331   5.043   0.789  16.734  0.8820 -0.2879  1.9299
12280TIP3    H258332   5.040   0.638  16.723 -0.6687 -0.1287 -0.8543
12281TIP3   OH258333   2.671   6.668  11.447  0.5629  0.3336  0.2722
12281TIP3    H158334   2.738   6.660  11.516 -1.0155 -1.2839  1.7271
12281TIP3    H258335   2.623   6.747  11.470  1.1028  0.7475  0.0077
12282TIP3   OH258336   3.068   1.524  12.965  0.1028 -0.0182 -0.1046
12282TIP3    H158337   3.070   1.603  12.911  0.6330 -0.8348 -1.3200
12282TIP3    H258338   2.974   1.507  12.980 -0.0009  1.0477  0.5165
12283TIP3   OH258339   4.843   0.668   0.859  0.5489  0.0663  0.1889
12283TIP3    H158340   4.866   0.756   0.890 -1.9692  0.9325 -0.0909
12283TIP3    H258341   4.895   0.655   0.780  0.3142  1.7433 -0.2879
12284TIP3   OH258342   5.357   1.639  12.980  0.0341  0.1959 -0.0586
12284TIP3    H158343   5.439   1.664  13.023  0.9488 -1.0169 -1.0165
12284TIP3    H258344   5.333   1.556  13.021  0.4978 -0.5763 -1.2870
12285TIP3   OH258345   0.437   5.817  11.370  0.0530  0.0058  0.5615
12285TIP3    H158346   0.347   5.835  11.397 -1.0061 -1.9162 -1.3670
12285TIP3    H258347   0.484   5.898  11.389 -1.5807  0.4328  3.4737
12286TIP3   OH258348   0.121   0.806  11.404 -0.2950 -0.3549  0.4074
12286TIP3    H158349   0.207   0.765  11.415  0.5217  0.4955 -2.0544
12286TIP3    H258350   0.133   0.895  11.436 -0.2398 -0.2267  0.0331
12287TIP3   OH258351   2.519   6.447  12.977  0.1168 -0.1835  0.3040
12287TIP3    H158352   2.580   6.374  12.981  0.1407 -0.1642  0.2951
12287TIP3    H258353   2.468   6.440  13.057 -1.2261 -1.3826 -0.6000
12288TIP3   OH258354   0.573   0.534   0.985  0.2654 -0.4599 -0.0200
12288TIP3    H158355   0.540   0.584   0.911 -0.3102 -0.0865  0.4840
12288TIP3    H258356   0.498   0.482   1.014  1.1052 -2.4432 -1.1835
12289TIP3   OH258357   4.919   1.455  15.608  0.4048  0.0427  0.0974
12289TIP3    H158358   4.832   1.418  15.625  0.9974 -1.0288  0.9201
12289TIP3    H258359   4.930   1.445  15.513  0.0843 -0.8597  0.1417
12290TIP3   OH258360   5.173   4.929  12.894 -0.6085 -0.4072  0.8441
12290TIP3    H158361   5.115   4.959  12.824 -0.1275 -0.7695  0.2795
12290TIP3    H258362   5.127   4.951  12.975 -1.2739 -0.1880  0.4125
12291TIP3   OH258363   3.053   5.041   4.141  0.0183  0.0836 -0.1804
12291TIP3    H158364   3.093   5.028   4.055 -1.7945  0.1372 -1.0665
12291TIP3    H258365   2.997   5.117   4.130 -1.4940 -0.8701  0.5717
12292TIP3   OH258366   6.555   0.330  17.460  1.0958 -0.3122  0.2604
12292TIP3    H158367   6.627   0.273  17.432  0.9060 -0.6457  0.4443
12292TIP3    H258368   6.516   0.361  17.378 -0.1639 -2.1634  0.0835
12293TIP3   OH258369   1.435   1.396   0.186 -0.3893 -0.2343  0.6272
12293TIP3    H158370   1.370   1.458   0.220 -2.7915 -2.1505 -0.2150
12293TIP3    H258371   1.467   1.350   0.263  1.0454  1.5762  1.2015
12294TIP3   OH258372   5.991   6.261   4.613  0.5944  0.2613 -0.3190
12294TIP3    H158373   5.964   6.271   4.704  1.0063 -0.4195 -0.1159
12294TIP3    H258374   5.910   6.259   4.563  0.1440 -2.7860  0.3665
12295TIP3   OH258375   1.438   4.742   5.313  0.4091  0.1582 -0.2957
12295TIP3    H158376   1.465   4.829   5.283  0.8839  0.1092 -0.0272
12295TIP3    H258377   1.397   4.702   5.237  3.7533 -0.8865 -1.7387
12296TIP3   OH258378   0.880   1.083   1.117 -0.8037  0.1445 -0.2001
12296TIP3    H158379   0.975   1.091   1.125 -0.7349 -0.1150 -0.6858
12296TIP3    H258380   0.845   1.158   1.165 -0.2740  1.6892 -2.0869
12297TIP3   OH258381   6.221   5.324  12.994  0.3538  0.0675  0.5255
12297TIP3    H158382   6.245   5.373  13.073  0.3708  0.0828  0.5111
12297TIP3    H258383   6.158   5.381  12.949 -0.1643 -0.2243  0.8588
12298TIP3   OH258384   5.449   2.838  16.327 -0.0885 -0.1526 -0.0005
12298TIP3    H158385   5.455   2.933  16.325 -0.1718 -0.1284 -2.6701
12298TIP3    H258386   5.538   2.808  16.344  0.0063  0.3982  0.4780
12299TIP3   OH258387   4.537   3.426   0.366  0.1401  0.1378  0.3623
12299TIP3    H158388   4.540   3.358   0.300 -0.9360  1.9200 -1.6502
12299TIP3    H258389   4.448   3.422   0.401  0.7114 -0.8208  1.8135
12300TIP3   OH258390   5.401   6.244   3.946  0.0426 -0.6714 -0.1294
12300TIP3    H158391   5.307   6.228   3.950  0.0858 -0.8339  0.3294
12300TIP3    H258392   5.414   6.294   3.866 -0.7189  1.2739  0.8953
12301TIP3   OH258393   4.232   2.180  11.788 -0.0393 -0.2146  0.1002
12301TIP3    H158394   4.165   2.217  11.730 -0.2432 -0.0030  0.4639
12301TIP3    H258395   4.315   2.201  11.745 -0.2140 -0.8354 -0.5624
12302TIP3   OH258396   3.434   2.542  12.925 -0.4526  0.4961  0.1863
12302TIP3    H158397   3.458   2.449  12.925  0.1770  0.6563  0.5323
12302TIP3    H258398   3.416   2.562  13.017  1.1552  1.1554  0.3833
12303TIP3   OH258399   6.581   5.843   3.431 -0.3621  0.2751 -0.0903
12303TIP3    H158400   6.628   5.926   3.441  1.2669 -0.5864 -0.1634
12303TIP3    H258401   6.583   5.803   3.518 -0.2606 -0.1227 -0.2715
12304TIP3   OH258402   1.722   1.951   0.334  0.0434 -0.3698  0.2492
12304TIP3    H158403   1.640   1.994   0.359  1.2292  1.5063  1.1466
12304TIP3    H258404   1.716   1.863   0.373 -1.4553 -0.2178  0.4163
12305TIP3   OH258405   5.429   3.480  13.978  0.7679 -0.3359 -0.0748
12305TIP3    H158406   5.404   3.542  14.046 -2.1249 -1.1587 -0.2720
12305TIP3    H258407   5.465   3.405  14.026 -1.5264 -1.0390  0.6586
12306TIP3   OH258408   4.697   3.839   1.940 -0.8264  0.2557  0.2567
12306TIP3    H158409   4.697   3.743   1.941 -0.7909  0.2538  0.0750
12306TIP3    H258410   4.644   3.863   2.017 -2.8456  0.0648 -1.0063
12307TIP3   OH258411   4.578   4.165  13.412  0.4938 -0.0181 -0.8543
12307TIP3    H158412   4.512   4.168  13.481  1.1215 -1.3157 -0.1632
12307TIP3    H258413   4.650   4.219  13.443  0.7079 -0.4673 -0.5729
12308TIP3   OH258414   5.505   6.266  15.782 -0.0501  0.6037 -0.4788
12308TIP3    H158415   5.600   6.266  15.770 -0.0213  0.2169 -0.2544
12308TIP3    H258416   5.493   6.247  15.874 -0.3923 -1.4830 -0.9180
12309TIP3   OH258417   6.005   6.343  13.143 -0.0143 -0.1704  0.0318
12309TIP3    H158418   6.061   6.359  13.219 -0.1118 -0.9509  0.2707
12309TIP3    H258419   6.055   6.379  13.070  2.0246 -3.0422 -0.1693
12310TIP3   OH258420   2.503   2.394   1.971 -0.1834  0.0400 -0.5879
12310TIP3    H158421   2.515   2.327   1.903  1.6409  0.2519 -0.5168
12310TIP3    H258422   2.442   2.457   1.932 -0.7447 -0.8738 -1.2315
12311TIP3   OH258423   4.346   5.393   1.362  0.0252 -0.2094 -0.0310
12311TIP3    H158424   4.382   5.333   1.297  0.0206 -0.8528  0.5584
12311TIP3    H258425   4.388   5.368   1.444  0.0259  0.5956  0.2245
12312TIP3   OH258426   4.172   4.726  17.111 -0.3754  0.1501 -0.1804
12312TIP3    H158427   4.111   4.797  17.090 -1.2717 -0.4079  0.4651
12312TIP3    H258428   4.231   4.763  17.177  1.1012  1.2274 -1.9957
12313TIP3   OH258429   5.481   2.238   1.204  0.1031  0.0631 -0.1067
12313TIP3    H158430   5.535   2.316   1.219 -0.9973  0.4252  2.5678
12313TIP3    H258431   5.392   2.271   1.198 -0.5498 -0.9969  2.4564
12314TIP3   OH258432   2.105   2.383  14.367  0.0984  0.1798 -0.2499
12314TIP3    H158433   2.154   2.370  14.286  1.5892 -3.0331  1.0060
12314TIP3    H258434   2.170   2.409  14.431 -0.5630 -0.0359  0.5291
12315TIP3   OH258435   5.079   4.570   1.156  0.2188  0.1191 -0.3961
12315TIP3    H158436   5.062   4.655   1.196  0.2973  0.8199 -1.7856
12315TIP3    H258437   5.092   4.589   1.063 -0.4098 -1.4918 -0.8560
12316TIP3   OH258438   4.758   5.938  14.354 -0.4060  0.6839  0.4425
12316TIP3    H158439   4.686   5.938  14.417  0.1084 -0.3634  1.0555
12316TIP3    H258440   4.833   5.902  14.403 -0.1842 -0.9040 -0.9619
12317TIP3   OH258441   4.892   4.444   2.682 -0.0188 -0.1188 -0.2073
12317TIP3    H158442   4.948   4.366   2.686 -0.5260 -0.4865 -0.1681
12317TIP3    H258443   4.952   4.517   2.696  0.5064 -0.4841 -0.4948
12318TIP3   OH258444   5.623   3.881   4.132  0.2811 -0.5720  0.8068
12318TIP3    H158445   5.630   3.875   4.037  0.0633  0.5002  0.7125
12318TIP3    H258446   5.684   3.815   4.165 -0.9640 -2.2612 -0.0692
12319TIP3   OH258447   2.725   6.129  15.404 -0.0206  0.3472  0.3964
12319TIP3    H158448   2.670   6.052  15.390  1.8118 -0.7099 -1.4701
12319TIP3    H258449   2.788   6.102  15.470 -0.0150  0.6055  0.4973
12320TIP3   OH258450   2.506   0.177  14.223  0.4838  0.2512 -0.6423
12320TIP3    H158451   2.534   0.085  14.221 -1.1533 -0.4047  1.5733
12320TIP3    H258452   2.543   0.211  14.304 -1.1318  0.6964 -0.0369
12321TIP3   OH258453   1.016   2.267   0.968  0.3442  0.2457 -0.7052
12321TIP3    H158454   0.929   2.230   0.976  0.4723  0.1251  0.2141
12321TIP3    H258455   1.048   2.234   0.884  0.8265 -2.5846  0.4535
12322TIP3   OH258456   2.990   2.990   2.527 -0.4546 -0.7459  0.0862
12322TIP3    H158457   3.016   2.946   2.608 -1.1175 -4.2051 -1.4042
12322TIP3    H258458   3.059   2.968   2.464 -1.1559 -0.1956 -0.9120
12323TIP3   OH258459   6.421   6.700  15.170  0.3639  0.2531 -0.1505
12323TIP3    H158460   6.338   6.745  15.153  0.0052 -0.4434 -0.2429
12323TIP3    H258461   6.418   6.678  15.263  2.0480  3.4825  0.8198
12324TIP3   OH258462   0.364   6.228  17.488  0.3468  0.0050  0.2985
12324TIP3    H158463   0.399   6.310  17.521 -1.1427  0.6289  0.3730
12324TIP3    H258464   0.426   6.202  17.419  0.8517  1.1682  0.2960
12325TIP3   OH258465   2.583   1.077   2.049  0.0284  0.1704 -0.6954
12325TIP3    H158466   2.494   1.041   2.056  0.4978 -0.9259 -0.1690
12325TIP3    H258467   2.630   1.039   2.123  2.2421 -3.1801 -3.5115
12326TIP3   OH258468   4.803   4.458   1.118 -0.1180 -0.2730 -0.0015
12326TIP3    H158469   4.781   4.398   1.190  0.6045 -0.4180  0.1069
12326TIP3    H258470   4.891   4.490   1.140  0.5776 -1.1812 -1.3994
12327TIP3   OH258471   4.621   0.321   1.652 -0.3577  0.5845  0.0482
12327TIP3    H158472   4.707   0.312   1.610 -0.8421 -0.4560 -0.7920
12327TIP3    H258473   4.636   0.378   1.727  1.5154 -1.2436  1.1681
12328TIP3   OH258474   0.676   0.369   2.513  0.6275  0.2183  0.4903
12328TIP3    H158475   0.764   0.348   2.544  1.6469  0.4251 -2.0161
12328TIP3    H258476   0.638   0.285   2.490  2.5870  0.2968 -4.1602
12329TIP3   OH258477   0.673   1.106   0.275 -0.0139 -0.3963  0.2355
12329TIP3    H158478   0.596   1.080   0.326  1.1288 -0.4692  2.0542
12329TIP3    H258479   0.666   1.201   0.268 -1.1916 -0.5733 -1.2407
12330TIP3   OH258480   3.300   3.278   2.412 -0.0050  0.6783  0.1408
12330TIP3    H158481   3.330   3.228   2.488  0.2780  0.3849 -0.1645
12330TIP3    H258482   3.220   3.321   2.443 -0.2912 -0.0155  0.3880
12331TIP3   OH258483   3.177   1.143  14.467 -0.2821  0.4776  0.2562
12331TIP3    H158484   3.252   1.153  14.409 -0.4329 -1.6500 -0.3898
12331TIP3    H258485   3.215   1.141  14.555  0.3893 -0.1568 -0.0358
12332TIP3   OH258486   5.379   1.915   0.220 -0.3552  0.0966 -0.4147
12332TIP3    H158487   5.318   1.918   0.294  1.9372 -0.2120  1.6440
12332TIP3    H258488   5.343   1.848   0.162 -2.2762  0.3642  0.3845
12333TIP3   OH258489   0.337   4.778   6.712 -0.3811  0.4662 -0.3808
12333TIP3    H158490   0.265   4.840   6.697 -0.7434 -0.3126 -2.0625
12333TIP3    H258491   0.336   4.721   6.635  1.4713 -0.1370 -0.0068
12334TIP3   OH258492   3.320   4.772  14.767 -0.1169  0.0542 -0.3250
12334TIP3    H158493   3.375   4.834  14.815  0.4099  0.9745 -2.0121
12334TIP3    H258494   3.340   4.687  14.805  0.5142  0.6996  0.8375
12335TIP3   OH258495   1.250   0.120   0.964  0.0523 -0.2722  0.0882
12335TIP3    H158496   1.303   0.058   0.914 -0.6189 -1.0516  0.3175
12335TIP3    H258497   1.160   0.091   0.950 -0.1417 -0.7361  2.0152
12336TIP3   OH258498   5.033   0.580   5.047  0.2030  0.4242  0.0621
12336TIP3    H158499   4.982   0.575   4.966 -0.3706  0.0930  0.4344
12336TIP3    H258500   4.967   0.589   5.116  0.6162 -0.5026  0.6015
12337TIP3   OH258501   1.882   1.831  11.050 -0.1891 -0.4488  0.4502
12337TIP3    H158502   1.846   1.868  10.969  0.6005 -0.9534 -0.1422
12337TIP3    H258503   1.840   1.882  11.119  2.5033  3.2811 -0.3105
12338TIP3   OH258504   5.731   1.421   1.168 -0.0623 -0.0009  0.2536
12338TIP3    H158505   5.783   1.487   1.214 -0.6317  0.7511 -0.1705
12338TIP3    H258506   5.661   1.470   1.126  0.0786 -0.7516 -0.8949
12339TIP3   OH258507   3.426   6.241  15.418 -0.4042 -0.1606 -0.0399
12339TIP3    H158508   3.344   6.235  15.466  0.2084 -0.2756  1.0402
12339TIP3    H258509   3.483   6.177  15.461  0.7985  1.1530  0.3918
12340TIP3   OH258510   2.455   4.170   5.082  0.3665  0.2438 -0.3471
12340TIP3    H158511   2.520   4.181   5.151 -1.3816  0.6032  1.3458
12340TIP3    H258512   2.493   4.106   5.022  2.1951  0.3704  0.6105
12341TIP3   OH258513   1.539   5.820   5.711 -0.5912 -0.1057 -0.2118
12341TIP3    H158514   1.585   5.826   5.795 -0.9908 -0.7520  0.0605
12341TIP3    H258515   1.461   5.769   5.730 -0.6236 -0.3633 -1.0074
12342TIP3   OH258516   5.603   6.161  11.828  0.0040 -0.6836  0.0247
12342TIP3    H158517   5.673   6.222  11.802 -1.9602  1.3961 -0.7648
12342TIP3    H258518   5.623   6.080  11.780  0.7134  0.5651 -1.9276
12343TIP3   OH258519   0.828   5.380   1.443 -0.7647 -0.1771 -0.6167
12343TIP3    H158520   0.811   5.430   1.523  0.1603  0.3709 -0.7496
12343TIP3    H258521   0.883   5.307   1.471  1.2302  1.0963 -1.0184
12344TIP3   OH258522   4.978   4.950  11.269 -0.5111 -0.0263  0.0006
12344TIP3    H158523   4.972   4.864  11.312  1.0201 -0.3201 -0.3308
12344TIP3    H258524   5.068   4.955  11.238 -0.3166  2.0657  0.7575
12345TIP3   OH258525   3.176   2.964  15.054 -0.3827 -0.3398  0.6885
12345TIP3    H158526   3.090   2.937  15.022 -0.2110 -1.1539  0.8953
12345TIP3    H258527   3.209   2.888  15.101  0.2547  0.1310  1.0123
12346TIP3   OH258528   1.251   1.716   4.603  0.1536  0.3822 -0.2303
12346TIP3    H158529   1.316   1.730   4.672 -0.0881  0.3825 -0.0029
12346TIP3    H258530   1.168   1.704   4.649 -0.4432  2.6483 -0.5645
12347TIP3   OH258531   6.024   5.527  12.377  0.8856 -0.6477 -0.0191
12347TIP3    H158532   6.034   5.582  12.455 -0.3836 -0.0023 -0.2858
12347TIP3    H258533   6.062   5.443  12.402  0.3174 -0.5133  1.3734
12348TIP3   OH258534   1.893   2.630  17.136  0.4920 -0.4635  0.0043
12348TIP3    H158535   1.862   2.541  17.119 -0.4998  0.1781 -1.8680
12348TIP3    H258536   1.978   2.634  17.093  1.2661 -0.9484  1.4479
12349TIP3   OH258537   5.404   1.348  14.834  0.1240  0.1379  0.2209
12349TIP3    H158538   5.435   1.318  14.749  0.8048  0.5394  0.3252
12349TIP3    H258539   5.328   1.293  14.853 -0.1823  0.2114 -0.7563
12350TIP3   OH258540   6.091   5.054  11.276 -0.1093 -0.1084 -0.0530
12350TIP3    H158541   6.087   5.048  11.371 -0.3089 -1.4560 -0.1245
12350TIP3    H258542   6.001   5.039  11.247  0.0930 -0.5062 -0.4823
12351TIP3   OH258543   3.372   4.934   4.169 -0.1197 -0.0665  0.1993
12351TIP3    H158544   3.288   4.910   4.207 -0.4827  0.3944 -0.3110
12351TIP3    H258545   3.435   4.923   4.241 -0.8827  1.3709  1.1130
12352TIP3   OH258546   4.280   0.308   4.064  0.0790  0.4536  0.3043
12352TIP3    H158547   4.275   0.388   4.012 -1.7150  0.6606  0.7190
12352TIP3    H258548   4.252   0.238   4.004 -0.3630  0.4548  0.4999
12353TIP3   OH258549   5.902   6.544   2.090 -0.0532 -0.3530 -0.1039
12353TIP3    H158550   5.992   6.537   2.058 -0.3416  1.1084 -1.3334
12353TIP3    H258551   5.869   6.455   2.090  0.9272 -0.7302 -1.0602
12354TIP3   OH258552   1.546   1.973   4.100 -0.0621 -0.8073 -0.1383
12354TIP3    H158553   1.617   1.916   4.130  1.4274  1.0092 -0.0323
12354TIP3    H258554   1.538   2.039   4.168  1.1966  1.5460 -2.1266
12355TIP3   OH258555   0.884   4.529   6.336  0.0318  0.1907  0.2026
12355TIP3    H158556   0.867   4.607   6.282 -1.7343 -0.2526  0.0529
12355TIP3    H258557   0.975   4.507   6.318  1.2245  3.3608  1.7803
12356TIP3   OH258558   3.808   2.195   1.234 -0.4836  0.1572  0.2299
12356TIP3    H158559   3.873   2.265   1.226 -0.2303 -0.0363  0.5299
12356TIP3    H258560   3.857   2.123   1.274 -0.4259 -0.6120 -1.1818
12357TIP3   OH258561   2.580   2.536  14.426  0.5806 -0.1366 -0.1332
12357TIP3    H158562   2.608   2.621  14.394  0.6235 -0.2754 -0.4686
12357TIP3    H258563   2.558   2.486  14.347  1.7645 -0.8641 -0.0264
12358TIP3   OH258564   5.598   3.877  11.039 -0.6333  0.2154  0.9864
12358TIP3    H158565   5.556   3.819  10.976  0.9900  0.9111 -0.8517
12358TIP3    H258566   5.542   3.954  11.043 -0.7271  0.1918  0.2974
12359TIP3   OH258567   1.678   4.772   2.185  0.2810 -0.1340  0.0775
12359TIP3    H158568   1.738   4.763   2.259 -0.3146 -0.6102  0.5040
12359TIP3    H258569   1.627   4.851   2.205  1.5589  0.9894 -0.8703
12360TIP3   OH258570   6.286   4.328  17.227  0.4198  0.1709 -0.3499
12360TIP3    H158571   6.232   4.258  17.191 -0.5058  1.7776 -2.3051
12360TIP3    H258572   6.353   4.344  17.161  0.3526  1.4033 -0.1516
12361TIP3   OH258573   0.773   1.447   3.517 -0.4927  0.4495 -0.6403
12361TIP3    H158574   0.803   1.537   3.530 -0.3228  0.1886  0.9473
12361TIP3    H258575   0.696   1.439   3.573 -0.1198 -0.5762 -0.2519
12362TIP3   OH258576   4.220   5.467  17.035 -0.0114  0.0164 -0.2346
12362TIP3    H158577   4.271   5.523  17.093 -0.7994 -2.5939  3.2767
12362TIP3    H258578   4.275   5.390  17.021 -0.3952  0.0037 -1.9715
12363TIP3   OH258579   3.527   2.041   6.368 -0.1280  0.7149  0.1318
12363TIP3    H158580   3.530   1.955   6.409 -0.1237  0.5194 -0.2711
12363TIP3    H258581   3.484   2.097   6.432 -1.9956 -0.0379 -0.3989
12364TIP3   OH258582   1.047   0.134   3.954  0.1412 -0.6157  0.0344
12364TIP3    H158583   1.093   0.063   3.908  0.5151  0.5846 -1.5106
12364TIP3    H258584   0.978   0.161   3.895 -0.4607 -0.1645  0.9232
12365TIP3   OH258585   4.537   0.689  14.653  0.6918  0.2661  0.4932
12365TIP3    H158586   4.530   0.660  14.562  2.3703 -1.2076  0.7940
12365TIP3    H258587   4.601   0.760  14.651  0.3006  0.6305  0.4806
12366TIP3   OH258588   5.934   6.413  13.986  0.3684  0.0802 -0.1160
12366TIP3    H158589   6.005   6.438  14.046  0.6269  0.5983 -0.6303
12366TIP3    H258590   5.854   6.427  14.037  0.6136 -0.0305  0.3010
12367TIP3   OH258591   1.143   3.479   2.413  0.0162 -0.0842  0.3412
12367TIP3    H158592   1.078   3.545   2.435  0.5696  0.5832 -0.0092
12367TIP3    H258593   1.150   3.482   2.318 -2.2412 -2.8336 -0.0679
12368TIP3   OH258594   2.302   2.920  15.412 -0.1178  0.3242  0.7188
12368TIP3    H158595   2.236   2.937  15.479 -0.5439 -0.5524  0.5302
12368TIP3    H258596   2.253   2.912  15.330  0.3665  1.0379  0.3470
12369TIP3   OH258597   5.860   4.163   2.967 -0.8168  0.4590 -0.5869
12369TIP3    H158598   5.804   4.146   3.043  0.0893  1.4898  0.3557
12369TIP3    H258599   5.811   4.228   2.916 -0.9435  0.5909 -0.3021
12370TIP3   OH258600   0.068   2.741  14.259 -0.5393 -0.4454  0.0908
12370TIP3    H158601   0.144   2.794  14.234 -0.7644 -0.6461 -1.1238
12370TIP3    H258602   0.093   2.652  14.235 -1.2850 -0.4595 -0.6808
12371TIP3   OH258603   1.934   5.190  17.198 -0.4257  0.5817 -0.1916
12371TIP3    H158604   1.996   5.263  17.194  2.3911 -1.6684 -1.9430
12371TIP3    H258605   1.880   5.200  17.120  1.1968 -0.0802 -1.4706
12372TIP3   OH258606   0.653   1.953   5.108 -0.0090 -0.3980  0.3636
12372TIP3    H158607   0.710   1.885   5.072 -0.4926 -1.3149  1.2846
12372TIP3    H258608   0.630   1.921   5.195  1.5744  2.0033  1.7744
12373TIP3   OH258609   1.954   2.610   0.045 -0.4200 -0.7855  0.5185
12373TIP3    H158610   1.957   2.637   0.136 -0.7567  1.7337 -0.1497
12373TIP3    H258611   1.976   2.689  -0.005  0.7277 -2.3031 -1.5795
12374TIP3   OH258612   6.288   0.471   0.901  0.5628  0.4011  0.0069
12374TIP3    H158613   6.324   0.414   0.833 -0.2604  1.4032 -1.3122
12374TIP3    H258614   6.353   0.541   0.909  0.2758  0.7039 -0.3202
12375TIP3   OH258615   2.317   3.627   2.299 -0.1649 -0.2313  0.0030
12375TIP3    H158616   2.296   3.720   2.290  0.5648  0.0707  1.1612
12375TIP3    H258617   2.303   3.608   2.392 -0.1877 -1.2492 -0.1998
12376TIP3   OH258618   2.868   2.296   2.015 -0.0105 -0.0881 -0.0284
12376TIP3    H158619   2.866   2.392   2.023  0.2381 -0.0712 -0.1708
12376TIP3    H258620   2.959   2.272   2.034  0.0004 -0.2683 -0.3024
12377TIP3   OH258621   2.162   6.218  15.920 -0.1675 -0.2313  0.3231
12377TIP3    H158622   2.251   6.230  15.887 -0.1217 -0.2724  0.4337
12377TIP3    H258623   2.115   6.177  15.847 -0.0583 -0.3485  0.3177
12378TIP3   OH258624   0.292   6.427  15.760  0.2996  0.0832  0.4700
12378TIP3    H158625   0.374   6.475  15.767 -0.8206  2.2610 -0.6152
12378TIP3    H258626   0.304   6.370  15.683  1.9332 -2.1994  2.2420
12379TIP3   OH258627   5.465   6.468  16.411  0.7727  0.2844 -0.3190
12379TIP3    H158628   5.509   6.393  16.371  1.7209  0.7310 -0.1508
12379TIP3    H258629   5.474   6.453  16.505 -0.2594 -0.0788 -0.2654
12380TIP3   OH258630   5.965   0.021   6.377 -0.5435  0.5414  0.3034
12380TIP3    H158631   5.893   0.080   6.357 -1.4238  0.9765  4.0073
12380TIP3    H258632   6.040   0.079   6.392 -0.4632  0.4325  0.3227
12381TIP3   OH258633   1.109   3.176   3.512  0.3629 -0.6022 -0.6311
12381TIP3    H158634   1.202   3.197   3.500  0.1254  0.6866 -0.3487
12381TIP3    H258635   1.083   3.223   3.591 -0.4637 -1.2068 -0.5264
12382TIP3   OH258636   0.086   4.591   4.948  0.0517 -0.1500 -0.1065
12382TIP3    H158637   0.034   4.578   5.028  0.2507 -1.5753 -0.1938
12382TIP3    H258638   0.024   4.628   4.885  0.5368  4.0528  1.5062
12383TIP3   OH258639   2.605   0.414  14.044 -0.0044  0.0091  0.2219
12383TIP3    H158640   2.589   0.357  13.969  1.2427 -1.0589  0.7283
12383TIP3    H258641   2.580   0.361  14.120 -1.5552  1.1856  0.5871
12384TIP3   OH258642   4.312   4.547  14.857  1.0407  0.3752  0.4117
12384TIP3    H158643   4.318   4.454  14.833  1.2398  0.6401 -0.6002
12384TIP3    H258644   4.221   4.557  14.887  0.9167 -0.0773  0.2088
12385TIP3   OH258645   3.829   4.081  14.557 -0.4238 -0.5096 -0.2499
12385TIP3    H158646   3.909   4.088  14.505 -0.0510  1.1241  0.4759
12385TIP3    H258647   3.782   4.007  14.519  1.2830 -1.3170 -0.8867
12386TIP3   OH258648   6.662   4.321  16.592 -0.1024 -0.2142  0.3886
12386TIP3    H158649   6.639   4.317  16.499 -0.7774 -0.5446  0.5590
12386TIP3    H258650   6.581   4.350  16.635  0.5041  1.0066  0.7645
12387TIP3   OH258651   0.007   0.366  16.339  0.0578 -0.2608 -0.1515
12387TIP3    H158652  -0.084   0.396  16.339 -0.0977 -0.6869 -1.2389
12387TIP3    H258653   0.043   0.398  16.257  1.5072  1.6074  1.1230
12388TIP3   OH258654   4.649   0.104   3.417 -0.3131  0.5558  0.2078
12388TIP3    H158655   4.720   0.040   3.416 -1.3391 -0.6153 -0.1464
12388TIP3    H258656   4.621   0.111   3.326 -0.5898  1.0795  0.3286
12389TIP3   OH258657   4.339   2.037  12.115  0.3645  0.2687  0.2353
12389TIP3    H158658   4.379   2.124  12.115 -0.1097  0.5641  2.5812
12389TIP3    H258659   4.247   2.052  12.093  0.9874 -0.1730 -3.1550
12390TIP3   OH258660   4.207   1.931  16.395  0.4730 -0.3952 -0.1343
12390TIP3    H158661   4.273   1.933  16.465 -1.1822 -0.5751  1.5162
12390TIP3    H258662   4.123   1.929  16.442 -0.7726  1.2991 -2.1331
12391TIP3   OH258663   6.254   3.937  13.731 -0.3061 -0.0859 -0.6564
12391TIP3    H158664   6.251   4.004  13.663  0.3365  0.2666 -0.3515
12391TIP3    H258665   6.347   3.916  13.739 -0.1086  1.3308  1.5041
12392TIP3   OH258666   2.804   1.883   1.514 -0.1105  0.5420 -0.5382
12392TIP3    H158667   2.749   1.821   1.563  0.2662  0.5865 -0.0549
12392TIP3    H258668   2.745   1.956   1.494  0.0970  1.1865  1.1107
12393TIP3   OH258669   6.769   4.603   5.544 -0.0071 -0.6432 -0.1248
12393TIP3    H158670   6.700   4.561   5.492  0.0690  2.0672 -2.7088
12393TIP3    H258671   6.728   4.619   5.630 -2.1398 -0.4314 -1.1103
12394TIP3   OH258672   3.655   3.415  14.762 -0.2129 -0.4250 -0.5009
12394TIP3    H158673   3.582   3.391  14.705 -0.1263 -0.2331 -0.6959
12394TIP3    H258674   3.719   3.344  14.751 -1.0290 -1.4246  0.8881
12395TIP3   OH258675   6.541   4.047   3.142  0.4917  0.2201 -0.2753
12395TIP3    H158676   6.455   4.007   3.154  0.7203  0.4198  3.0862
12395TIP3    H258677   6.601   3.973   3.135  0.3995 -0.0275  1.1894
12396TIP3   OH258678   0.766   1.209  16.348  0.2175 -0.1546  0.5457
12396TIP3    H158679   0.675   1.213  16.320 -0.0241  0.3395  1.3477
12396TIP3    H258680   0.803   1.134  16.302 -0.5443 -0.2419  0.0693
12397TIP3   OH258681   6.350   1.312   0.430  0.0647 -0.1747  0.1228
12397TIP3    H158682   6.330   1.364   0.352 -3.1459 -0.7225  0.4619
12397TIP3    H258683   6.334   1.222   0.403 -0.7720 -0.3901  1.3096
12398TIP3   OH258684   4.837   4.356   0.672 -0.0800  0.3179 -0.0775
12398TIP3    H158685   4.860   4.339   0.580 -0.9171  1.3391 -0.5058
12398TIP3    H258686   4.885   4.290   0.722  1.5400  0.6475 -1.1248
12399TIP3   OH258687   0.336   0.575   2.023  0.2915 -0.6662  0.5329
12399TIP3    H158688   0.318   0.481   2.027 -1.3334 -0.3496  1.4561
12399TIP3    H258689   0.408   0.588   2.086  1.3793 -1.4359 -0.5043
12400TIP3   OH258690   6.499   3.147  13.803 -0.3886 -0.4818  0.0312
12400TIP3    H158691   6.549   3.110  13.876  1.5452 -1.4471 -1.6482
12400TIP3    H258692   6.565   3.192  13.750 -1.8743  0.9014 -0.7079
12401TIP3   OH258693   3.440   1.902   5.716  0.1463 -0.2064 -0.6055
12401TIP3    H158694   3.376   1.833   5.698  0.4314 -0.8743  0.7910
12401TIP3    H258695   3.499   1.901   5.640 -0.0742 -1.2460 -0.7773
12402TIP3   OH258696   3.722   4.429  16.675 -0.2645 -0.1859  0.8093
12402TIP3    H158697   3.715   4.513  16.721  1.1031  0.3681  0.0593
12402TIP3    H258698   3.812   4.399  16.693  0.5787  0.3987 -2.0052
12403TIP3   OH258699   3.741   3.937   3.280 -0.3090  0.1480  0.2146
12403TIP3    H158700   3.719   3.906   3.192 -2.5220  0.7615  0.5005
12403TIP3    H258701   3.657   3.964   3.318  0.5099 -0.5603  2.7166
12404TIP3   OH258702   0.731   0.393  14.749  0.6872  0.1671  0.1390
12404TIP3    H158703   0.775   0.409  14.666 -0.1215  1.6481 -0.0372
12404TIP3    H258704   0.800   0.400  14.815  0.9228  1.5220 -0.2136
12405TIP3   OH258705   6.228   5.745  13.677  0.0195  0.5298  0.0659
12405TIP3    H158706   6.210   5.832  13.643  1.7493  0.6023 -0.7366
12405TIP3    H258707   6.287   5.759  13.751 -0.9439  0.1137  0.9577
12406TIP3   OH258708   6.718   0.399  13.438  0.2254  0.0746 -0.3702
12406TIP3    H158709   6.753   0.432  13.356  1.2627  0.4278  0.1915
12406TIP3    H258710   6.783   0.335  13.467 -0.9952 -1.3645 -0.6811
12407TIP3   OH258711   4.930   4.052  16.248 -0.1148 -0.1546 -0.2559
12407TIP3    H158712   4.982   4.050  16.168 -1.1979  2.2849 -1.1194
12407TIP3    H258713   4.982   4.104  16.309 -0.8787  1.1675 -0.6826
12408TIP3   OH258714   6.136   0.608   1.762 -0.3023  0.2250 -0.2440
12408TIP3    H158715   6.220   0.651   1.773  0.0085 -0.0710 -1.3251
12408TIP3    H258716   6.158   0.516   1.748 -0.8469  0.0308  0.1317
12409TIP3   OH258717   4.758   5.957  13.650  0.0211 -0.6765  0.0933
12409TIP3    H158718   4.778   6.050  13.650  3.9702 -1.3538  0.4555
12409TIP3    H258719   4.672   5.951  13.692  0.0960  2.6923  1.0125
12410TIP3   OH258720   5.947   5.621  14.829  0.0388  0.2422 -0.0981
12410TIP3    H158721   5.852   5.634  14.822  0.1857  1.5768  0.1476
12410TIP3    H258722   5.981   5.707  14.855  1.4632  0.1429 -1.5156
12411TIP3   OH258723   2.921   2.879  14.920  0.4346  0.0611  0.0412
12411TIP3    H158724   2.890   2.799  14.877  0.0119  1.6162 -2.8039
12411TIP3    H258725   2.855   2.899  14.986 -0.0091 -1.3256  0.0403
12412TIP3   OH258726   0.089   0.088  12.410 -0.3549  0.6732  0.0731
12412TIP3    H158727   0.105   0.182  12.396  0.5382  0.3880 -1.0466
12412TIP3    H258728   0.017   0.067  12.351  0.2337  0.4355 -0.5818
12413TIP3   OH258729   0.902   4.910  13.421 -0.1673  0.4983  0.1141
12413TIP3    H158730   0.883   5.002  13.406  1.4027  0.7337 -0.6677
12413TIP3    H258731   0.994   4.900  13.395 -0.1275 -1.1518  0.7700
12414TIP3   OH258732   0.487   1.905  11.756  0.2073 -0.2569  0.3690
12414TIP3    H158733   0.464   1.997  11.751 -0.3555 -0.3678  0.8459
12414TIP3    H258734   0.404   1.858  11.750  0.4550 -0.7215  0.4735
12415TIP3   OH258735   5.100   0.904  11.519 -0.2370 -0.0403 -0.4372
12415TIP3    H158736   5.163   0.850  11.471  0.6770  0.6154 -0.0184
12415TIP3    H258737   5.046   0.945  11.450  0.4400  0.1513 -0.8659
12416TIP3   OH258738   4.872   2.647  16.994 -0.1392  0.2072  0.6583
12416TIP3    H158739   4.903   2.714  16.933 -1.5039  0.4714  0.2223
12416TIP3    H258740   4.905   2.674  17.079 -0.2941  1.1989  0.4163
12417TIP3   OH258741   4.770   0.792  11.272  0.2838  0.0688  0.1375
12417TIP3    H158742   4.797   0.820  11.359  1.5824  1.4093 -0.6415
12417TIP3    H258743   4.679   0.766  11.282  0.8804 -1.4547  2.2246
12418TIP3   OH258744   3.099   4.352  11.336  0.0307  0.0324 -0.2770
12418TIP3    H158745   3.015   4.398  11.326 -0.9254 -1.1113  1.6514
12418TIP3    H258746   3.083   4.266  11.298  0.3609 -0.1593  0.0182
12419TIP3   OH258747   0.804   3.933  17.287 -0.0382 -0.4586  0.0077
12419TIP3    H158748   0.801   3.925  17.382 -0.9327 -0.7546 -0.0368
12419TIP3    H258749   0.714   3.917  17.258  0.3596 -1.1231 -0.9443
12420TIP3   OH258750   5.481   4.955   6.112  0.1188 -0.2280  0.7923
12420TIP3    H158751   5.454   5.017   6.044 -0.2671 -0.2262  0.9410
12420TIP3    H258752   5.573   4.936   6.093 -0.1671 -0.7608 -0.1541
12421TIP3   OH258753   4.528   2.855  15.313 -0.5438 -0.0273 -0.8166
12421TIP3    H158754   4.589   2.894  15.250  0.1542 -2.0270 -1.4524
12421TIP3    H258755   4.488   2.783  15.265 -1.7691 -0.1451  0.3202
12422TIP3   OH258756   4.437   5.580  14.868 -0.7235  0.7933  0.0749
12422TIP3    H158757   4.493   5.583  14.945  0.0196  0.6746 -0.4408
12422TIP3    H258758   4.369   5.644  14.885 -0.7319  0.5708  0.9418
12423TIP3   OH258759   0.561   1.452  11.181  0.1388 -0.5809 -0.1436
12423TIP3    H158760   0.479   1.413  11.150  0.4189 -0.2923 -1.2868
12423TIP3    H258761   0.561   1.540  11.144  2.5384 -1.6662 -3.1460
12424TIP3   OH258762   3.221   3.743   2.867 -0.0675 -0.6012  0.5507
12424TIP3    H158763   3.260   3.812   2.921 -1.6575 -0.2542  1.3259
12424TIP3    H258764   3.135   3.777   2.843  0.1734 -1.2177 -1.3340
12425TIP3   OH258765   6.210   1.699  15.675  0.4454  0.6802  0.0819
12425TIP3    H158766   6.299   1.665  15.666  0.2065  0.0988 -0.1723
12425TIP3    H258767   6.192   1.740  15.590  0.3475  0.4903  0.0107
12426TIP3   OH258768   1.329   5.327  16.405  0.0641  0.0258 -0.0558
12426TIP3    H158769   1.312   5.273  16.483 -2.8799  1.5834  0.5302
12426TIP3    H258770   1.291   5.277  16.333  0.9420 -0.4659 -0.1942
12427TIP3   OH258771   5.208   5.253   4.256  0.4025  0.0808  0.7165
12427TIP3    H158772   5.284   5.201   4.228  0.5506 -0.2344  1.6612
12427TIP3    H258773   5.212   5.332   4.202 -0.0203 -1.0132 -0.9954
12428TIP3   OH258774   4.896   5.496  15.100  0.1781 -0.0782 -0.1919
12428TIP3    H158775   4.858   5.538  15.023  0.7490  1.2051  0.1856
12428TIP3    H258776   4.987   5.524  15.099  0.4039 -0.7660  0.4795
12429TIP3   OH258777   2.062   4.010  15.680 -0.1613  0.2693 -0.6309
12429TIP3    H158778   1.974   3.986  15.708  0.3813 -1.5770 -0.4167
12429TIP3    H258779   2.103   4.046  15.758 -0.1747 -0.4690 -0.2796
12430TIP3   OH258780   0.123   3.362   0.386  0.2747  0.5032 -0.0748
12430TIP3    H158781   0.061   3.336   0.318  0.3647  0.4758 -0.1473
12430TIP3    H258782   0.068   3.390   0.459  0.1593  1.8919 -0.6685
12431TIP3   OH258783   1.535   4.059   6.396 -0.1532 -0.0255  0.1799
12431TIP3    H158784   1.629   4.056   6.380 -0.2222  1.6636 -0.7230
12431TIP3    H258785   1.510   4.149   6.376 -2.1052 -0.6537 -0.4008
12432TIP3   OH258786   1.035   4.096  15.794 -0.7875  0.1151 -0.2762
12432TIP3    H158787   0.947   4.102  15.757  0.0753  1.5277 -2.2385
12432TIP3    H258788   1.080   4.175  15.765  0.6983  0.2202  2.0025
12433TIP3   OH258789   4.726   5.276  16.372 -0.2198 -0.4419 -0.1470
12433TIP3    H158790   4.709   5.279  16.278 -0.3554 -2.1449 -0.2186
12433TIP3    H258791   4.654   5.225  16.408  1.2470 -2.2153  0.4576
12434TIP3   OH258792   1.836   6.614  15.205  0.1463  0.0167 -0.1063
12434TIP3    H158793   1.844   6.690  15.148 -1.9247  1.2089  1.0641
12434TIP3    H258794   1.836   6.650  15.293 -1.9193 -1.1583  0.4475
12435TIP3   OH258795   6.052   5.614  14.509  0.2827  0.2068 -0.0960
12435TIP3    H158796   6.125   5.579  14.561  0.4516  1.2589  0.4202
12435TIP3    H258797   6.046   5.556  14.434 -0.4374 -1.8144  1.4355
12436TIP3   OH258798   5.322   4.631  17.065 -0.0010  0.0233 -0.7165
12436TIP3    H158799   5.390   4.695  17.042 -0.5150  0.6788 -0.4352
12436TIP3    H258800   5.332   4.618  17.160 -0.4836  0.3869 -0.6109
12437TIP3   OH258801   1.124   4.514  13.282 -0.2595  0.0992  0.5579
12437TIP3    H158802   1.152   4.578  13.346  1.1577  1.0893 -0.9578
12437TIP3    H258803   1.192   4.446  13.285  0.9334  1.1211 -1.1735
12438TIP3   OH258804   1.764   2.941   1.674 -0.2878  0.0795  0.5967
12438TIP3    H158805   1.812   3.023   1.665 -1.0162  0.5790  1.1701
12438TIP3    H258806   1.831   2.876   1.694  0.6245  0.0604 -2.0368
12439TIP3   OH258807   5.378   3.339   1.907 -0.0125 -0.4247  0.5885
12439TIP3    H158808   5.421   3.330   1.992 -1.0133  0.9584  1.2801
12439TIP3    H258809   5.295   3.292   1.918 -0.2806  0.0175  0.4970
12440TIP3   OH258810   3.484   4.901  11.372 -0.3350  0.4409 -0.0700
12440TIP3    H158811   3.570   4.909  11.329 -0.4258 -0.7111 -0.4877
12440TIP3    H258812   3.493   4.953  11.452  1.3238 -1.0176  0.7542
12441TIP3   OH258813   4.002   6.166   5.792 -0.3683 -0.5111 -0.0316
12441TIP3    H158814   3.995   6.158   5.697  1.9198 -0.0853 -0.3018
12441TIP3    H258815   3.992   6.077   5.825  1.4340 -1.0875 -0.9377
12442TIP3   OH258816   5.707   5.653   0.931  0.4162  0.5668  0.5366
12442TIP3    H158817   5.755   5.733   0.909  1.3252 -0.1056  0.0029
12442TIP3    H258818   5.639   5.647   0.864  1.1067  0.2662 -0.1468
12443TIP3   OH258819   2.665   5.116   0.410  0.0515 -0.0537 -0.3511
12443TIP3    H158820   2.649   5.022   0.408  0.9710 -0.2175 -1.4963
12443TIP3    H258821   2.578   5.156   0.402 -0.2790 -0.8123 -0.6080
12444TIP3   OH258822   6.190   5.763  15.893 -0.5756  0.0541  0.2671
12444TIP3    H158823   6.110   5.714  15.913 -0.3752 -1.2875 -1.8788
12444TIP3    H258824   6.167   5.855  15.911 -2.0726 -0.4477  1.1303
12445TIP3   OH258825   5.293   1.315  10.956  0.0350  0.0584 -0.6459
12445TIP3    H158826   5.277   1.222  10.970 -1.6627  0.5656  1.3396
12445TIP3    H258827   5.237   1.339  10.883 -0.6047 -0.2192 -0.2539
12446TIP3   OH258828   1.898   5.385   4.005  0.9375 -0.9092 -0.0127
12446TIP3    H158829   1.873   5.383   3.913  0.3045  0.2922  0.1170
12446TIP3    H258830   1.857   5.307   4.042  1.4250 -1.5481 -0.7892
12447TIP3   OH258831   5.742   1.228   3.757  0.3132 -0.1800  0.0888
12447TIP3    H158832   5.777   1.317   3.762  0.0905 -0.0341 -0.8333
12447TIP3    H258833   5.759   1.200   3.667 -2.1947  0.0203 -0.5293
12448TIP3   OH258834   1.149   4.637   6.276 -0.7217  0.4277  0.2647
12448TIP3    H158835   1.153   4.700   6.204  0.8560 -0.3828 -0.4091
12448TIP3    H258836   1.178   4.686   6.353  1.9209  0.2621 -0.5156
12449TIP3   OH258837   4.012   1.234  15.057 -0.1787 -0.5080 -0.5380
12449TIP3    H158838   4.057   1.307  15.015 -0.2784  0.4711  0.9746
12449TIP3    H258839   3.977   1.271  15.138 -1.7004 -1.8255 -0.5432
12450TIP3   OH258840   5.245   5.653   0.322 -0.1841 -0.0843 -0.1711
12450TIP3    H158841   5.330   5.641   0.281  0.4606  0.6514  0.9120
12450TIP3    H258842   5.186   5.672   0.249  0.9018  1.0392 -0.7948
12451TIP3   OH258843   0.134   1.961   3.232 -0.1810 -0.5679  0.1919
12451TIP3    H158844   0.106   1.895   3.296  0.8620 -1.6252 -0.4162
12451TIP3    H258845   0.224   1.938   3.211 -0.1028  0.4995 -0.7501
12452TIP3   OH258846   4.642   4.673  16.944 -0.6602  0.1222  0.5225
12452TIP3    H158847   4.694   4.670  17.025  2.5032  2.0753 -1.2376
12452TIP3    H258848   4.623   4.582  16.925  1.7001 -0.6897  1.6107
12453TIP3   OH258849   1.702   0.456  12.842  0.1491  0.3993 -0.0352
12453TIP3    H158850   1.761   0.393  12.883 -0.2025  0.5089  0.6602
12453TIP3    H258851   1.752   0.494  12.770  0.2255 -0.9802 -0.7467
12454TIP3   OH258852   5.674   3.052   3.549  0.5242  0.1829 -0.3872
12454TIP3    H158853   5.733   3.125   3.567  2.0219 -0.5835 -1.8765
12454TIP3    H258854   5.615   3.083   3.480  0.9437  0.1111 -0.7830
12455TIP3   OH258855   2.795   0.565  16.297 -0.4327 -0.6039  0.7937
12455TIP3    H158856   2.842   0.490  16.333 -0.3879 -1.4897 -1.0109
12455TIP3    H258857   2.839   0.585  16.215  0.2530  2.1588  1.7114
12456TIP3   OH258858   4.658   6.436   4.478 -0.1143 -0.1556  0.3279
12456TIP3    H158859   4.683   6.473   4.394  0.3125  1.1229  0.9890
12456TIP3    H258860   4.565   6.457   4.487 -0.3492 -0.9407 -0.1273
12457TIP3   OH258861   5.476   1.339  12.497 -0.6168 -0.3335 -0.0182
12457TIP3    H158862   5.484   1.435  12.501  2.8170 -0.4983 -0.4914
12457TIP3    H258863   5.485   1.318  12.404 -3.4179 -1.1051 -0.2170
12458TIP3   OH258864   2.071   5.828  15.135 -0.3280 -0.6647  0.0194
12458TIP3    H158865   2.057   5.903  15.077  1.4824 -0.1207  0.2193
12458TIP3    H258866   2.098   5.868  15.218  0.6952 -1.5300  0.1129
12459TIP3   OH258867   6.020   5.105  13.695 -0.0606  0.4695  0.1825
12459TIP3    H158868   6.058   5.024  13.730  1.7050  2.0012  2.0898
12459TIP3    H258869   5.943   5.121  13.750 -0.7834 -0.2195 -0.6145
12460TIP3   OH258870   6.252   3.607  17.469  0.4482 -0.4028  0.0738
12460TIP3    H158871   6.195   3.615  17.545  0.4783 -0.3275  0.0879
12460TIP3    H258872   6.219   3.673  17.407 -1.1742 -2.0951 -1.0020
12461TIP3   OH258873   5.603   0.170  14.027 -0.2090  0.2951  0.0811
12461TIP3    H158874   5.594   0.085  13.983  2.5517  0.1445 -0.4082
12461TIP3    H258875   5.696   0.192  14.017 -0.8498  3.4785  0.0327
12462TIP3   OH258876   2.829   6.665   0.087 -0.4760  0.3664  0.0385
12462TIP3    H158877   2.826   6.569   0.084 -0.0585  0.3662 -1.2704
12462TIP3    H258878   2.786   6.692   0.006  0.4225  1.2487 -0.1643
12463TIP3   OH258879   3.857   6.736  14.584  0.0601  0.4481  0.1070
12463TIP3    H158880   3.930   6.733  14.523 -0.7188 -0.0853 -0.8338
12463TIP3    H258881   3.787   6.781  14.536 -1.0332 -1.2176  0.0547
12464TIP3   OH258882   3.778   1.537  12.347 -0.0785 -0.1822 -0.5727
12464TIP3    H158883   3.856   1.548  12.293 -0.2871  0.5839 -0.7254
12464TIP3    H258884   3.709   1.512  12.285 -0.1705  0.0625 -0.5686
12465TIP3   OH258885   1.651   4.236   5.483 -0.4517 -0.3330  0.2001
12465TIP3    H158886   1.700   4.318   5.469  0.3153 -0.8993 -0.5104
12465TIP3    H258887   1.566   4.252   5.443 -0.0642 -0.1201 -0.5495
12466TIP3   OH258888   4.874   4.250  12.782  0.5156  0.0703  0.2459
12466TIP3    H158889   4.781   4.269  12.768  0.4528  1.0005  1.8063
12466TIP3    H258890   4.874   4.168  12.832  0.6963 -2.0469 -2.9025
12467TIP3   OH258891   4.806   2.540   0.884  0.6456 -0.5953 -0.1379
12467TIP3    H158892   4.842   2.590   0.811  0.8213  1.2156  1.1275
12467TIP3    H258893   4.866   2.467   0.894  1.4669 -0.0419 -0.8440
12468TIP3   OH258894   5.430   0.305  11.618 -0.2262  0.6717 -0.1582
12468TIP3    H158895   5.427   0.250  11.541 -1.7892 -0.2893  0.5560
12468TIP3    H258896   5.403   0.392  11.588  1.9015  1.0268 -1.2116
12469TIP3   OH258897   0.038   4.676  14.120  0.3614  0.5650 -0.1540
12469TIP3    H158898  -0.033   4.648  14.063  0.1382  0.0419  0.3729
12469TIP3    H258899   0.113   4.684  14.062  0.5359 -1.5137 -0.2985
12470TIP3   OH258900   0.388   3.629   0.737  0.6129  0.5344 -0.3211
12470TIP3    H158901   0.362   3.565   0.803  0.0971  1.8663  0.8123
12470TIP3    H258902   0.469   3.593   0.700  0.3053 -0.7940  0.2119
12471TIP3   OH258903   3.648   1.242  17.023 -0.6497 -0.4966  0.6489
12471TIP3    H158904   3.581   1.225  17.089 -0.3097 -1.6680  0.7301
12471TIP3    H258905   3.632   1.175  16.956  0.0881 -0.4454  0.4099
12472TIP3   OH258906   4.297   2.280  13.429 -0.3963 -0.0655 -0.0604
12472TIP3    H158907   4.249   2.339  13.371 -0.3080  0.7705  0.6904
12472TIP3    H258908   4.234   2.212  13.452 -1.3028  1.0757  1.0027
12473TIP3   OH258909   3.208   4.438  13.959  0.0780 -0.5414 -0.3733
12473TIP3    H158910   3.279   4.502  13.950 -0.4738  0.1547  0.1455
12473TIP3    H258911   3.135   4.488  13.994 -0.8571 -1.1233 -1.4226
12474TIP3   OH258912   5.962   1.465  14.775 -0.2484  0.0832 -1.0063
12474TIP3    H158913   5.962   1.421  14.860 -0.6754  0.7436 -0.6506
12474TIP3    H258914   5.991   1.555  14.795 -2.1355  0.7862 -1.2354
12475TIP3   OH258915   2.919   2.762   4.649  0.1652  0.0275  0.1907
12475TIP3    H158916   2.931   2.848   4.690 -1.4745  0.6162 -0.4581
12475TIP3    H258917   2.856   2.717   4.706 -1.9053  0.7396 -1.3857
12476TIP3   OH258918   5.517   1.119  17.260 -0.3694 -0.2480 -0.2946
12476TIP3    H158919   5.496   1.032  17.294 -1.6211 -0.3713 -1.3001
12476TIP3    H258920   5.434   1.166  17.259  0.0812  0.5782 -0.8437
12477TIP3   OH258921   3.561   3.998   2.560 -0.2434  0.0996  0.0744
12477TIP3    H158922   3.489   3.995   2.498  1.2537  0.0233 -1.7485
12477TIP3    H258923   3.586   4.090   2.564  1.3603 -0.2077 -1.5718
12478TIP3   OH258924   4.044   0.208   5.270 -0.1032 -0.6674  0.6197
12478TIP3    H158925   4.124   0.224   5.319  0.0224 -0.7580  0.4455
12478TIP3    H258926   4.040   0.112   5.260 -0.8369 -0.7697  1.6350
12479TIP3   OH258927   3.422   4.153  13.054 -0.0731  0.6953  0.2769
12479TIP3    H158928   3.356   4.117  12.994  0.6183 -2.2309  1.1156
12479TIP3    H258929   3.404   4.247  13.055 -1.5183  0.5697 -2.7549
12480TIP3   OH258930   3.007   5.980   3.450 -0.2045 -0.3569  0.0845
12480TIP3    H158931   3.026   6.067   3.414  0.4084 -0.5374 -0.0311
12480TIP3    H258932   3.053   5.978   3.534  1.2957 -1.2273 -0.7332
12481TIP3   OH258933   2.338   3.114  17.036  0.2125  0.0832 -0.1244
12481TIP3    H158934   2.371   3.195  16.998  0.2720 -0.0713 -0.4041
12481TIP3    H258935   2.408   3.050  17.021 -0.2565 -0.2757 -0.8250
12482TIP3   OH258936   6.586   6.176  12.162 -0.1054 -0.1498 -0.2847
12482TIP3    H158937   6.569   6.092  12.205 -1.2623 -0.4062 -1.1702
12482TIP3    H258938   6.636   6.153  12.083  0.5145  0.1250  0.0184
12483TIP3   OH258939   4.160   2.874   4.500  0.3998 -0.5782 -0.3559
12483TIP3    H158940   4.217   2.951   4.508 -1.2553  0.8739 -1.7926
12483TIP3    H258941   4.120   2.866   4.587  0.3172  0.4495 -0.2762
12484TIP3   OH258942   2.283   2.926   1.842 -0.1386 -0.0239 -0.5676
12484TIP3    H158943   2.352   2.952   1.903  1.6562 -1.7583 -1.7694
12484TIP3    H258944   2.218   2.881   1.897 -0.3443  1.5519  0.5569
12485TIP3   OH258945   4.044   5.740  12.394  0.4828  0.3560  0.4351
12485TIP3    H158946   4.004   5.821  12.425 -0.0606  0.0374  0.5707
12485TIP3    H258947   3.984   5.707  12.328  0.4227 -0.2212  0.7698
12486TIP3   OH258948   1.141   2.407  11.906  0.4231 -0.0708 -0.1011
12486TIP3    H158949   1.054   2.394  11.942  1.0309  1.1350  1.9501
12486TIP3    H258950   1.163   2.323  11.866 -2.1023 -0.0269 -1.7247
12487TIP3   OH258951   1.101   2.081  15.158  0.1478 -0.1504 -0.2582
12487TIP3    H158952   1.029   2.140  15.136  1.4155  1.8025  0.5921
12487TIP3    H258953   1.180   2.128  15.134  1.2071 -1.9365 -0.4725
12488TIP3   OH258954   3.665   1.076   3.600  0.1429 -0.1658  0.1237
12488TIP3    H158955   3.721   1.147   3.629  0.4440 -0.8035  1.1432
12488TIP3    H258956   3.653   1.091   3.506  1.0538  0.6265  0.1274
12489TIP3   OH258957   3.716   4.855  13.397  0.0467 -0.1011  0.6326
12489TIP3    H158958   3.795   4.907  13.413  0.7270 -0.9607  0.1786
12489TIP3    H258959   3.647   4.920  13.382  1.1653  0.7212 -1.3806
12490TIP3   OH258960   1.022   2.918  11.728 -0.3330  0.0056 -0.3064
12490TIP3    H158961   1.037   2.842  11.785 -1.4109 -1.2758 -1.6365
12490TIP3    H258962   1.023   2.993  11.786  0.9993 -0.9997  1.0429
12491TIP3   OH258963   2.172   4.730  14.639  0.8953  0.0888 -0.3603
12491TIP3    H158964   2.133   4.785  14.707  1.7119  0.4252 -0.1447
12491TIP3    H258965   2.128   4.756  14.558 -0.3527 -0.5743  0.0728
12492TIP3   OH258966   2.272   3.626  14.308  0.2988 -0.2750  0.2572
12492TIP3    H158967   2.295   3.718  14.291 -0.9926  0.4771  2.2799
12492TIP3    H258968   2.334   3.598  14.375  0.9018 -1.0390 -0.5852
12493TIP3   OH258969   2.211   5.128   1.740  0.1791 -0.3989  0.3779
12493TIP3    H158970   2.162   5.048   1.723  0.8385 -0.6778 -0.2707
12493TIP3    H258971   2.277   5.103   1.805 -0.4209 -0.0614  1.1348
12494TIP3   OH258972   1.284   1.104  11.149  0.3629 -0.5175 -0.0392
12494TIP3    H158973   1.197   1.092  11.111  0.1378  1.9165 -0.4280
12494TIP3    H258974   1.332   1.156  11.084  1.5816 -0.4588  0.8749
12495TIP3   OH258975   1.987   5.573  14.142 -0.3443 -0.3385 -0.1162
12495TIP3    H158976   2.060   5.572  14.080  1.3343  0.7315  1.7124
12495TIP3    H258977   1.944   5.657  14.126  0.0905 -0.0601  0.1534
12496TIP3   OH258978   1.073   4.564  11.881 -0.5794  0.0619 -0.3658
12496TIP3    H158979   1.021   4.638  11.911 -2.0228 -1.9455  2.5126
12496TIP3    H258980   1.012   4.510  11.831  0.5976  0.9383 -2.9477
12497TIP3   OH258981   1.024   1.274   4.335  0.5642 -0.1138  0.1806
12497TIP3    H158982   1.061   1.244   4.252 -0.3689 -0.2779 -0.1986
12497TIP3    H258983   1.097   1.315   4.381  0.8140  1.2444 -1.3251
12498TIP3   OH258984   5.908   5.101  14.856  0.1459  0.1217 -0.2884
12498TIP3    H158985   5.920   5.195  14.855 -0.9091  0.2724 -1.5553
12498TIP3    H258986   5.859   5.084  14.937 -0.0705  0.7194 -0.2898
12499TIP3   OH258987   4.637   4.790  13.656  0.5804 -0.4152 -1.0331
12499TIP3    H158988   4.699   4.722  13.630  0.4460  0.0860 -2.7698
12499TIP3    H258989   4.572   4.792  13.586 -0.7613 -0.1223  0.1698
12500TIP3   OH258990   2.215   0.528  13.411  0.2715  0.1797 -0.2338
12500TIP3    H158991   2.185   0.602  13.360 -0.4796  0.4056  0.5174
12500TIP3    H258992   2.200   0.452  13.354  0.7888  0.5593 -0.8943
12501TIP3   OH258993   3.278   4.846   1.001  0.0330  0.4818 -0.1035
12501TIP3    H158994   3.237   4.931   1.016  0.0503  0.4926 -0.1179
12501TIP3    H258995   3.328   4.828   1.082 -0.0123  0.4617 -0.0798
12502TIP3   OH258996   1.269   3.666   5.424  0.0654 -0.4019 -0.3806
12502TIP3    H158997   1.325   3.732   5.383 -0.3571 -1.6411 -3.2657
12502TIP3    H258998   1.322   3.629   5.494  0.9688  1.7230  0.1311
12503TIP3   OH258999   1.398   2.554   4.078  0.0307 -0.6801 -0.1052
12503TIP3    H159000   1.472   2.550   4.017  2.6920  0.7785  2.7612
12503TIP3    H259001   1.404   2.474   4.130 -1.2228 -1.1360 -0.6188
12504TIP3   OH259002   1.586   4.458   2.259  0.4767  0.1183  0.1301
12504TIP3    H159003   1.522   4.451   2.330  0.5084 -0.0856  0.1383
12504TIP3    H259004   1.662   4.500   2.300 -0.0456  1.3582 -0.1382
12505TIP3   OH259005   0.122   0.991  15.293  0.4449 -0.1310  0.1270
12505TIP3    H159006   0.154   0.904  15.268  0.8136  0.7198 -2.8842
12505TIP3    H259007   0.027   0.986  15.285  0.5609  0.3635 -3.0544
12506TIP3   OH259008   5.450   2.377  15.236  0.3429 -0.2082  0.3401
12506TIP3    H159009   5.536   2.392  15.197  0.6553 -1.8859  0.3046
12506TIP3    H259010   5.394   2.444  15.198  1.0812 -0.6037 -1.5340
12507TIP3   OH259011   0.369   0.918  13.594 -0.2686 -0.3118  0.7855
12507TIP3    H159012   0.460   0.886  13.596  0.7770  2.3773  0.3292
12507TIP3    H259013   0.328   0.869  13.523  1.2916 -0.4980 -0.0259
12508TIP3   OH259014   1.130   1.528  16.025  0.1430 -0.2090 -0.2775
12508TIP3    H159015   1.149   1.528  15.931  1.8607  0.6815  0.0332
12508TIP3    H259016   1.061   1.462  16.035  0.8880 -1.3210 -1.9540
12509TIP3   OH259017   3.308   3.786   6.062 -0.1815  0.2003  0.1063
12509TIP3    H159018   3.239   3.850   6.079 -2.3858 -1.5410 -1.6647
12509TIP3    H259019   3.350   3.817   5.982  0.0509  0.4480  0.3238
12510TIP3   OH259020   1.895   2.605   0.953  0.0951  0.2587  0.0135
12510TIP3    H159021   1.806   2.584   0.982 -0.9569  2.6482 -1.1394
12510TIP3    H259022   1.906   2.698   0.975  1.5692  0.5119 -1.5773
12511TIP3   OH259023   2.413   1.154   3.564 -0.4463 -0.2792  0.0347
12511TIP3    H159024   2.446   1.234   3.604 -1.1854 -0.0857  0.2625
12511TIP3    H259025   2.320   1.170   3.550  0.0184  0.2717 -3.1705
12512TIP3   OH259026   5.514   4.249   1.235  0.0914 -0.0488  0.1238
12512TIP3    H159027   5.484   4.262   1.325  2.2923  1.1610  0.7431
12512TIP3    H259028   5.570   4.324   1.216 -0.8048  0.0632 -2.5219
12513TIP3   OH259029   0.776   2.374  14.894 -0.2320  0.1050 -0.2719
12513TIP3    H159030   0.790   2.467  14.879 -0.0628  0.0997 -0.1430
12513TIP3    H259031   0.856   2.332  14.862  0.3149  0.1237  1.0347
12514TIP3   OH259032   5.912   1.785  15.405 -0.0194 -0.0803  0.3063
12514TIP3    H159033   6.002   1.816  15.409 -0.4080  1.0272  0.9837
12514TIP3    H259034   5.887   1.770  15.496 -0.7335  0.2808  0.1807
12515TIP3   OH259035   0.098   2.891   2.695 -0.3869  0.0331 -0.5019
12515TIP3    H159036   0.083   2.899   2.789 -0.1122 -0.1394 -0.4423
12515TIP3    H259037   0.142   2.972   2.671  0.2225 -0.2453 -0.3417
12516TIP3   OH259038   4.543   3.541   4.164 -0.7000 -0.0297  0.0519
12516TIP3    H159039   4.524   3.605   4.233 -0.2124 -0.6166  0.7493
12516TIP3    H259040   4.636   3.555   4.144 -0.7983  0.0217 -0.3639
12517TIP3   OH259041   0.873   3.751  15.349 -0.3115 -0.0613 -0.0611
12517TIP3    H159042   0.871   3.693  15.425  0.5667  0.4877  0.4056
12517TIP3    H259043   0.868   3.839  15.387 -1.2902  0.1963 -0.7328
12518TIP3   OH259044   1.668   5.760   4.549 -0.0177  0.3297  0.4113
12518TIP3    H159045   1.585   5.774   4.503  1.3026  0.1594 -2.2024
12518TIP3    H259046   1.692   5.669   4.529  0.0712 -0.1751  2.5145
12519TIP3   OH259047   5.246   6.569   5.553 -0.2452  0.5449  0.4757
12519TIP3    H159048   5.228   6.476   5.567  2.2778  0.3474  3.2994
12519TIP3    H259049   5.167   6.613   5.584 -0.7413 -0.5870  0.8839
12520TIP3   OH259050   1.498   3.371  15.448 -0.1690  0.0365  0.2170
12520TIP3    H159051   1.427   3.307  15.439  0.5445 -0.4769 -3.5076
12520TIP3    H259052   1.477   3.440  15.385  1.4171  1.1388  0.8186
12521TIP3   OH259053   0.777   5.987   0.774  0.3349  0.9341 -1.1915
12521TIP3    H159054   0.808   6.060   0.829 -1.6621 -0.1781  1.6620
12521TIP3    H259055   0.842   5.918   0.788  0.2325  0.9099 -0.8248
12522TIP3   OH259056   0.785   1.631  14.436 -0.1515  0.0967 -0.1955
12522TIP3    H159057   0.719   1.649  14.502 -0.1771 -1.1464  0.1475
12522TIP3    H259058   0.744   1.656  14.353 -1.8579 -2.4237 -0.2216
12523TIP3   OH259059   1.907   4.049   0.421  0.4047  0.5808  0.1753
12523TIP3    H159060   1.907   3.977   0.484 -0.2122 -0.8789 -1.4081
12523TIP3    H259061   1.969   4.112   0.457  0.3754 -0.3779  2.0121
12524TIP3   OH259062   4.341   5.921   0.635  0.4015 -0.5538 -0.1725
12524TIP3    H159063   4.249   5.893   0.633  0.4398 -0.7759  0.7261
12524TIP3    H259064   4.339   6.013   0.610 -0.1243 -0.4320  0.2987
12525TIP3   OH259065   3.496   4.320  13.645 -0.0377  0.3258  0.0175
12525TIP3    H159066   3.480   4.252  13.579  0.9773 -0.5909  0.6840
12525TIP3    H259067   3.412   4.365  13.653 -1.2651 -1.9174  0.7157
12526TIP3   OH259068   5.272   5.329   4.515 -0.7367 -0.4432 -0.0232
12526TIP3    H159069   5.244   5.321   4.423  0.3939 -2.2302 -0.2621
12526TIP3    H259070   5.224   5.259   4.560 -0.9452  0.1449  0.6728
12527TIP3   OH259071   6.490   5.291   3.224 -0.1901 -0.2785  0.4987
12527TIP3    H159072   6.567   5.345   3.241 -0.1010 -0.2639  0.0570
12527TIP3    H259073   6.476   5.298   3.130  0.3609 -1.7453  0.2732
12528TIP3   OH259074   2.281   3.187   4.084  0.6332  0.2971 -0.5129
12528TIP3    H159075   2.223   3.174   4.159  1.6792 -2.7808 -0.0750
12528TIP3    H259076   2.369   3.177   4.121  1.2729  1.1055 -1.7780
12529TIP3   OH259077   4.558   5.089  14.391 -0.4383 -0.2848 -0.1268
12529TIP3    H159078   4.469   5.122  14.376 -0.7970 -0.9066  0.5918
12529TIP3    H259079   4.551   5.033  14.468  0.9130  1.0092  0.9906
12530TIP3   OH259080   0.153   0.565  12.116 -0.1980  0.1604 -0.0423
12530TIP3    H159081   0.163   0.506  12.041 -0.7209  1.3757 -1.0956
12530TIP3    H259082   0.120   0.646  12.079 -1.8807  0.3397  1.6857
12531TIP3   OH259083   3.319   0.682   3.372  0.5345 -0.2367  0.4343
12531TIP3    H159084   3.225   0.695   3.377  0.8886  2.6948  1.1314
12531TIP3    H259085   3.348   0.681   3.463  1.2698 -0.5465  0.2093
12532TIP3   OH259086   4.784   3.501   5.044  0.3624  0.0830 -0.4725
12532TIP3    H159087   4.796   3.591   5.014  1.2094 -0.2531 -1.2107
12532TIP3    H259088   4.872   3.472   5.068  0.5379 -1.2852 -2.4892
12533TIP3   OH259089   2.130   5.555   1.208  0.3261 -0.0418  0.6977
12533TIP3    H159090   2.055   5.566   1.149  1.1517  1.5424 -0.1498
12533TIP3    H259091   2.124   5.465   1.238 -1.2692 -0.2988 -0.2448
12534TIP3   OH259092   2.162   4.386   2.475  0.6603  0.2376  0.3471
12534TIP3    H159093   2.139   4.372   2.383 -2.0381  0.5652  0.9034
12534TIP3    H259094   2.156   4.480   2.487  0.6044  0.1587  0.9521
12535TIP3   OH259095   0.219   4.656   1.493  0.0661 -0.2908 -0.3739
12535TIP3    H159096   0.190   4.631   1.405  0.0690  2.2360 -1.1792
12535TIP3    H259097   0.305   4.694   1.480  0.3919 -0.5657  0.8624
12536TIP3   OH259098   5.687   3.171  15.962 -0.3690 -0.2060 -0.1084
12536TIP3    H159099   5.661   3.173  15.870  2.1513  0.0808 -0.8864
12536TIP3    H259100   5.742   3.093  15.970 -0.6695 -0.3028  1.1888
12537TIP3   OH259101   6.073   3.050   0.986  0.5183  0.0197  0.5546
12537TIP3    H159102   6.000   3.107   0.959 -0.1501  0.0654  2.3386
12537TIP3    H259103   6.094   3.079   1.075  1.3390 -1.3726  0.8348
12538TIP3   OH259104   3.560   3.088   4.962  0.7974  0.4286  0.9683
12538TIP3    H159105   3.578   3.178   4.934 -0.0383  0.7593  1.4581
12538TIP3    H259106   3.482   3.063   4.912  0.5615  0.2599  1.4218
12539TIP3   OH259107   4.622   6.551  12.471 -0.4407 -0.8695 -0.2172
12539TIP3    H159108   4.632   6.466  12.430  0.4227 -1.3367  0.9097
12539TIP3    H259109   4.530   6.556  12.495 -0.7391 -0.9911 -1.3094
12540TIP3   OH259110   4.333   2.765   2.640 -0.2032 -0.6622  0.1372
12540TIP3    H159111   4.404   2.725   2.591 -0.0909  0.8471 -1.0028
12540TIP3    H259112   4.258   2.707   2.626 -0.4693  0.2352 -2.7927
12541TIP3   OH259113   1.638   0.484  15.499 -0.2411 -0.0874 -0.6269
12541TIP3    H159114   1.619   0.435  15.579 -1.4656 -1.1949 -1.5432
12541TIP3    H259115   1.662   0.571  15.529 -0.6669 -0.4776  0.9408
12542TIP3   OH259116   5.535   3.618  16.861  0.2631  0.1245 -0.2050
12542TIP3    H159117   5.553   3.691  16.802 -0.3374 -2.3586 -3.7805
12542TIP3    H259118   5.442   3.626  16.882  0.9582  2.3717  2.6696
12543TIP3   OH259119   4.556   2.835  11.293  0.3033  0.1167  0.3816
12543TIP3    H159120   4.522   2.757  11.249 -0.7146  0.8894 -0.2689
12543TIP3    H259121   4.531   2.908  11.235  2.6190  0.8070  0.1534
12544TIP3   OH259122   2.922   3.643  12.487  0.1831 -0.2952 -0.4513
12544TIP3    H159123   2.832   3.613  12.479 -0.9291  2.3266  1.0295
12544TIP3    H259124   2.952   3.655  12.397 -0.9073 -1.2626 -0.9571
12545TIP3   OH259125   0.693   1.171  14.736 -0.5227 -0.0296 -0.0241
12545TIP3    H159126   0.748   1.184  14.659 -0.8157  1.8167  0.0319
12545TIP3    H259127   0.623   1.236  14.726 -1.1950 -0.5316  1.2417
12546TIP3   OH259128   2.316   2.829   4.862  0.2175  0.5662  0.3343
12546TIP3    H159129   2.287   2.852   4.950  1.4033  2.3131  0.3275
12546TIP3    H259130   2.311   2.733   4.859  1.7306  0.2997  2.9042
12547TIP3   OH259131   6.111   0.315  12.168  0.1814 -0.2554  0.3709
12547TIP3    H159132   6.082   0.389  12.221 -1.7424 -0.0536 -0.8711
12547TIP3    H259133   6.039   0.299  12.106  0.9579 -2.5191 -0.0675
12548TIP3   OH259134   0.770   5.340   4.293  0.1399  0.3525  0.1852
12548TIP3    H159135   0.682   5.307   4.312 -0.3252 -0.6420 -3.0517
12548TIP3    H259136   0.827   5.289   4.350 -1.2223 -0.7630  0.6222
12549TIP3   OH259137   3.907   2.291  17.492 -0.2330  0.5759  0.4736
12549TIP3    H159138   3.926   2.361  17.430 -0.5060  0.9765  0.8380
12549TIP3    H259139   3.823   2.255  17.463  1.8157 -2.5619 -2.3831
12550TIP3   OH259140   6.517   1.198   3.447 -0.2268  0.2748 -0.2479
12550TIP3    H159141   6.530   1.165   3.536 -2.4771  1.2981  0.5365
12550TIP3    H259142   6.486   1.121   3.398  2.4236 -0.6712 -0.6388
12551TIP3   OH259143   1.599   6.131  16.018 -0.5090  0.1678 -0.5427
12551TIP3    H159144   1.661   6.197  16.050  0.3200  0.2380 -2.2277
12551TIP3    H259145   1.638   6.048  16.043 -0.7774  0.2561  0.2022
12552TIP3   OH259146   3.732   4.615  14.779  0.3441 -0.3752  0.6330
12552TIP3    H159147   3.691   4.639  14.696  1.1457 -0.2937  0.2535
12552TIP3    H259148   3.731   4.696  14.831 -2.3674 -0.9795  1.6864
12553TIP3   OH259149   2.203   4.371   6.289  0.3458 -0.1324  0.0396
12553TIP3    H159150   2.241   4.367   6.201 -2.1663 -0.0527 -1.1370
12553TIP3    H259151   2.186   4.280   6.312 -0.2472 -0.0728 -0.1545
12554TIP3   OH259152   0.227   2.075   2.121  0.1443  0.4625  0.3678
12554TIP3    H159153   0.280   2.019   2.065  0.5971  0.0948  1.1474
12554TIP3    H259154   0.261   2.059   2.209  0.4438  2.1405  0.5806
12555TIP3   OH259155   4.892   4.273  15.278  0.1772 -0.1506 -0.2253
12555TIP3    H159156   4.873   4.249  15.368 -0.9455  1.3892 -0.0117
12555TIP3    H259157   4.986   4.256  15.268 -0.2628 -3.4816  0.1496
12556TIP3   OH259158   1.294   4.327   3.008  0.2181 -0.9997 -0.2929
12556TIP3    H159159   1.201   4.311   2.996  0.5804 -1.6292 -2.7319
12556TIP3    H259160   1.334   4.240   3.008  0.9642 -0.6796 -1.0936
12557TIP3   OH259161   2.357   4.326   2.638 -0.1034 -0.0083  0.2086
12557TIP3    H159162   2.288   4.308   2.575 -1.8471  0.8146  1.7599
12557TIP3    H259163   2.438   4.328   2.587 -1.2235 -0.9855 -1.6787
12558TIP3   OH259164   0.282   3.799   0.937 -0.4751 -0.4279 -0.1867
12558TIP3    H159165   0.338   3.732   0.898  2.3144  0.5624  1.8389
12558TIP3    H259166   0.271   3.865   0.868  0.2183 -0.9938 -0.8543
12559TIP3   OH259167   4.228   4.735   5.181  0.3967 -0.1636  0.1690
12559TIP3    H159168   4.291   4.771   5.118 -1.0590  0.1284 -1.1950
12559TIP3    H259169   4.197   4.654   5.140  0.9216 -1.0750  1.5010
12560TIP3   OH259170   1.842   3.744   0.906  0.4869 -0.1929  0.2119
12560TIP3    H159171   1.932   3.715   0.892  0.4499 -0.9074  1.2801
12560TIP3    H259172   1.800   3.736   0.820  1.5926  0.7679 -0.4455
12561TIP3   OH259173   3.192   5.562  11.744  0.8484 -0.1722  0.4030
12561TIP3    H159174   3.106   5.552  11.703  0.3037  1.1230  1.1679
12561TIP3    H259175   3.197   5.655  11.765  2.6999 -0.0988 -0.1776
12562TIP3   OH259176   2.023   5.451  15.269  0.3046  0.3015 -0.0390
12562TIP3    H159177   1.988   5.363  15.255  0.7064  0.0357  0.5654
12562TIP3    H259178   2.088   5.440  15.339 -0.3599  1.2442  0.7500
12563TIP3   OH259179   1.810   1.757   5.577 -0.0578 -0.0233 -0.0480
12563TIP3    H159180   1.813   1.670   5.615  0.0177 -0.6164 -1.3350
12563TIP3    H259181   1.721   1.764   5.541 -0.4079  0.8469  0.9352
12564TIP3   OH259182   4.554   3.823  14.798  0.0978 -0.0711 -0.7942
12564TIP3    H159183   4.627   3.850  14.854 -0.0456 -1.9802  0.3992
12564TIP3    H259184   4.484   3.800  14.859 -0.7134 -0.4551 -1.8323
12565TIP3   OH259185   5.576   4.442  14.652  0.1335 -0.4559 -0.0880
12565TIP3    H159186   5.665   4.476  14.640  0.8346 -2.3411 -0.4941
12565TIP3    H259187   5.529   4.514  14.695  1.6169  0.8759 -0.5954
12566TIP3   OH259188   3.362   6.658  14.023  0.3165  0.2971 -0.4999
12566TIP3    H159189   3.273   6.677  14.051  0.4041  1.2034 -0.7971
12566TIP3    H259190   3.368   6.562  14.023 -1.0664  0.1877 -1.7394
12567TIP3   OH259191   4.990   6.441   0.561 -0.0796 -0.0639 -0.4298
12567TIP3    H159192   4.976   6.498   0.486 -2.0389  0.2291  0.0958
12567TIP3    H259193   4.985   6.499   0.637  1.2516 -0.4531 -0.0151
12568TIP3   OH259194   6.049   4.886   2.222  0.0110  0.0735  0.3563
12568TIP3    H159195   5.987   4.959   2.217  0.8603  0.7569 -0.5484
12568TIP3    H259196   6.091   4.898   2.307 -0.6409 -0.0316  0.7044
12569TIP3   OH259197   5.315   3.064  14.243  0.8474  0.2382  0.2169
12569TIP3    H159198   5.299   3.014  14.323 -2.2943 -2.8980 -2.1061
12569TIP3    H259199   5.256   3.139  14.250  1.0604  0.3447  1.0338
12570TIP3   OH259200   5.987   3.006  13.102 -0.0299 -0.6074  0.3515
12570TIP3    H159201   5.914   3.026  13.160 -0.6881  0.1178 -0.6890
12570TIP3    H259202   5.977   2.912  13.082 -1.8814 -0.1169 -1.3272
12571TIP3   OH259203   2.993   5.167   3.721 -0.1770  0.7215 -0.2379
12571TIP3    H159204   2.992   5.151   3.627 -1.5702 -3.4170  0.2523
12571TIP3    H259205   2.900   5.170   3.745 -0.0940 -3.6700  1.4784
12572TIP3   OH259206   4.281   2.200  15.955  0.4494  0.3030  0.6521
12572TIP3    H159207   4.303   2.203  16.048  1.1703 -0.1956  0.5043
12572TIP3    H259208   4.241   2.286  15.937  3.6931  1.9575  0.6114
12573TIP3   OH259209   2.316   5.921  13.363  0.5809  0.0067 -0.2153
12573TIP3    H159210   2.353   5.838  13.333 -0.0834 -0.5526  0.4800
12573TIP3    H259211   2.228   5.899  13.392  0.5466  0.8811  0.3691
12574TIP3   OH259212   0.780   6.266  13.955 -0.0635 -0.8794 -0.0964
12574TIP3    H159213   0.727   6.340  13.984  0.6554 -0.8077  1.1058
12574TIP3    H259214   0.825   6.236  14.034 -0.2965 -2.5838 -0.5570
12575TIP3   OH259215   0.402   5.040   3.250  0.0200  0.2178  0.0136
12575TIP3    H159216   0.409   4.955   3.293  1.1414  0.1648 -0.2439
12575TIP3    H259217   0.432   5.024   3.161 -0.4247  0.7370 -0.2296
12576TIP3   OH259218   2.946   1.357   0.479  0.5844  0.5024  0.1089
12576TIP3    H159219   3.020   1.310   0.440 -0.7363 -0.9292 -0.8169
12576TIP3    H259220   2.869   1.305   0.453 -0.8475  2.5479  0.0788
12577TIP3   OH259221   2.332   1.614  14.372  0.0918 -0.7698 -0.0637
12577TIP3    H159222   2.394   1.578  14.435 -1.0303 -1.6768  0.5607
12577TIP3    H259223   2.319   1.545  14.307  1.1903  0.1304 -1.2996
12578TIP3   OH259224   2.739   5.815  14.300 -0.5687 -0.5029 -0.4695
12578TIP3    H159225   2.708   5.853  14.218 -0.6178  0.6922  0.0751
12578TIP3    H259226   2.834   5.827  14.297 -0.6642  0.5438  0.1014
12579TIP3   OH259227   5.004   1.025  15.745 -0.3563 -0.2902  0.4403
12579TIP3    H159228   4.908   1.020  15.750 -0.3677 -0.0594  0.4324
12579TIP3    H259229   5.029   1.089  15.811 -0.3342  0.8967 -0.6744
12580TIP3   OH259230   4.178   5.577   6.089 -0.2025 -0.4220 -0.1440
12580TIP3    H159231   4.104   5.539   6.135 -1.1975  0.4305 -0.9868
12580TIP3    H259232   4.182   5.667   6.121 -0.1219 -0.1934 -0.7818
12581TIP3   OH259233   5.594   4.837  15.282 -0.5734 -0.3296 -0.4999
12581TIP3    H159234   5.509   4.805  15.254 -1.6339  0.7230  1.3438
12581TIP3    H259235   5.641   4.760  15.312 -1.0687 -0.8477 -1.0380
12582TIP3   OH259236   4.585   5.790  15.956 -0.1558 -0.3337 -0.4578
12582TIP3    H159237   4.568   5.809  15.864  0.3672 -0.2352 -0.5405
12582TIP3    H259238   4.504   5.814  16.001  0.0694  1.0088 -0.7121
12583TIP3   OH259239   2.851   1.698   5.530 -0.1156 -0.3881  0.6221
12583TIP3    H159240   2.908   1.637   5.577  0.2162 -0.1236  0.5649
12583TIP3    H259241   2.910   1.747   5.474 -0.4139 -0.1740  0.4951
12584TIP3   OH259242   4.214   1.892  17.196  0.1216  0.1048 -0.5222
12584TIP3    H159243   4.119   1.894  17.181  0.1684 -0.2463 -0.8722
12584TIP3    H259244   4.246   1.821  17.140  0.4885 -0.3082  0.2046
12585TIP3   OH259245   0.416   3.387  15.293 -0.2793 -0.2502  0.0109
12585TIP3    H159246   0.386   3.386  15.202 -0.1978  0.1066 -0.0209
12585TIP3    H259247   0.377   3.308  15.331  0.5431 -0.9795 -0.6035
12586TIP3   OH259248   0.281   4.890   3.588  0.5540 -0.2439  0.6628
12586TIP3    H159249   0.355   4.932   3.633  1.0994 -1.4049  0.8838
12586TIP3    H259250   0.301   4.796   3.593 -1.0621 -0.5896  0.9495
12587TIP3   OH259251   0.525   5.409   2.860  0.4825  0.7907 -0.0197
12587TIP3    H159252   0.482   5.475   2.806 -0.0381 -0.4935 -1.2483
12587TIP3    H259253   0.533   5.333   2.803  1.1182 -0.1942  1.3216
12588TIP3   OH259254   5.225   1.146  14.977  0.9349 -0.0631  0.0156
12588TIP3    H159255   5.219   1.059  15.017  1.2510 -0.5582 -0.9954
12588TIP3    H259256   5.307   1.182  15.010  1.2038 -0.4767 -0.2029
12589TIP3   OH259257   3.672   4.726   3.104 -0.2155 -0.0727 -0.4724
12589TIP3    H159258   3.732   4.729   3.178  0.6597 -1.6051 -1.0651
12589TIP3    H259259   3.596   4.777   3.132  0.9554  1.1339  0.6579
12590TIP3   OH259260   6.704   5.025   6.074 -0.6968  0.2835  0.4986
12590TIP3    H159261   6.699   5.005   6.167 -0.6642 -1.7071  0.1092
12590TIP3    H259262   6.614   5.043   6.048 -1.0313 -1.3158  0.4928
12591TIP3   OH259263   6.125   3.914   1.608 -0.0042  0.1086 -0.0411
12591TIP3    H159264   6.097   4.005   1.614  1.0732  0.4452 -0.0505
12591TIP3    H259265   6.049   3.868   1.570 -1.3553  0.6070  1.8942
12592TIP3   OH259266   5.917   1.096  12.822 -0.1828 -0.0761 -0.3057
12592TIP3    H159267   5.890   1.188  12.826  1.4386  0.4759 -1.4716
12592TIP3    H259268   5.921   1.076  12.729 -2.8221 -2.0939 -0.1154
12593TIP3   OH259269   3.824   0.657   2.898  0.7426 -0.2303 -0.0460
12593TIP3    H159270   3.786   0.738   2.862 -1.0517 -1.1948 -0.4295
12593TIP3    H259271   3.829   0.598   2.823  2.3320 -0.4125  0.1670
12594TIP3   OH259272   1.538   6.260   1.806  0.6627 -0.3118 -0.0227
12594TIP3    H159273   1.496   6.337   1.843  0.8959 -0.8328  1.3911
12594TIP3    H259274   1.485   6.238   1.729 -0.7522 -0.0761  0.8619
12595TIP3   OH259275   0.290   5.887  13.345  0.3478  0.3486  0.1160
12595TIP3    H159276   0.199   5.859  13.358  1.3085 -2.8247  0.7912
12595TIP3    H259277   0.286   5.944  13.268 -2.0688 -0.5204 -0.4925
12596TIP3   OH259278   0.376   3.000   2.042  0.1381  0.0472  0.0290
12596TIP3    H159279   0.339   3.006   2.130  0.6874  0.9715  0.2126
12596TIP3    H259280   0.416   2.914   2.039 -0.9948 -0.5090  0.2284
12597TIP3   OH259281   3.512   1.275   0.940  0.1424  0.1165  0.0008
12597TIP3    H159282   3.469   1.206   0.990 -1.6145  0.7920 -0.4673
12597TIP3    H259283   3.585   1.304   0.995  0.0670 -1.1562  0.8073
12598TIP3   OH259284   2.084   2.937   5.755  0.1016  0.1408  0.6325
12598TIP3    H159285   2.035   2.938   5.837 -0.6730  0.2233  0.1838
12598TIP3    H259286   2.169   2.900   5.777 -0.7309 -1.5373  1.1145
12599TIP3   OH259287   4.538   2.225   0.529 -0.0096 -0.0365 -0.7862
12599TIP3    H159288   4.628   2.256   0.531  0.4231 -1.2335 -1.2184
12599TIP3    H259289   4.506   2.249   0.442  0.0380 -0.0388 -0.8041
12600TIP3   OH259290   3.901   4.465   5.510  0.6619  0.3588  0.2323
12600TIP3    H159291   3.873   4.491   5.598  1.4503  1.6345  0.1282
12600TIP3    H259292   3.948   4.541   5.476 -1.1967  0.6337 -2.0301
12601TIP3   OH259293   6.351   4.606   3.074 -0.4160 -0.4374 -0.1144
12601TIP3    H159294   6.329   4.583   2.984 -0.9067  0.9625 -0.3768
12601TIP3    H259295   6.406   4.533   3.104 -2.1094 -2.0801 -0.7643
12602TIP3   OH259296   1.981   5.284   0.334 -0.4382  0.8466  0.1251
12602TIP3    H159297   1.902   5.314   0.290 -1.0088 -0.9937 -0.1915
12602TIP3    H259298   1.950   5.237   0.411  0.3336  0.0948 -0.0060
12603TIP3   OH259299   2.424   4.213   2.289 -0.5685  0.6813 -0.0715
12603TIP3    H159300   2.470   4.257   2.360  0.6868  1.3495 -1.2485
12603TIP3    H259301   2.490   4.155   2.250 -1.2093  0.3889 -0.7491
12604TIP3   OH259302   0.864   1.061   5.241  0.0837  0.0277 -0.2258
12604TIP3    H159303   0.917   1.128   5.200 -0.4591  0.5075 -0.1522
12604TIP3    H259304   0.816   1.106   5.311 -1.4217 -0.1000 -1.1376
12605TIP3   OH259305   2.131   5.475   2.916  0.1614 -0.0712  0.3524
12605TIP3    H159306   2.091   5.455   3.001  0.2139  2.8449  1.1841
12605TIP3    H259307   2.224   5.481   2.935  0.3835 -1.2162 -0.3390
12606TIP3   OH259308   4.333   3.985   6.843 -0.1281  0.2055 -0.4952
12606TIP3    H159309   4.315   4.050   6.776 -1.2592  1.2874  0.8028
12606TIP3    H259310   4.415   3.944   6.815 -0.3049  0.9695 -2.2425
12607TIP3   OH259311   3.701   1.705   0.872  0.0795 -0.7097 -0.5327
12607TIP3    H159312   3.647   1.763   0.819  1.8131  1.1016 -0.4094
12607TIP3    H259313   3.674   1.722   0.962 -1.8260 -2.7241 -0.6081
12608TIP3   OH259314   5.735   2.899  15.416  0.2764  0.6977  0.1259
12608TIP3    H159315   5.657   2.878  15.365 -0.0131 -2.3681  1.6098
12608TIP3    H259316   5.808   2.869  15.363  0.0017 -2.0680  1.1706
12609TIP3   OH259317   1.556   1.561  16.009  0.1287  0.3898 -0.6209
12609TIP3    H159318   1.586   1.579  15.920  0.3414 -1.2046 -0.9008
12609TIP3    H259319   1.565   1.466  16.018 -0.0221  0.5163  1.0569
12610TIP3   OH259320   0.258   0.678  16.345  0.1816  0.1255  0.6966
12610TIP3    H159321   0.166   0.659  16.360  0.5855 -2.3582  0.3626
12610TIP3    H259322   0.305   0.598  16.369  2.2450  1.2240  0.6227
12611TIP3   OH259323   0.732   3.387  14.542 -0.0319 -0.5571  0.2722
12611TIP3    H159324   0.790   3.459  14.518  0.5758 -1.2662 -0.4305
12611TIP3    H259325   0.787   3.327  14.592 -0.1174 -1.2654 -0.4548
12612TIP3   OH259326   3.817   0.229  12.756 -0.7627 -0.3147  0.0364
12612TIP3    H159327   3.778   0.257  12.673  0.2243  0.7772 -0.0782
12612TIP3    H259328   3.764   0.271  12.823  0.2002  1.2217 -0.1203
12613TIP3   OH259329   6.353   6.240  14.136 -0.3619 -0.4252 -0.8253
12613TIP3    H159330   6.412   6.231  14.061  1.9414 -0.3996  0.8478
12613TIP3    H259331   6.345   6.151  14.171  1.6401 -0.0160  0.9469
12614TIP3   OH259332   6.712   1.457   4.667  0.6242 -0.3385  0.4701
12614TIP3    H159333   6.723   1.372   4.626  1.2904  0.3134 -0.7791
12614TIP3    H259334   6.799   1.498   4.661 -0.1597  1.2523 -0.9301
12615TIP3   OH259335   1.681   2.078  13.139  0.3870 -0.6498 -0.3709
12615TIP3    H159336   1.686   2.095  13.045  0.1574  0.8867 -0.1356
12615TIP3    H259337   1.772   2.068  13.167  0.4514 -1.1839 -0.7601
12616TIP3   OH259338   1.265   4.500   5.720  0.1298 -0.2034 -1.0008
12616TIP3    H159339   1.339   4.462   5.768 -0.6077 -0.6680 -0.1905
12616TIP3    H259340   1.289   4.491   5.628  1.1554 -0.1915 -0.7510
12617TIP3   OH259341   0.509   4.866   6.013 -0.0925  0.1616  1.0834
12617TIP3    H159342   0.509   4.843   5.920 -0.9361 -0.3513  1.2017
12617TIP3    H259343   0.590   4.916   6.025  0.3283 -0.2796  0.2057
12618TIP3   OH259344   2.436   3.298  11.770 -0.6050  0.3240  0.3456
12618TIP3    H159345   2.460   3.330  11.857  0.8015 -0.2288  0.1875
12618TIP3    H259346   2.350   3.336  11.753 -1.2534 -0.1855  2.2956
12619TIP3   OH259347   0.889   3.523   4.200  0.2535  0.6742  0.1563
12619TIP3    H159348   0.835   3.498   4.125 -0.5873  0.1632  0.9083
12619TIP3    H259349   0.935   3.442   4.223 -1.4253  0.0894  1.7399
12620TIP3   OH259350   2.684   1.252   3.382 -0.0281  0.2319 -0.6188
12620TIP3    H159351   2.646   1.195   3.315 -0.3663 -0.1545 -0.1063
12620TIP3    H259352   2.698   1.336   3.337  0.4244 -0.2310 -1.3637
12621TIP3   OH259353   5.984   3.277  16.143  0.0008  0.5173  0.2302
12621TIP3    H159354   6.051   3.282  16.211  2.4745  0.1953 -2.0004
12621TIP3    H259355   5.983   3.185  16.117 -1.5485  0.4631  0.3780
12622TIP3   OH259356   2.027   6.382  12.109 -0.6231  0.0376  0.1524
12622TIP3    H159357   2.065   6.357  12.193 -0.1109  0.9247  0.2031
12622TIP3    H259358   2.092   6.356  12.044 -0.3205  0.7207  0.1664
12623TIP3   OH259359   1.483   6.346  11.211  0.9654  0.0121 -0.2663
12623TIP3    H159360   1.473   6.401  11.289  0.3334 -0.2737 -0.1408
12623TIP3    H259361   1.518   6.263  11.244 -0.4342 -0.5433 -0.1016
12624TIP3   OH259362   2.963   0.124  11.965  0.2110 -0.2442  0.2321
12624TIP3    H159363   3.058   0.126  11.954  0.0683 -0.7542 -1.3267
12624TIP3    H259364   2.950   0.115  12.060  1.7153 -0.7672  0.4129
12625TIP3   OH259365   6.184   4.913   5.590  0.9650 -0.1071  0.1799
12625TIP3    H159366   6.146   4.826   5.596  0.7349 -0.0065  0.2359
12625TIP3    H259367   6.239   4.911   5.513  1.7602 -0.6056  0.7512
12626TIP3   OH259368   3.167   5.041  14.241  0.3918  0.3007 -0.2380
12626TIP3    H159369   3.095   4.978  14.233 -1.6715  2.6425 -1.3132
12626TIP3    H259370   3.155   5.081  14.326 -0.6024  1.8068 -1.0542
12627TIP3   OH259371   3.649   3.807   1.159  0.2906 -0.7205  0.5020
12627TIP3    H159372   3.729   3.847   1.126 -0.0148 -1.0656 -0.7076
12627TIP3    H259373   3.579   3.856   1.116 -0.1817 -0.1260  1.8802
12628TIP3   OH259374   0.267   3.492  11.511 -0.2255  0.1624 -0.0395
12628TIP3    H159375   0.180   3.474  11.544 -0.0178  1.3039  1.2094
12628TIP3    H259376   0.253   3.517  11.420 -0.9792 -1.4521 -0.4041
12629TIP3   OH259377   0.094   5.671   0.856 -0.5674 -1.2851  0.0262
12629TIP3    H159378   0.165   5.735   0.853 -0.7503 -1.1187 -2.3469
12629TIP3    H259379   0.111   5.612   0.783 -2.4612 -1.6960 -0.1426
12630TIP3   OH259380   4.595   2.485   3.594  0.2385 -0.1695 -0.3158
12630TIP3    H159381   4.573   2.544   3.666  3.6015  3.0995 -1.6256
12630TIP3    H259382   4.523   2.494   3.532 -0.0676  1.3718  0.2264
12631TIP3   OH259383   4.225   5.793  14.887 -0.4553 -0.2838 -0.0115
12631TIP3    H159384   4.251   5.834  14.970  0.2039 -0.9258  0.1118
12631TIP3    H259385   4.139   5.754  14.906 -0.5461  0.0262  0.2190
12632TIP3   OH259386   4.860   2.822  15.320 -0.4112  0.5766 -0.7240
12632TIP3    H159387   4.823   2.875  15.250 -1.3811 -0.0190 -0.6692
12632TIP3    H259388   4.848   2.732  15.291 -0.8496  0.3235  0.2139
12633TIP3   OH259389   5.062   5.737  13.167 -0.2961 -0.3100 -0.0984
12633TIP3    H159390   4.967   5.746  13.175 -0.4630  0.6553 -2.4488
12633TIP3    H259391   5.074   5.652  13.124 -0.2303  0.3526 -1.4270
12634TIP3   OH259392   1.567   3.127  15.750 -0.2699 -0.2915  0.4614
12634TIP3    H159393   1.599   3.170  15.670 -0.6071  0.3630  0.6685
12634TIP3    H259394   1.604   3.039  15.747  2.3982  0.7232  1.2140
12635TIP3   OH259395   0.097   2.526  11.153  0.0393 -0.7090 -0.2381
12635TIP3    H159396   0.012   2.564  11.173  1.0875  0.6384  2.0281
12635TIP3    H259397   0.096   2.514  11.058 -1.7229  1.6483 -0.6114
12636TIP3   OH259398   4.948   4.074   1.221  0.2773 -0.3139  0.4126
12636TIP3    H159399   5.027   4.106   1.177 -0.2894  0.4819 -0.0643
12636TIP3    H259400   4.910   4.012   1.159  0.3521 -0.4484  0.5006
12637TIP3   OH259401   0.255   2.293   1.974  0.2073  0.6617  0.4606
12637TIP3    H159402   0.216   2.226   2.030 -2.4319  2.0132  0.3564
12637TIP3    H259403   0.288   2.244   1.898  1.8328 -0.9090  2.0734
12638TIP3   OH259404   6.309   4.888   4.206 -0.0133 -0.2029 -0.1402
12638TIP3    H159405   6.269   4.820   4.260  0.8194 -1.3423 -0.8922
12638TIP3    H259406   6.336   4.956   4.268  3.4826 -2.6727  1.4117
12639TIP3   OH259407   6.081   1.670   0.164  0.3358  0.0457 -0.2170
12639TIP3    H159408   6.002   1.663   0.219  0.9773  1.5112  0.9576
12639TIP3    H259409   6.135   1.596   0.192 -0.1519 -0.3421 -0.2690
12640TIP3   OH259410   4.471   2.402   4.250 -0.3739 -0.1336  0.0924
12640TIP3    H159411   4.512   2.378   4.167  0.0736  0.8017  0.0270
12640TIP3    H259412   4.433   2.321   4.283  0.5337 -0.7751 -0.4144
12641TIP3   OH259413   0.774   1.134  11.884  0.6052 -0.2342 -0.0160
12641TIP3    H159414   0.808   1.220  11.909 -0.6257  0.1120  0.5556
12641TIP3    H259415   0.739   1.148  11.795 -3.0500  0.9761  1.4141
12642TIP3   OH259416   3.868   4.095   1.665  0.1631 -0.1002  0.2079
12642TIP3    H159417   3.929   4.168   1.650 -1.1221  0.7959 -0.8486
12642TIP3    H259418   3.787   4.137   1.693 -0.5443 -1.1374 -0.2332
12643TIP3   OH259419   3.544   3.322  10.745  0.2566 -0.0893 -0.3772
12643TIP3    H159420   3.513   3.389  10.806 -2.0640 -0.5624 -0.9187
12643TIP3    H259421   3.536   3.240  10.793 -0.2506 -0.3144 -0.8283
12644TIP3   OH259422   6.713   5.581  12.261 -0.5082  0.0300 -0.0658
12644TIP3    H159423   6.742   5.493  12.287  0.9447  0.3103 -0.6152
12644TIP3    H259424   6.776   5.640  12.303 -0.8937  0.7494 -0.4813
12645TIP3   OH259425   3.361   0.070   4.768 -0.0882 -0.0185 -0.4395
12645TIP3    H159426   3.333  -0.017   4.740  1.3166 -0.5399 -0.3135
12645TIP3    H259427   3.388   0.058   4.859  1.6740  0.1740 -0.9151
12646TIP3   OH259428   3.101   1.991  11.311  0.1404  0.4160  0.1562
12646TIP3    H159429   3.179   1.973  11.257 -0.8200  0.8792 -1.4609
12646TIP3    H259430   3.045   1.914  11.298 -0.5435  0.9866 -0.3618
12647TIP3   OH259431   0.519   5.195   4.354  0.1778 -0.1432 -0.7264
12647TIP3    H159432   0.481   5.208   4.267 -0.1139  1.1595 -0.4225
12647TIP3    H259433   0.457   5.137   4.398  0.2449 -0.6864 -1.3252
12648TIP3   OH259434   0.974   5.337  17.175 -0.0795 -0.4711 -0.0147
12648TIP3    H159435   1.018   5.422  17.184  0.1513 -0.7971  2.4728
12648TIP3    H259436   1.035   5.285  17.122  1.0313  0.1116  0.6464
12649TIP3   OH259437   0.629   2.151  14.145  0.5942 -0.3032  0.3499
12649TIP3    H159438   0.615   2.104  14.063  1.4969 -1.7078  0.9603
12649TIP3    H259439   0.720   2.133  14.168 -0.1411 -1.6071  2.6250
12650TIP3   OH259440   5.827   4.890  11.768  0.2714  0.5557  0.0982
12650TIP3    H159441   5.837   4.863  11.860  0.3251  0.2000 -0.0106
12650TIP3    H259442   5.838   4.985  11.770 -1.5968  0.8055  0.7500
12651TIP3   OH259443   1.777   2.581  16.793  0.0782  0.0029 -0.1197
12651TIP3    H159444   1.863   2.543  16.779  0.1301 -0.3244  0.9967
12651TIP3    H259445   1.739   2.530  16.865 -0.6463  0.7832  0.0770
12652TIP3   OH259446   2.685   1.354   6.041  0.4044 -0.1558  0.2601
12652TIP3    H159447   2.627   1.300   5.988  0.8247 -1.9894  1.5791
12652TIP3    H259448   2.759   1.375   5.983 -0.0974 -0.3977 -0.4737
12653TIP3   OH259449   6.201   4.559  13.570 -0.7202 -0.5803  0.3231
12653TIP3    H159450   6.185   4.647  13.537 -1.2459 -0.9975 -0.5594
12653TIP3    H259451   6.171   4.501  13.500  0.0493 -1.4574  0.7045
12654TIP3   OH259452   2.622   1.326  13.430  0.4637  0.1494 -0.0198
12654TIP3    H159453   2.631   1.331  13.525  0.6793  0.9336 -0.0683
12654TIP3    H259454   2.698   1.373  13.396  0.3842 -0.1112 -0.5796
12655TIP3   OH259455   0.192   3.526  15.419  0.4071 -0.6744 -0.1104
12655TIP3    H159456   0.224   3.614  15.397  1.1803 -0.5791  1.2980
12655TIP3    H259457   0.264   3.486  15.467 -0.0647 -1.9754 -0.4564
12656TIP3   OH259458   5.071   3.225  15.341 -0.1871 -0.5232  0.2534
12656TIP3    H159459   5.101   3.135  15.335 -0.6058 -0.6056 -0.7019
12656TIP3    H259460   5.023   3.229  15.424  0.5159 -0.9560  0.6946
12657TIP3   OH259461   3.270   4.632  12.036 -0.1594  0.4623  0.6595
12657TIP3    H159462   3.244   4.654  11.946 -0.1322 -1.0340  0.2572
12657TIP3    H259463   3.230   4.701  12.090  0.9046  2.1495 -0.5861
12658TIP3   OH259464   1.951   6.048   0.270 -0.0225  0.3914 -0.3514
12658TIP3    H159465   1.913   6.135   0.281  0.5011  0.5963 -0.0776
12658TIP3    H259466   1.877   5.992   0.249 -0.5339  0.7068  0.5212
12659TIP3   OH259467   1.531   3.159   0.223 -0.0468 -0.9826 -0.5384
12659TIP3    H159468   1.493   3.246   0.234  1.2436 -0.4193 -0.2994
12659TIP3    H259469   1.578   3.143   0.306  0.0121 -1.7547 -0.7115
12660TIP3   OH259470   6.154   0.737   4.904 -0.3354  0.0479 -0.2425
12660TIP3    H159471   6.218   0.697   4.845  0.0999  2.5428 -1.5888
12660TIP3    H259472   6.088   0.669   4.918  1.9403 -2.2035  0.2340
12661TIP3   OH259473   3.006   2.903   1.361  0.4945  0.3833  0.1713
12661TIP3    H159474   2.934   2.946   1.314 -0.2058 -0.4410  0.4495
12661TIP3    H259475   3.018   2.956   1.440 -0.1380  0.2689  0.3512
12662TIP3   OH259476   4.759   6.148   3.318  0.1694  0.7831 -0.1552
12662TIP3    H159477   4.757   6.194   3.402  2.1250 -1.2516  1.1183
12662TIP3    H259478   4.749   6.055   3.341  0.6192  0.1831 -2.1736
12663TIP3   OH259479   2.363   4.716   4.879 -0.1688  0.3693 -0.1275
12663TIP3    H159480   2.457   4.705   4.866 -0.1720 -0.7137  0.6071
12663TIP3    H259481   2.324   4.702   4.793  0.2478 -0.6046 -0.1740
12664TIP3   OH259482   6.763   0.681  16.457  0.0188  0.0715 -0.1822
12664TIP3    H159483   6.677   0.662  16.418 -0.0126  0.3659 -0.2546
12664TIP3    H259484   6.751   0.664  16.551  0.3269 -1.4888 -0.3891
12665TIP3   OH259485   4.883   1.981  16.706 -0.3936 -0.3748  0.4383
12665TIP3    H159486   4.794   2.009  16.683 -1.1179 -2.0445  1.0493
12665TIP3    H259487   4.896   2.013  16.795 -0.7511 -0.8871  0.6821
12666TIP3   OH259488   6.188   1.861   4.697  0.2656  0.1858  0.4043
12666TIP3    H159489   6.148   1.856   4.784  0.8090  1.7173  0.7641
12666TIP3    H259490   6.152   1.941   4.659  1.3809  0.4630 -0.0832
12667TIP3   OH259491   3.550   3.448  13.188 -0.1863 -0.0971 -0.2339
12667TIP3    H159492   3.628   3.502  13.173  1.7374 -2.8126 -0.8539
12667TIP3    H259493   3.510   3.439  13.101 -0.0857 -0.2470 -0.2657
12668TIP3   OH259494   3.859   1.837  13.157  0.2839  0.0968 -0.5467
12668TIP3    H159495   3.849   1.917  13.106  0.0500  0.1391 -0.4369
12668TIP3    H259496   3.779   1.832  13.209  1.0754  0.7670  0.8129
12669TIP3   OH259497   3.059   2.129  16.496  0.4319  0.3931 -0.0427
12669TIP3    H159498   3.055   2.084  16.411 -2.3717  0.9437 -0.2859
12669TIP3    H259499   3.133   2.088  16.541 -0.0866 -2.3424 -1.4413
12670TIP3   OH259500   4.309   6.001  16.311 -0.3322 -0.4673  0.1394
12670TIP3    H159501   4.399   6.032  16.323 -1.2787  2.0826  1.3699
12670TIP3    H259502   4.306   5.917  16.356  0.7654  0.7180  2.5838
12671TIP3   OH259503   3.631   3.753   2.365 -0.2834  0.3066  0.0002
12671TIP3    H159504   3.668   3.838   2.387  0.6196  0.0843 -0.6152
12671TIP3    H259505   3.550   3.773   2.318  0.5173  0.8493 -1.1756
12672TIP3   OH259506   2.362   1.557   0.198  0.1040  0.7258  0.3566
12672TIP3    H159507   2.348   1.548   0.292 -1.0155  1.2047  0.2613
12672TIP3    H259508   2.455   1.577   0.189  0.3620  0.0169  1.3022
12673TIP3   OH259509   3.085   4.440  15.574 -0.2101  0.2015  0.4616
12673TIP3    H159510   3.124   4.425  15.660 -0.5318 -0.3698  0.5127
12673TIP3    H259511   3.012   4.378  15.570  0.4860 -0.5721 -0.6594
12674TIP3   OH259512   0.818   5.302  14.521  0.1565 -0.3554 -0.5218
12674TIP3    H159513   0.747   5.366  14.529  1.6055  1.3049 -0.3507
12674TIP3    H259514   0.810   5.247  14.599 -0.0514  0.7484  0.2531
12675TIP3   OH259515   6.074   1.747  13.722 -0.1975  0.2730 -1.0224
12675TIP3    H159516   6.168   1.746  13.703 -0.2940 -1.0194 -1.5036
12675TIP3    H259517   6.068   1.772  13.814  0.5731  1.1170 -1.1911
12676TIP3   OH259518   3.988   1.203  14.674  0.1077  0.3937  0.3268
12676TIP3    H159519   4.063   1.159  14.713 -0.0285  0.4896  0.7010
12676TIP3    H259520   4.024   1.283  14.637  0.2796  0.1845  0.0390
12677TIP3   OH259521   1.570   2.763  17.517 -0.1746 -0.4492  0.3590
12677TIP3    H159522   1.630   2.732  17.585 -0.4473 -2.0746 -0.0891
12677TIP3    H259523   1.607   2.728  17.436  1.0880  2.8603 -0.6381
12678TIP3   OH259524   2.296   6.379   6.197  0.1226 -0.1719  0.6627
12678TIP3    H159525   2.297   6.460   6.147 -1.0477 -0.5451 -0.0016
12678TIP3    H259526   2.334   6.403   6.282  0.1699  0.9626  0.3387
12679TIP3   OH259527   4.686   2.955   2.763 -0.8187 -0.3228 -0.2738
12679TIP3    H159528   4.747   2.944   2.836  1.2269  0.7512 -1.7351
12679TIP3    H259529   4.685   2.871   2.719  0.7923  0.0483 -1.0729
12680TIP3   OH259530   0.488   5.366  10.800  0.5008  0.2504  0.2580
12680TIP3    H159531   0.546   5.419  10.745  1.9012 -1.5991 -0.1571
12680TIP3    H259532   0.423   5.330  10.739  1.7264 -1.3587 -0.1646
12681TIP3   OH259533   4.384   3.104  15.198  0.3985  0.1117  0.8068
12681TIP3    H159534   4.430   3.039  15.251  0.9014 -0.0014  0.2430
12681TIP3    H259535   4.392   3.186  15.248  0.0161 -0.1919  1.3763
12682TIP3   OH259536   6.720   0.778  14.312  0.5412 -0.2764 -0.3535
12682TIP3    H159537   6.695   0.686  14.325 -0.5914  0.1173  0.3612
12682TIP3    H259538   6.815   0.778  14.324  0.5724 -1.3663 -0.4386
12683TIP3   OH259539   3.556   5.947   4.241  0.2279  0.1739 -0.0570
12683TIP3    H159540   3.553   6.041   4.259 -0.3126  0.0156  0.7302
12683TIP3    H259541   3.560   5.907   4.328 -0.7132 -0.5671 -0.3435
12684TIP3   OH259542   6.218   5.489   2.774  1.0337 -0.2123  0.5351
12684TIP3    H159543   6.225   5.571   2.822  0.3236  0.9321 -1.2156
12684TIP3    H259544   6.266   5.426   2.827  1.0915  1.1870  2.2272
12685TIP3   OH259545   5.904   0.053   0.938  0.4977 -0.0963 -0.3199
12685TIP3    H159546   5.862   0.005   1.010  0.2481  0.5506 -0.0207
12685TIP3    H259547   5.901   0.145   0.966  0.1538  0.1964 -1.2880
12686TIP3   OH259548   6.050   0.948   5.733 -0.4368 -0.1903 -0.1051
12686TIP3    H159549   6.033   0.975   5.823  0.1033  0.8635 -0.2943
12686TIP3    H259550   5.988   1.000   5.681 -1.2150 -1.2941 -0.2994
12687TIP3   OH259551   3.462   5.514  16.875 -0.0687 -0.4688 -0.2704
12687TIP3    H159552   3.557   5.522  16.874 -0.1716  1.0946 -0.0611
12687TIP3    H259553   3.435   5.535  16.785 -0.0587 -4.0741 -1.2393
12688TIP3   OH259554   2.321   4.332   4.774 -0.3281  0.1861 -0.1827
12688TIP3    H159555   2.334   4.368   4.862 -1.3133  0.6620 -0.2204
12688TIP3    H259556   2.226   4.335   4.760 -0.1960 -0.0018 -1.2162
12689TIP3   OH259557   0.288   5.630   4.019  0.4475 -0.3512 -0.0967
12689TIP3    H159558   0.259   5.558   3.962  1.9971  0.2695 -1.7723
12689TIP3    H259559   0.304   5.589   4.104 -2.4256 -1.2333  0.1334
12690TIP3   OH259560   6.594   2.697   2.754  0.0205  0.2763 -0.7701
12690TIP3    H159561   6.557   2.699   2.842  2.3354 -1.4920  0.3395
12690TIP3    H259562   6.598   2.788   2.727  2.5025  1.2930  2.4288
12691TIP3   OH259563   3.975   1.540   6.338 -0.0409  0.2640 -0.7148
12691TIP3    H159564   3.925   1.618   6.361  0.6753  0.8593 -1.1325
12691TIP3    H259565   4.030   1.567   6.265  1.7836 -0.0123  0.4884
12692TIP3   OH259566   4.435   2.222  14.394  0.2369 -0.3091  0.0862
12692TIP3    H159567   4.450   2.138  14.438 -0.0705 -0.3002  0.2091
12692TIP3    H259568   4.520   2.264  14.393  0.2473 -0.3175  0.6515
12693TIP3   OH259569   3.735   0.596  15.157  0.1427  0.2349  0.1461
12693TIP3    H159570   3.741   0.687  15.185 -1.3347  0.2274  0.5952
12693TIP3    H259571   3.819   0.558  15.180  1.1893  1.7254 -1.0025
12694TIP3   OH259572   1.448   2.456  17.085 -0.3046 -0.0883  0.1683
12694TIP3    H159573   1.426   2.412  17.167  0.9741 -1.8414 -0.3846
12694TIP3    H259574   1.536   2.491  17.099 -1.3769  2.6715  0.6881
12695TIP3   OH259575   2.542   0.344   1.952  0.0251 -0.2623 -0.2741
12695TIP3    H159576   2.504   0.406   2.015 -0.1976 -1.2702  0.6038
12695TIP3    H259577   2.480   0.342   1.879  0.2082  0.7942 -0.4775
12696TIP3   OH259578   4.198   5.807  11.076 -0.1478  0.0457  0.0042
12696TIP3    H159579   4.244   5.837  10.998 -0.2651  0.9687  0.2790
12696TIP3    H259580   4.184   5.713  11.062  0.8305 -0.0155 -0.5708
12697TIP3   OH259581   5.306   6.250   5.380  0.7340  0.0500 -0.2132
12697TIP3    H159582   5.328   6.213   5.295  1.5153 -0.2267  0.1069
12697TIP3    H259583   5.212   6.271   5.374  0.5738 -0.8178 -0.8187
12698TIP3   OH259584   3.534   0.716   4.708  0.3106  0.8134 -0.4654
12698TIP3    H159585   3.519   0.807   4.681  1.6888  1.5259  1.0019
12698TIP3    H259586   3.474   0.665   4.654 -1.0376  2.6572 -0.8079
12699TIP3   OH259587   3.800   5.705   1.081 -0.1460  0.5009 -0.2916
12699TIP3    H159588   3.870   5.766   1.100 -0.0421  0.9903 -2.0179
12699TIP3    H259589   3.843   5.620   1.072  0.1165  0.6644 -0.5825
12700TIP3   OH259590   2.816   1.799  17.320  0.4420 -0.3082 -0.0124
12700TIP3    H159591   2.729   1.815  17.356  1.2978  1.6467  1.3672
12700TIP3    H259592   2.801   1.745  17.242 -2.1124  0.9848 -0.5025
12701TIP3   OH259593   1.847   3.967   1.603  0.9252 -0.5261  0.4335
12701TIP3    H159594   1.929   4.014   1.586  0.4230 -0.0043 -0.6419
12701TIP3    H259595   1.810   3.953   1.516  0.1185 -1.2030  0.8837
12702TIP3   OH259596   3.635   0.444   3.238 -0.6408  0.0196  0.1575
12702TIP3    H159597   3.646   0.517   3.177  1.7907 -0.5156 -0.1243
12702TIP3    H259598   3.658   0.366   3.186  0.8509 -0.5167  1.5421
12703TIP3   OH259599   3.260   5.285   1.966 -0.2768  0.5209  0.9347
12703TIP3    H159600   3.273   5.283   2.061 -0.1184 -0.4312  0.9061
12703TIP3    H259601   3.169   5.258   1.954  0.5290 -2.5006  0.7162
12704TIP3   OH259602   5.184   0.666  13.933  0.0462  0.3896 -0.5896
12704TIP3    H159603   5.136   0.603  13.880 -0.5624  1.0038 -0.7720
12704TIP3    H259604   5.227   0.723  13.869  1.2239 -0.2869 -0.4370
12705TIP3   OH259605   6.297   5.923   3.439  0.0743  0.1112 -0.4282
12705TIP3    H159606   6.390   5.910   3.458  0.1041  1.0465  0.1441
12705TIP3    H259607   6.273   6.002   3.488 -1.1235 -0.3438 -0.2514
12706TIP3   OH259608   4.001   4.842   1.798  0.3390  0.1154 -0.5177
12706TIP3    H159609   4.007   4.826   1.892 -1.0224  0.7096 -0.3010
12706TIP3    H259610   4.075   4.899   1.778 -0.8845  2.3014  0.7655
12707TIP3   OH259611   2.061   2.304  17.207  0.1789  0.1863 -0.1352
12707TIP3    H159612   1.993   2.323  17.271 -0.2648 -2.6356  0.3551
12707TIP3    H259613   2.142   2.336  17.248 -0.3245 -0.0635  1.1010
12708TIP3   OH259614   1.128   5.778  14.308  0.0270 -0.1264  0.5816
12708TIP3    H159615   1.033   5.778  14.303  0.0621 -1.6465 -1.5533
12708TIP3    H259616   1.157   5.799  14.219  1.6598 -0.6076  0.9602
12709TIP3   OH259617   4.940   6.510   3.234 -0.2923  0.5556 -0.5646
12709TIP3    H159618   4.881   6.462   3.176 -1.3516 -0.0594  0.9699
12709TIP3    H259619   5.026   6.471   3.218 -0.8481 -0.7317 -0.5733
12710TIP3   OH259620   3.070   6.001  12.584 -0.1043  0.5516  0.0796
12710TIP3    H159621   3.068   6.006  12.679  0.4806  1.1939  0.0691
12710TIP3    H259622   3.070   6.092  12.555  2.5735  0.4703 -0.4493
12711TIP3   OH259623   6.160   0.428   2.469  0.3429  0.9423  0.2535
12711TIP3    H159624   6.124   0.381   2.394 -0.9043  1.6291  0.3935
12711TIP3    H259625   6.150   0.367   2.542 -1.9250  1.5911  0.5799
12712TIP3   OH259626   2.905   5.752   3.330  0.1846 -0.1791  0.2626
12712TIP3    H159627   2.953   5.705   3.398  0.4042 -0.3823 -0.0273
12712TIP3    H259628   2.925   5.844   3.346 -0.3413 -0.1710  0.9053
12713TIP3   OH259629   2.453   4.693  10.797 -0.6769 -0.6580  0.0773
12713TIP3    H159630   2.493   4.617  10.754  1.2639 -0.9012  2.1066
12713TIP3    H259631   2.378   4.657  10.843 -0.6437 -1.0594 -0.1746
12714TIP3   OH259632   3.792   2.612   0.772 -0.5196 -0.5007  0.7700
12714TIP3    H159633   3.748   2.652   0.697  0.0108 -1.5334 -0.1311
12714TIP3    H259634   3.862   2.559   0.733  0.8806  0.2874  2.1111
12715TIP3   OH259635   5.343   1.254   4.582  0.4607  0.4532  0.1915
12715TIP3    H159636   5.423   1.301   4.605  1.2454  0.2829 -1.9953
12715TIP3    H259637   5.333   1.267   4.488 -0.5495 -1.8524 -0.0845
12716TIP3   OH259638   3.627   2.664  12.340  0.0202 -0.3482  0.5664
12716TIP3    H159639   3.688   2.606  12.296 -0.6589 -1.1973  0.7272
12716TIP3    H259640   3.681   2.737  12.370  0.9904 -1.1689  0.8600
12717TIP3   OH259641   1.639   1.806  15.490  0.1583 -0.5115 -0.0251
12717TIP3    H159642   1.588   1.804  15.410  0.8655 -2.3257 -0.4674
12717TIP3    H259643   1.579   1.840  15.556 -2.2045 -3.9476 -0.1750
12718TIP3   OH259644   4.048   2.737  14.997  0.4358 -0.4228 -0.3212
12718TIP3    H159645   4.125   2.701  15.041  1.4394  2.8629  0.9202
12718TIP3    H259646   3.996   2.776  15.068 -0.4799  0.6439 -1.5202
12719TIP3   OH259647   1.212   1.191   2.858 -0.0228  0.1660  0.3224
12719TIP3    H159648   1.252   1.120   2.807  1.8107  2.0974 -1.0792
12719TIP3    H259649   1.126   1.157   2.881  0.5431 -2.2887 -0.7760
12720TIP3   OH259650   0.987   5.608  16.631 -0.1465  0.2048 -0.1469
12720TIP3    H159651   1.019   5.693  16.599  1.7954 -0.8092 -1.0543
12720TIP3    H259652   1.060   5.572  16.680 -0.2901 -1.7102 -1.2601
12721TIP3   OH259653   0.029   4.781   0.286  0.2390 -0.2786  0.0892
12721TIP3    H159654  -0.016   4.808   0.206  1.0736  0.4586 -0.1494
12721TIP3    H259655   0.111   4.743   0.257 -0.0666 -1.3052  0.5383
12722TIP3   OH259656   2.996   1.222  12.188  0.2464  0.1554  0.2427
12722TIP3    H159657   2.976   1.240  12.096  1.8887  0.8065 -0.0321
12722TIP3    H259658   3.014   1.308  12.226  0.8900 -0.2268  0.8268
12723TIP3   OH259659   3.793   5.394  15.099  0.2965  0.0925  0.2907
12723TIP3    H159660   3.706   5.415  15.132  1.3627  3.4024  1.4268
12723TIP3    H259661   3.790   5.417  15.006  0.6766  3.4302  0.9626
12724TIP3   OH259662   4.824   4.633   5.154  0.1781  0.4173  0.1536
12724TIP3    H159663   4.893   4.589   5.204 -1.0524 -1.3152  0.3806
12724TIP3    H259664   4.762   4.663   5.220  0.1109  0.9445 -0.1395
12725TIP3   OH259665   2.085   1.959  15.400 -0.0712  0.3230  0.1684
12725TIP3    H159666   2.037   1.877  15.400  0.5333 -0.0506 -1.2959
12725TIP3    H259667   2.123   1.965  15.488  1.2671 -1.8070 -0.1921
12726TIP3   OH259668   2.683   5.530  14.788  0.1704  0.1359 -0.0806
12726TIP3    H159669   2.624   5.604  14.778  0.7046  0.6364  0.4007
12726TIP3    H259670   2.716   5.538  14.877 -0.2750 -1.0685  0.2068
12727TIP3   OH259671   4.489   6.073  13.293 -0.2218  0.4526 -0.7186
12727TIP3    H159672   4.394   6.066  13.292 -0.3432  0.5621  2.1611
12727TIP3    H259673   4.519   5.991  13.332  1.0443 -0.1859 -2.8317
12728TIP3   OH259674   5.382   5.641   4.177 -0.0374 -0.4014  0.5043
12728TIP3    H159675   5.461   5.666   4.224 -0.7903 -0.4594  1.8728
12728TIP3    H259676   5.359   5.718   4.126  0.7912 -0.3232  0.2360
12729TIP3   OH259677   1.555   0.216  11.751 -0.1453  0.4408 -0.0332
12729TIP3    H159678   1.504   0.244  11.675  2.3488  1.1444 -1.5690
12729TIP3    H259679   1.509   0.138  11.783 -1.3848  0.2247 -2.1380
12730TIP3   OH259680   1.362   6.106   4.679 -0.3280 -0.1193  0.2220
12730TIP3    H159681   1.391   6.030   4.730 -0.6677 -0.5920 -0.2744
12730TIP3    H259682   1.267   6.100   4.680 -0.3430 -1.5985 -2.5687
12731TIP3   OH259683   3.635   1.389   3.729 -0.2760  0.0646 -0.2780
12731TIP3    H159684   3.596   1.460   3.780  1.8610 -0.2888  2.0636
12731TIP3    H259685   3.644   1.317   3.791 -0.0026 -1.3636 -1.9089
12732TIP3   OH259686   4.379   0.207   4.523  0.0770 -0.1671 -0.3982
12732TIP3    H159687   4.302   0.233   4.574  0.5441 -1.4918  1.0566
12732TIP3    H259688   4.411   0.289   4.485 -0.4153  0.8713  1.3133
12733TIP3   OH259689   0.291   1.687   0.528 -0.1079 -0.0116  0.4323
12733TIP3    H159690   0.235   1.747   0.576  0.1944  1.4451 -0.9310
12733TIP3    H259691   0.238   1.660   0.453  0.4757  0.1987 -0.0623
12734TIP3   OH259692   0.284   3.349  15.869  0.2713  0.1329 -0.5153
12734TIP3    H159693   0.277   3.443  15.855  2.1342  0.6245  1.3479
12734TIP3    H259694   0.246   3.334  15.956 -0.6370 -0.9511 -1.0754
12735TIP3   OH259695   6.128   1.222   3.925  0.3832  0.1526 -0.0799
12735TIP3    H159696   6.145   1.314   3.907 -0.2629  0.2572 -0.1728
12735TIP3    H259697   6.128   1.180   3.839 -3.2370  0.7401 -0.5400
12736TIP3   OH259698   5.244   0.368  15.414 -0.0987  0.2034  0.1447
12736TIP3    H159699   5.242   0.461  15.392 -0.3762 -0.3032 -2.2900
12736TIP3    H259700   5.237   0.365  15.509 -1.2817  2.6179  0.1991
12737TIP3   OH259701   2.627   1.004   4.380  0.4040  0.3084 -0.2691
12737TIP3    H159702   2.712   1.017   4.338  0.9713 -1.3388  0.2940
12737TIP3    H259703   2.637   0.924   4.431 -1.5157  0.0337 -0.2327
12738TIP3   OH259704   2.674   5.892  14.038 -0.4819  0.4621 -0.5975
12738TIP3    H159705   2.611   5.858  13.974  0.4182  1.0156 -1.8305
12738TIP3    H259706   2.747   5.924  13.984 -0.1898  1.9875  0.6474
12739TIP3   OH259707   3.104   2.306  16.886 -0.6489 -0.7045 -0.1129
12739TIP3    H159708   3.048   2.368  16.933  0.0288  0.8180 -1.2288
12739TIP3    H259709   3.151   2.259  16.954  0.3912  1.5078  0.7821
12740TIP3   OH259710   1.841   1.802  11.379 -0.0185 -0.8524  0.0111
12740TIP3    H159711   1.801   1.859  11.314  2.1161 -0.7064 -1.2789
12740TIP3    H259712   1.859   1.721  11.332  0.9446 -0.9960  0.5979
12741TIP3   OH259713   0.525   6.322   4.171 -0.4373 -0.6778  0.4703
12741TIP3    H159714   0.617   6.304   4.151 -0.5989 -1.2420  0.1979
12741TIP3    H259715   0.493   6.371   4.095 -0.0740  0.5424  1.0784
12742TIP3   OH259716   3.873   5.438   3.684  0.0100  0.7376  0.4050
12742TIP3    H159717   3.848   5.409   3.597  0.8550  0.6373  0.1947
12742TIP3    H259718   3.886   5.532   3.675  1.8839  0.4594 -0.0135
12743TIP3   OH259719   3.193   0.940  11.753 -0.7432 -1.3197 -0.1678
12743TIP3    H159720   3.244   1.015  11.724 -0.3067 -2.1187 -1.5334
12743TIP3    H259721   3.104   0.957  11.720 -0.7106 -1.2760 -0.2317
12744TIP3   OH259722   1.469   0.158  16.346  0.2132  0.3203  0.0331
12744TIP3    H159723   1.459   0.062  16.346 -0.0938  0.3402 -0.6595
12744TIP3    H259724   1.533   0.176  16.414 -0.9415 -0.2481  1.3328
12745TIP3   OH259725   5.199   4.994  15.610  0.2408 -0.2155 -0.0857
12745TIP3    H159726   5.197   5.056  15.536  0.0478 -1.8400 -1.5011
12745TIP3    H259727   5.280   4.945  15.598  1.1588  0.7295  1.8934
12746TIP3   OH259728   6.343   5.280  15.433  0.1283  0.0854  0.2925
12746TIP3    H159729   6.391   5.311  15.510 -0.5454 -0.6859  1.0424
12746TIP3    H259730   6.373   5.190  15.421  0.6632  0.3898 -0.7163
12747TIP3   OH259731   4.814   4.344  16.337 -0.4387  0.4083  0.0866
12747TIP3    H159732   4.794   4.266  16.389 -1.6243  1.1790  0.8267
12747TIP3    H259733   4.909   4.342  16.327 -0.5092 -1.7149 -0.8716
12748TIP3   OH259734   4.790   6.633  13.762  0.3665  0.0159 -0.1570
12748TIP3    H159735   4.856   6.702  13.770  0.9857 -0.5208 -0.5735
12748TIP3    H259736   4.835   6.562  13.717 -0.5400 -0.3055 -0.5810
12749TIP3   OH259737   2.764   1.763  11.440  0.4407 -0.2381 -0.6335
12749TIP3    H159738   2.848   1.762  11.395  0.7809  1.7736 -0.1196
12749TIP3    H259739   2.700   1.779  11.371  0.4154 -1.9326 -1.0507
12750TIP3   OH259740   6.061   6.128  17.290  0.5631  0.0311 -0.7005
12750TIP3    H159741   6.104   6.176  17.219 -0.2386  1.4324 -0.2886
12750TIP3    H259742   6.080   6.181  17.368  1.1890 -1.3204  0.1022
12751TIP3   OH259743   2.350   5.764  11.120  0.4130 -0.1275 -0.3218
12751TIP3    H159744   2.255   5.757  11.128  0.4820  0.4444  1.5214
12751TIP3    H259745   2.365   5.796  11.032 -1.1279  0.2761 -0.4618
12752TIP3   OH259746   2.166   3.107  11.577  0.4428  0.5245 -0.2687
12752TIP3    H159747   2.245   3.069  11.614 -0.6562 -2.8104 -1.0702
12752TIP3    H259748   2.095   3.053  11.609 -1.4416  2.6051 -0.6601
12753TIP3   OH259749   5.227   1.724   5.778  0.4498  0.3952  0.1474
12753TIP3    H159750   5.322   1.730   5.792  0.7013  0.9390 -1.6191
12753TIP3    H259751   5.213   1.631   5.757  0.3817  0.0504  1.5828
12754TIP3   OH259752   4.473   5.549   2.028 -0.0593  0.2059 -0.4155
12754TIP3    H159753   4.417   5.583   2.097 -1.5481 -0.7743 -1.0912
12754TIP3    H259754   4.486   5.456   2.050 -0.8732 -0.2140 -1.6217
12755TIP3   OH259755   2.150   1.351  15.453 -0.9651  0.0241  0.2110
12755TIP3    H159756   2.098   1.431  15.456 -1.0117 -0.0128  0.3854
12755TIP3    H259757   2.235   1.378  15.420 -1.0460  0.1111  0.0711
12756TIP3   OH259758   3.752   5.658   4.716 -0.3953  0.0756  0.2259
12756TIP3    H159759   3.716   5.571   4.733  0.4644 -0.7805 -1.9380
12756TIP3    H259760   3.845   5.649   4.739 -0.2278  0.2971 -0.3569
12757TIP3   OH259761   0.988   5.316  13.374 -0.3635  0.0923 -0.5096
12757TIP3    H159762   0.955   5.252  13.312  0.1394 -0.1582 -0.5263
12757TIP3    H259763   1.007   5.266  13.453 -0.9449  0.3980 -0.1623
12758TIP3   OH259764   1.609   1.747   0.133  0.0265 -0.2081  0.2658
12758TIP3    H159765   1.677   1.815   0.139  0.8937 -0.8607 -1.3720
12758TIP3    H259766   1.643   1.675   0.186  0.0387 -0.0749  0.4377
12759TIP3   OH259767   5.098   5.003   1.500  0.1292 -0.4409 -0.3490
12759TIP3    H159768   5.032   5.065   1.471  1.3119  1.2554  0.4041
12759TIP3    H259769   5.112   5.024   1.592  2.9456  0.5250 -0.8915
12760TIP3   OH259770   3.108   2.952  11.853  0.1843 -0.2409 -0.5585
12760TIP3    H159771   3.194   2.911  11.868  0.6509  0.8620 -0.1668
12760TIP3    H259772   3.102   3.020  11.920 -1.1341 -0.4971 -0.4019
12761TIP3   OH259773   3.922   2.254  11.258 -0.1889  0.0245 -0.0761
12761TIP3    H159774   3.838   2.300  11.261  0.4632  1.2967 -0.2083
12761TIP3    H259775   3.978   2.304  11.317  0.6141 -0.4977 -0.3755
12762TIP3   OH259776   5.422   5.055  12.770  0.0187 -0.3595  0.8980
12762TIP3    H159777   5.488   5.083  12.833  0.9054 -0.6820  0.1295
12762TIP3    H259778   5.360   5.004  12.822  2.7867 -4.0261  0.9569
12763TIP3   OH259779   1.627   6.063   2.922 -0.7305 -0.6011 -0.5295
12763TIP3    H159780   1.623   6.159   2.923 -0.4622 -0.5928 -0.0043
12763TIP3    H259781   1.590   6.037   3.006 -2.4808 -1.0331 -1.4009
12764TIP3   OH259782   0.547   6.067   5.944 -0.3711  0.3925  0.2004
12764TIP3    H159783   0.641   6.076   5.929 -0.2380  0.5545  1.0853
12764TIP3    H259784   0.513   6.034   5.861  0.6177 -0.7223  0.2143
12765TIP3   OH259785   1.397   2.342  12.741  0.2372  0.5018  0.2827
12765TIP3    H159786   1.443   2.421  12.769 -1.4904  1.1118  1.5300
12765TIP3    H259787   1.388   2.352  12.646  0.4306  1.5822  0.3716
12766TIP3   OH259788   4.503   5.808   5.621 -0.3795  0.2291  0.4794
12766TIP3    H159789   4.556   5.881   5.587 -2.2361  0.8555 -1.2491
12766TIP3    H259790   4.487   5.831   5.712  1.9024  0.2185  0.9554
12767TIP3   OH259791   2.513   2.509  11.141  0.3483  0.1417  0.5328
12767TIP3    H159792   2.485   2.461  11.063 -1.2487 -1.4615  1.9975
12767TIP3    H259793   2.581   2.569  11.109  0.2123 -0.8930 -1.9492
12768TIP3   OH259794   3.760   5.256   6.203 -0.0777 -0.2927 -0.5618
12768TIP3    H159795   3.798   5.310   6.272 -1.0093 -1.1554  0.6891
12768TIP3    H259796   3.809   5.174   6.207 -1.5546 -1.1806  0.6439
12769TIP3   OH259797   6.473   1.893   0.960 -0.2560 -0.4302 -0.3074
12769TIP3    H159798   6.442   1.813   1.002 -0.0995 -0.5106 -0.3456
12769TIP3    H259799   6.482   1.956   1.031 -2.1610  0.1286 -0.4971
12770TIP3   OH259800   6.490   3.325   1.875  0.7744 -0.0680  0.2287
12770TIP3    H159801   6.508   3.294   1.964  1.6081  1.4088  0.6085
12770TIP3    H259802   6.409   3.375   1.883  0.6293 -0.2792  0.0746
12771TIP3   OH259803   1.593   3.602   2.341 -0.4772  0.3618 -0.0270
12771TIP3    H159804   1.590   3.562   2.428 -2.0417 -1.3452 -0.7948
12771TIP3    H259805   1.564   3.533   2.282 -1.7893  2.1585 -1.6292
12772TIP3   OH259806   6.538   0.289  12.127  0.0913  0.6717 -0.4905
12772TIP3    H159807   6.550   0.359  12.063 -0.7557  0.8379 -0.4770
12772TIP3    H259808   6.531   0.209  12.074 -2.1870  0.9819 -0.7631
12773TIP3   OH259809   5.650   2.247   3.022  0.1242 -0.0171  0.4484
12773TIP3    H159810   5.585   2.203   3.077  0.1369 -0.5640  0.0285
12773TIP3    H259811   5.622   2.339   3.022 -1.3442 -0.4228 -0.6677
12774TIP3   OH259812   3.032   1.527  11.487  0.6377  0.3245 -0.0800
12774TIP3    H159813   3.086   1.586  11.434 -0.9260  0.0120 -2.1712
12774TIP3    H259814   3.011   1.454  11.428  0.8279 -1.3390  1.7868
12775TIP3   OH259815   0.626   0.249  13.988  0.4121 -0.0076 -0.1975
12775TIP3    H159816   0.714   0.278  14.010  0.2585 -0.9739  1.8447
12775TIP3    H259817   0.586   0.226  14.072 -2.0303  1.0338 -0.9796
12776TIP3   OH259818   1.457   5.248   0.581  0.0790  0.0974 -0.9467
12776TIP3    H159819   1.527   5.309   0.555 -0.8742  1.0696 -1.3292
12776TIP3    H259820   1.423   5.214   0.498 -0.2253  0.0110 -0.7883
12777TIP3   OH259821   2.437   2.098   3.663  0.0551  0.0719 -0.1769
12777TIP3    H159822   2.357   2.063   3.703  1.8300 -0.5331  3.1165
12777TIP3    H259823   2.418   2.191   3.650 -0.9906  0.0796  1.1620
12778TIP3   OH259824   1.796   2.740  13.564  0.3804  0.4606 -0.1856
12778TIP3    H159825   1.702   2.737  13.544 -0.1165 -1.9343  2.0324
12778TIP3    H259826   1.800   2.770  13.655  1.7120 -0.0633 -0.0585
12779TIP3   OH259827   3.182   4.187  14.002 -0.1803 -0.1125  0.2292
12779TIP3    H159828   3.165   4.281  13.997  3.6409  0.7116 -0.1551
12779TIP3    H259829   3.202   4.161  13.912  0.0909 -0.9953  0.5302
12780TIP3   OH259830   3.179   5.925   4.707  0.0888 -0.4294 -0.2083
12780TIP3    H159831   3.131   5.903   4.627  2.5048  0.9342 -2.1892
12780TIP3    H259832   3.268   5.895   4.690  1.0687  1.4693  1.2335
12781TIP3   OH259833   2.924   0.703   2.962 -0.1136 -0.4956 -0.4215
12781TIP3    H159834   2.870   0.624   2.959 -1.5601  0.4922 -1.5456
12781TIP3    H259835   2.903   0.750   2.882  2.1226  0.1662 -0.6912
12782TIP3   OH259836   3.537   2.279  12.981 -0.5429  0.3437 -0.0835
12782TIP3    H159837   3.582   2.228  12.913 -0.5567 -1.6454  1.3268
12782TIP3    H259838   3.464   2.224  13.007 -0.2525  0.8302  1.9013
12783TIP3   OH259839   4.839   5.670  13.483 -0.2791  0.0098  0.1588
12783TIP3    H159840   4.749   5.638  13.479 -0.1163 -0.5892  1.0459
12783TIP3    H259841   4.852   5.715  13.400 -1.2383 -0.3128 -0.1790
12784TIP3   OH259842   1.920   1.213  16.427  0.3790  0.5084  0.0199
12784TIP3    H159843   1.835   1.246  16.400  0.9790  1.9028 -0.2630
12784TIP3    H259844   1.973   1.213  16.347  0.8070  0.1966  0.2937
12785TIP3   OH259845   4.519   0.354  12.916 -0.1061  0.4636  0.4489
12785TIP3    H159846   4.438   0.304  12.926 -0.3645  0.8721  0.4280
12785TIP3    H259847   4.493   0.445  12.929  0.3355  0.6067  0.3588
12786TIP3   OH259848   0.396   0.464  14.520 -0.2714  0.3574  0.0527
12786TIP3    H159849   0.413   0.489  14.611 -0.2476  0.6908 -0.0391
12786TIP3    H259850   0.476   0.421  14.491 -0.2986  0.2040  0.2049
12787TIP3   OH259851   3.218   5.601   5.061 -0.2355  0.1344  0.3825
12787TIP3    H159852   3.174   5.685   5.046 -2.8214 -1.3271 -0.8251
12787TIP3    H259853   3.279   5.592   4.988 -0.4539  0.6308  0.1338
12788TIP3   OH259854   5.478   4.018   4.913  0.3856  0.1455 -0.2380
12788TIP3    H159855   5.500   3.926   4.901  0.6658  0.2605 -0.5980
12788TIP3    H259856   5.487   4.057   4.827 -2.3558 -0.0234 -0.7166
12789TIP3   OH259857   2.253   6.008  14.998 -0.9560  0.7687 -0.0103
12789TIP3    H159858   2.181   6.045  14.947  0.0148  1.4754 -0.9019
12789TIP3    H259859   2.286   5.936  14.944 -1.5455 -0.1530  0.8113
12790TIP3   OH259860   5.978   3.043  15.999 -0.0521  0.1998 -0.4417
12790TIP3    H159861   5.984   3.059  15.905 -0.3477 -0.9748 -0.6732
12790TIP3    H259862   5.899   2.991  16.010 -1.0668  1.8608  0.6865
12791TIP3   OH259863   6.253   0.455  14.866  0.4613  0.5443  0.3294
12791TIP3    H159864   6.299   0.388  14.817 -0.6246 -1.6144  2.0970
12791TIP3    H259865   6.318   0.526  14.875  1.9726 -0.6268 -0.7888
12792TIP3   OH259866   3.654   5.735  11.151  0.3402 -0.0448 -0.1348
12792TIP3    H159867   3.671   5.750  11.244  1.7191 -0.6820 -0.2700
12792TIP3    H259868   3.672   5.642  11.137  1.0675  0.2340 -1.2210
12793TIP3   OH259869   5.919   6.646   2.383 -0.9587  0.3773 -0.7484
12793TIP3    H159870   5.933   6.625   2.290 -0.8457 -1.4942 -0.3382
12793TIP3    H259871   5.841   6.596   2.407 -0.4042  0.0505  0.4138
12794TIP3   OH259872   1.349   0.329   1.320 -0.4355  0.0980 -0.7183
12794TIP3    H159873   1.264   0.289   1.336 -0.4241  0.4630  0.3443
12794TIP3    H259874   1.411   0.271   1.365 -0.3516  0.8964  0.2394
12795TIP3   OH259875   0.658   3.578   5.286 -0.1446  0.5413 -0.3375
12795TIP3    H159876   0.742   3.600   5.326 -0.0248 -0.6873  0.1410
12795TIP3    H259877   0.627   3.660   5.248  0.5908  1.3413  0.7231
12796TIP3   OH259878   6.026   2.401   2.705  0.5064 -0.3934  0.0870
12796TIP3    H159879   5.997   2.321   2.750 -1.8471  0.6948  0.6777
12796TIP3    H259880   6.111   2.421   2.744  0.8988 -2.3108  0.2939
12797TIP3   OH259881   2.532   1.914  17.053  0.4407  0.7667  0.0355
12797TIP3    H159882   2.576   1.882  17.132 -0.8720 -0.3528  0.3548
12797TIP3    H259883   2.582   1.877  16.980  2.6325  3.0963  0.2328
12798TIP3   OH259884   3.941   3.334   5.437  0.4320  0.4967 -0.8567
12798TIP3    H159885   3.887   3.272   5.487  2.3545 -0.3551  0.2905
12798TIP3    H259886   4.016   3.282   5.407  0.2922  1.4600 -3.0283
12799TIP3   OH259887   1.344   0.455   4.493 -0.4916 -0.0802 -0.2314
12799TIP3    H159888   1.390   0.536   4.515  1.0646 -1.1799  0.8573
12799TIP3    H259889   1.323   0.464   4.400  0.7926  1.0592 -0.4557
12800TIP3   OH259890   3.126   4.160   5.488 -0.0655 -0.6996  0.1778
12800TIP3    H159891   3.050   4.217   5.483 -0.5203 -1.3047  0.1609
12800TIP3    H259892   3.097   4.084   5.538  0.2989 -1.2901 -0.4797
12801TIP3   OH259893   6.424   3.213   2.782 -0.1667 -0.2446  0.1218
12801TIP3    H159894   6.456   3.232   2.870  2.1324 -1.1790 -0.4437
12801TIP3    H259895   6.471   3.274   2.725  0.1757 -1.2385 -0.6922
12802TIP3   OH259896   3.218   2.051  12.661  0.6185  0.0858  0.7780
12802TIP3    H159897   3.299   2.096  12.639  1.5415 -1.1529  1.5144
12802TIP3    H259898   3.214   1.976  12.601 -0.2726  0.4394  0.3741
12803TIP3   OH259899   3.657   3.108   1.781  0.3440  0.2657 -0.2300
12803TIP3    H159900   3.633   3.133   1.870 -1.0177  0.3613 -0.6110
12803TIP3    H259901   3.678   3.015   1.787 -0.9891 -0.0389 -0.0324
12804TIP3   OH259902   2.300   6.012  15.740  0.0651 -0.6582 -0.5003
12804TIP3    H159903   2.395   6.019  15.750  0.2066 -0.8982 -1.5453
12804TIP3    H259904   2.288   5.982  15.650 -1.0000 -0.7624 -0.3313
12805TIP3   OH259905   2.300   4.417   2.143  0.8053  0.0055  0.5979
12805TIP3    H159906   2.205   4.421   2.158  0.4677 -1.9172 -0.6843
12805TIP3    H259907   2.332   4.359   2.211  0.6256 -1.4411 -0.5012
12806TIP3   OH259908   2.806   0.814   4.512  0.3149  0.0020 -0.2566
12806TIP3    H159909   2.878   0.773   4.464 -0.1820 -1.1647 -0.0493
12806TIP3    H259910   2.844   0.894   4.548  1.7809 -0.9891  0.5619
12807TIP3   OH259911   3.516   4.433  14.899  0.5166 -0.0902 -0.0458
12807TIP3    H159912   3.552   4.517  14.930  0.3918 -0.0098 -0.1175
12807TIP3    H259913   3.543   4.429  14.807 -0.9847  0.7181 -0.5664
12808TIP3   OH259914   3.126   5.174  13.357  0.0905 -0.4202  0.3107
12808TIP3    H159915   3.158   5.095  13.314 -0.5775 -0.5789  0.1035
12808TIP3    H259916   3.206   5.223  13.378  0.6033 -1.7259  1.6033
12809TIP3   OH259917   6.285   5.074   2.687 -0.1902 -0.1852 -0.2010
12809TIP3    H159918   6.335   5.103   2.610 -1.8114  0.2195 -1.1451
12809TIP3    H259919   6.194   5.090   2.663 -0.7984 -1.1394  1.3770
12810TIP3   OH259920   1.118   2.490   5.656  0.6163 -0.0344  0.4799
12810TIP3    H159921   1.117   2.537   5.739 -0.7902 -0.7971  0.9316
12810TIP3    H259922   1.204   2.450   5.652  0.7096  0.0315  1.5720
12811TIP3   OH259923   6.651   5.117   2.926  0.5043  0.8782 -0.3028
12811TIP3    H159924   6.629   5.198   2.972  0.1893  0.5741  0.0875
12811TIP3    H259925   6.744   5.105   2.944  0.1603  0.1792  1.2166
12812TIP3   OH259926   0.273   6.431  11.712 -0.4081 -0.3481  0.3778
12812TIP3    H159927   0.191   6.384  11.695  0.4015 -1.5981 -0.2472
12812TIP3    H259928   0.270   6.451  11.806 -0.4245 -2.4545  0.8830
12813TIP3   OH259929   3.399   0.305  13.746  0.5337 -0.3493  0.2085
12813TIP3    H159930   3.416   0.221  13.788 -0.1107  0.1945  1.6417
12813TIP3    H259931   3.376   0.283  13.656  0.6480 -1.6814  0.4855
12814TIP3   OH259932   2.912   3.701   0.450 -0.1273  0.1689 -0.5543
12814TIP3    H159933   2.973   3.659   0.390 -0.9200 -0.0161 -1.2450
12814TIP3    H259934   2.930   3.660   0.535  1.6594  1.1037 -0.4258
12815TIP3   OH259935   4.017   2.499   0.660 -0.1373 -0.3534 -0.3689
12815TIP3    H159936   4.092   2.439   0.653 -0.0592 -0.4767  1.2338
12815TIP3    H259937   3.946   2.453   0.615  0.9170  0.1466 -2.7090
12816TIP3   OH259938   5.290   1.660  14.117 -0.1306 -0.4550 -0.2110
12816TIP3    H159939   5.243   1.590  14.071 -0.5521 -1.2886  1.3939
12816TIP3    H259940   5.381   1.632  14.118 -0.1393 -0.4914 -0.4369
12817TIP3   OH259941   1.538   4.089  11.301  0.3136 -0.1184 -0.5274
12817TIP3    H159942   1.445   4.083  11.281  0.6854 -0.6382 -2.2301
12817TIP3    H259943   1.562   4.002  11.331 -0.2428  0.6502  2.5513
12818TIP3   OH259944   5.198   5.726   2.293 -0.0248  0.3574  0.5646
12818TIP3    H159945   5.282   5.718   2.248 -0.4686  0.7242 -0.3579
12818TIP3    H259946   5.207   5.672   2.372  0.8366 -0.1444  0.1306
12819TIP3   OH259947   6.274   4.376  15.430  0.3216  0.3289  0.0322
12819TIP3    H159948   6.186   4.342  15.412  0.4693 -0.8916  1.4981
12819TIP3    H259949   6.290   4.438  15.359 -1.5250  0.2104 -0.5383
12820TIP3   OH259950   5.954   2.486  11.675 -0.0908 -0.0354 -0.1270
12820TIP3    H159951   5.972   2.512  11.766 -1.1331 -0.9040  0.3502
12820TIP3    H259952   6.021   2.421  11.655 -0.8107 -1.0454  0.6076
12821TIP3   OH259953   2.753   0.343  16.554 -0.2148 -0.0747 -0.4066
12821TIP3    H159954   2.825   0.296  16.510 -0.1327 -1.4368  1.0998
12821TIP3    H259955   2.703   0.274  16.598 -1.1818  1.0883  0.3720
12822TIP3   OH259956   4.126   6.640  13.178  0.1874 -0.0283  0.3324
12822TIP3    H159957   4.185   6.634  13.253  0.3505 -0.0969  0.2004
12822TIP3    H259958   4.042   6.608  13.211  0.0916  0.5475  0.6611
12823TIP3   OH259959   4.998   1.193   1.515 -0.2074 -0.1248 -0.4704
12823TIP3    H159960   4.918   1.184   1.566 -0.1011  1.0465 -0.0824
12823TIP3    H259961   5.069   1.186   1.579 -0.0437  0.2815 -0.6043
12824TIP3   OH259962   5.575   4.211  13.527  0.4474  0.7047  0.0165
12824TIP3    H159963   5.668   4.222  13.508  0.8726 -0.4391  1.2370
12824TIP3    H259964   5.571   4.132  13.581 -1.0888  1.4737  1.0999
12825TIP3   OH259965   6.522   4.504  12.862 -0.0625 -0.4099 -0.3283
12825TIP3    H159966   6.466   4.577  12.886  0.7526  0.3843 -0.8031
12825TIP3    H259967   6.466   4.427  12.872 -0.6892  0.1785  0.9950
12826TIP3   OH259968   0.462   6.396  17.033  0.7431  0.0755  0.0371
12826TIP3    H159969   0.415   6.443  17.102 -0.8093 -1.1550 -0.1330
12826TIP3    H259970   0.554   6.409  17.053  0.3263  0.0494  2.1325
12827TIP3   OH259971   3.752   4.599  11.293 -0.1712  0.1279 -0.0771
12827TIP3    H159972   3.715   4.514  11.316  1.2106 -0.7315 -0.8884
12827TIP3    H259973   3.730   4.655  11.368 -1.9526 -0.6456  0.0382
12828TIP3   OH259974   5.324   0.781   6.376 -0.3491  0.2955  0.5385
12828TIP3    H159975   5.267   0.735   6.439 -1.0044  0.8458  0.3565
12828TIP3    H259976   5.265   0.837   6.327  0.5538  2.1483  1.4600
12829TIP3   OH259977   6.095   1.023  14.362 -0.2343 -0.3253  0.2414
12829TIP3    H159978   6.151   0.947  14.348  1.8012  1.2366 -0.7403
12829TIP3    H259979   6.056   1.009  14.449  0.4529 -2.2357  0.2722
12830TIP3   OH259980   1.907   5.454   2.465  0.1962  0.3947  0.1673
12830TIP3    H159981   2.002   5.460   2.456  0.6832 -0.3221  3.5881
12830TIP3    H259982   1.887   5.362   2.447  0.0610  0.6026 -0.8230
12831TIP3   OH259983   4.450   3.008  14.254 -0.2716 -0.4789  0.1983
12831TIP3    H159984   4.398   2.995  14.175  0.6959 -0.2573 -0.4960
12831TIP3    H259985   4.534   3.041  14.222  0.6840 -1.8261  1.2021
12832TIP3   OH259986   4.803   3.218   2.813 -0.7218  0.0570 -0.1456
12832TIP3    H159987   4.782   3.125   2.798 -2.1720  0.6817 -2.5040
12832TIP3    H259988   4.828   3.251   2.726 -1.4650  2.1664  0.3982
12833TIP3   OH259989   3.114   5.822   5.438 -0.2047 -0.1927 -0.0739
12833TIP3    H159990   3.057   5.898   5.448  1.5724  0.9762  1.9289
12833TIP3    H259991   3.175   5.846   5.368 -1.8575 -1.3464 -2.0421
12834TIP3   OH259992   1.915   3.557  14.490 -0.0523 -0.3025 -0.1389
12834TIP3    H159993   1.995   3.562  14.542 -1.8018 -1.4049  2.8984
12834TIP3    H259994   1.880   3.646  14.492  0.7166  0.0336 -0.9133
12835TIP3   OH259995   1.100   6.231  16.807 -0.1956 -0.0513  0.3118
12835TIP3    H159996   1.051   6.290  16.865  0.1724  2.4050 -1.7142
12835TIP3    H259997   1.033   6.178  16.764 -0.5060 -1.5327  2.4314
12836TIP3   OH259998   0.001   0.866   0.844 -0.4602 -0.1798  0.3647
12836TIP3    H159999   0.065   0.920   0.798 -1.1563  2.1132  1.9033
12836TIP3    H260000   0.052   0.795   0.882  0.5969 -0.2989 -1.1883
12837TIP3   OH260001   5.268   0.632   2.939  0.0360  0.1233 -0.4093
12837TIP3    H160002   5.182   0.596   2.962  0.8611 -1.1687  0.8635
12837TIP3    H260003   5.257   0.667   2.851 -1.5429 -0.9514 -0.6809
12838TIP3   OH260004   0.205   0.762   3.668  0.2528  0.0559  0.0332
12838TIP3    H160005   0.122   0.771   3.715 -0.0318  0.8208 -0.6025
12838TIP3    H260006   0.182   0.719   3.586  0.4068  0.6871 -0.3469
12839TIP3   OH260007   4.390   3.382   1.418  0.5322  0.1649  0.0979
12839TIP3    H160008   4.438   3.303   1.441  0.2333 -0.0388  0.0264
12839TIP3    H260009   4.407   3.393   1.324  1.2858  0.6778  0.2800
12840TIP3   OH260010   2.533   4.809  15.849 -0.4763 -0.3091 -0.0564
12840TIP3    H160011   2.466   4.752  15.885 -0.4108 -1.8865 -2.2613
12840TIP3    H260012   2.580   4.755  15.786  0.8230  1.6553 -0.8831
12841TIP3   OH260013   6.378   1.908   1.345  0.1633 -0.4103 -0.0904
12841TIP3    H160014   6.308   1.844   1.360 -0.9430  0.5434 -0.9901
12841TIP3    H260015   6.453   1.873   1.393 -0.2184 -2.6758 -1.0280
12842TIP3   OH260016   4.428   4.150   4.734  0.2382 -0.1830 -0.0213
12842TIP3    H160017   4.452   4.135   4.642  0.9279 -1.8271  0.3936
12842TIP3    H260018   4.333   4.141   4.735  0.2218 -0.1215 -0.5799
12843TIP3   OH260019   6.541   2.109  11.501  0.5254  0.4378 -0.5850
12843TIP3    H160020   6.449   2.133  11.513  0.4060  1.1426 -2.5064
12843TIP3    H260021   6.569   2.160  11.424  1.9128 -1.3620 -1.3396
12844TIP3   OH260022   2.413   0.751   5.246  0.7649  0.3712 -0.1052
12844TIP3    H160023   2.343   0.727   5.308  1.2735  0.3423  0.4739
12844TIP3    H260024   2.456   0.668   5.225 -0.6650  0.0666 -2.1144
12845TIP3   OH260025   3.031   6.634   5.135  0.3040  0.0050  0.6068
12845TIP3    H160026   2.987   6.695   5.076 -0.8486 -1.7618 -0.4598
12845TIP3    H260027   3.103   6.598   5.084  1.0545  0.5529  1.2681
12846TIP3   OH260028   3.366   6.246  16.840 -0.1731  0.4234  0.3307
12846TIP3    H160029   3.455   6.278  16.849  0.0841 -0.2425  0.2183
12846TIP3    H260030   3.364   6.205  16.753 -0.4595  0.0356  0.5159
12847TIP3   OH260031   4.636   4.438   0.152  0.0059  0.0956  0.1908
12847TIP3    H160032   4.697   4.364   0.148  0.9011  0.7737  0.8126
12847TIP3    H260033   4.549   4.399   0.151  0.4537 -0.9072 -0.5633
12848TIP3   OH260034   2.876   2.620  15.266 -0.1133  0.0983  0.1272
12848TIP3    H160035   2.902   2.536  15.227  0.8393  1.4552 -2.3699
12848TIP3    H260036   2.923   2.622  15.350  0.2723 -1.6129  0.0011
12849TIP3   OH260037   2.699   0.390  10.594 -0.0875 -0.1543  0.0738
12849TIP3    H160038   2.619   0.442  10.590  0.1864  0.2622  0.0398
12849TIP3    H260039   2.761   0.437  10.539  0.3507 -0.1861  0.5313
12850TIP3   OH260040   4.332   0.139   2.005  0.1196  0.5872 -0.7708
12850TIP3    H160041   4.311   0.077   1.935  0.4845  2.1965 -2.3620
12850TIP3    H260042   4.370   0.214   1.960  3.6393  0.3388  1.4207
12851TIP3   OH260043   5.482   2.441  16.787  0.2304 -0.1066  0.0977
12851TIP3    H160044   5.462   2.350  16.765  0.1588 -0.4180  1.3951
12851TIP3    H260045   5.576   2.450  16.767  0.0895 -0.2505 -0.6748
12852TIP3   OH260046   0.574   3.843   2.189 -0.4799 -0.7346 -0.3220
12852TIP3    H160047   0.534   3.916   2.142 -1.7492 -0.3937  1.1833
12852TIP3    H260048   0.500   3.799   2.232  0.6702 -0.0364  2.6606
12853TIP3   OH260049   1.352   3.521   5.659  0.5660 -0.4997 -0.0883
12853TIP3    H160050   1.321   3.430   5.659  0.2512 -0.4073 -1.3099
12853TIP3    H260051   1.441   3.517   5.694  0.4087 -1.2247  0.2354
12854TIP3   OH260052   4.670   4.814   3.566 -0.0568 -0.5232  0.2526
12854TIP3    H160053   4.746   4.769   3.602  0.0620  0.0506  0.7369
12854TIP3    H260054   4.597   4.785   3.621  0.3440  1.4472  1.9483
12855TIP3   OH260055   5.320   1.050  15.365 -0.0953 -0.4838 -0.2603
12855TIP3    H160056   5.278   1.008  15.440  0.7290 -0.7054  0.0872
12855TIP3    H260057   5.254   1.110  15.330 -0.9700 -1.4217 -0.2234
12856TIP3   OH260058   5.091   6.017  17.401 -0.1405  0.2296 -0.6437
12856TIP3    H160059   5.034   6.004  17.325 -0.7512  1.0408 -0.3367
12856TIP3    H260060   5.031   6.031  17.474  0.4501  0.2537 -0.1605
12857TIP3   OH260061   1.556   1.923   2.446 -0.6951 -0.3584  0.3420
12857TIP3    H160062   1.567   1.885   2.533 -2.0491 -0.0261  0.6778
12857TIP3    H260063   1.462   1.927   2.433 -0.5398 -1.8183 -1.7812
12858TIP3   OH260064   1.780   5.778  11.108 -0.7166 -0.3262 -0.3131
12858TIP3    H160065   1.868   5.742  11.119 -0.5182  0.3134  0.2469
12858TIP3    H260066   1.725   5.726  11.167  0.0988  2.1831  2.9436
12859TIP3   OH260067   3.580   6.315   2.015  0.3962 -0.1754  0.6581
12859TIP3    H160068   3.611   6.313   1.924 -0.7109 -1.4844  0.2673
12859TIP3    H260069   3.633   6.249   2.060 -1.1474 -1.8250  0.1783
12860TIP3   OH260070   3.097   3.514  17.425 -0.4233  0.5190 -0.1982
12860TIP3    H160071   3.190   3.512  17.447 -0.7652  0.5489  1.4098
12860TIP3    H260072   3.094   3.513  17.329  1.2010 -0.5247 -0.2748
12861TIP3   OH260073   0.253   3.952  16.998  0.5808  0.3631  0.1160
12861TIP3    H160074   0.233   3.860  17.016  2.0259 -0.3900 -1.8151
12861TIP3    H260075   0.282   3.987  17.082 -1.6492 -0.4168  1.2939
12862TIP3   OH260076   6.388   3.031  12.492 -0.3819 -0.3383  0.5767
12862TIP3    H160077   6.310   3.086  12.506  1.1490  1.5477  2.2588
12862TIP3    H260078   6.404   2.991  12.577  0.2271 -1.0893  0.1114
12863TIP3   OH260079   4.379   4.571  13.017  0.0385  0.1000  0.3317
12863TIP3    H160080   4.357   4.521  12.939  1.0132  0.4119 -0.1677
12863TIP3    H260081   4.404   4.657  12.984 -2.4543  1.2488  1.2348
12864TIP3   OH260082   3.449   5.132   0.730 -0.2248 -0.0862  0.1284
12864TIP3    H160083   3.453   5.171   0.643 -0.8381 -2.0273 -0.8228
12864TIP3    H260084   3.496   5.049   0.721  0.5518  0.1195  1.9220
12865TIP3   OH260085   4.333   3.755  15.019 -0.2012  0.5064  0.4908
12865TIP3    H160086   4.250   3.772  15.064 -0.4992 -0.2723  0.2617
12865TIP3    H260087   4.385   3.706  15.082 -0.5340 -0.3889  0.0961
12866TIP3   OH260088   2.202   2.315   0.688  0.6951 -0.1411 -0.0284
12866TIP3    H160089   2.153   2.338   0.767  1.8717 -0.3377  0.7746
12866TIP3    H260090   2.196   2.219   0.683 -1.4502  0.0009 -1.5746
12867TIP3   OH260091   5.538   4.192  16.767  0.0878 -0.1031  0.7767
12867TIP3    H160092   5.484   4.242  16.827  0.8374  2.0869 -0.2845
12867TIP3    H260093   5.585   4.257  16.715  0.4561 -1.8863 -1.3161
12868TIP3   OH260094   3.356   2.830   0.256  0.0367  0.1148  0.2322
12868TIP3    H160095   3.383   2.861   0.343  2.2771  1.6055 -0.8979
12868TIP3    H260096   3.407   2.750   0.242 -0.6164 -0.3422  0.4156
12869TIP3   OH260097   5.296   2.434  15.673 -0.3596 -0.8703  0.1669
12869TIP3    H160098   5.283   2.362  15.735  1.9674 -1.4459  0.0891
12869TIP3    H260099   5.344   2.394  15.600 -0.2970  0.4594 -0.5561
12870TIP3   OH260100   0.599   0.222   0.962  0.5391 -0.0005  0.1624
12870TIP3    H160101   0.520   0.168   0.969  1.4918 -1.3843  0.6958
12870TIP3    H260102   0.585   0.275   0.884 -1.5640  0.9182  1.0557
12871TIP3   OH260103   5.889   2.538   5.893  0.2463  0.0352 -0.3614
12871TIP3    H160104   5.837   2.584   5.827  1.5591  0.9159 -0.8256
12871TIP3    H260105   5.898   2.600   5.965  0.8228 -0.0350 -0.3713
12872TIP3   OH260106   1.134   6.338   2.623  0.3564 -0.4366  0.5934
12872TIP3    H160107   1.216   6.311   2.664  0.5655 -0.7042  0.0113
12872TIP3    H260108   1.100   6.408   2.679  1.4822  0.3754  0.2960
12873TIP3   OH260109   2.134   4.658   2.563 -0.1895 -0.7872  0.0489
12873TIP3    H160110   2.111   4.745   2.595 -0.7795 -0.6648 -0.6780
12873TIP3    H260111   2.226   4.667   2.536 -1.0941  0.5719 -3.0131
12874TIP3   OH260112   4.015   5.567   0.366  0.5729 -0.1938 -0.1068
12874TIP3    H160113   4.017   5.478   0.402  0.8167 -1.0295 -2.0718
12874TIP3    H260114   4.047   5.558   0.276  1.2860  2.0056 -0.1433
12875TIP3   OH260115   4.456   4.641  11.205  0.3490  0.2410 -0.2214
12875TIP3    H160116   4.401   4.570  11.237  0.0937 -0.2104 -1.5996
12875TIP3    H260117   4.416   4.667  11.123  0.3187  2.1336  0.3438
12876TIP3   OH260118   3.197   4.585  12.635 -0.1711 -0.0393  0.6587
12876TIP3    H160119   3.276   4.559  12.588 -0.5846 -0.0738 -0.0354
12876TIP3    H260120   3.146   4.634  12.570 -1.4193 -1.3156  0.6328
12877TIP3   OH260121   6.250   3.901  16.061  0.0158 -0.3134  0.1236
12877TIP3    H160122   6.166   3.925  16.023  0.8182  1.1683 -0.8256
12877TIP3    H260123   6.229   3.833  16.125 -1.9058  0.1300  0.0294
12878TIP3   OH260124   0.947   0.212   2.982 -0.3575 -0.4524 -0.2290
12878TIP3    H160125   0.974   0.243   3.068  2.3018 -0.8165 -0.8499
12878TIP3    H260126   0.934   0.118   2.994 -1.6009 -0.2580  0.0982
12879TIP3   OH260127   1.907   4.493  13.676 -0.6261  0.0329  0.2318
12879TIP3    H160128   1.957   4.537  13.608 -0.3059 -2.3835 -1.2230
12879TIP3    H260129   1.829   4.460  13.631 -0.9948 -0.5929  1.2999
12880TIP3   OH260130   6.353   4.043  11.254 -0.1253 -0.3130  0.4056
12880TIP3    H160131   6.342   3.989  11.176 -1.1789 -2.3512  1.8631
12880TIP3    H260132   6.275   4.098  11.256 -0.7656 -1.2115  0.7033
12881TIP3   OH260133   4.203   4.334  12.397 -0.4584 -0.2824  0.1899
12881TIP3    H160134   4.229   4.273  12.466  0.0749  0.4278  0.6360
12881TIP3    H260135   4.250   4.303  12.320 -0.6414 -0.7724  0.2680
12882TIP3   OH260136   6.176   4.383   1.467 -0.4583 -0.5415  0.4449
12882TIP3    H160137   6.248   4.421   1.418  0.8005 -0.4657  2.2454
12882TIP3    H260138   6.098   4.401   1.414  0.6112  0.9157 -0.7100
12883TIP3   OH260139   5.177   5.424  17.279 -0.0928  0.4621  0.3237
12883TIP3    H160140   5.097   5.476  17.276 -0.5687 -0.1879  1.2299
12883TIP3    H260141   5.148   5.337  17.306  0.8382  0.0386 -0.0025
12884TIP3   OH260142   5.401   3.608   1.983  0.3857  0.5428 -0.3120
12884TIP3    H160143   5.407   3.608   2.078  0.0207  2.8255 -0.2433
12884TIP3    H260144   5.405   3.515   1.959  3.4061  0.0178  1.6950
12885TIP3   OH260145   4.386   4.612   6.318  0.5619 -0.4712 -0.2176
12885TIP3    H160146   4.367   4.661   6.398  0.0124 -0.9771 -0.0311
12885TIP3    H260147   4.310   4.627   6.262  0.8894 -0.2215 -0.5951
12886TIP3   OH260148   5.232   0.779   4.893 -0.0671  0.1593  0.3940
12886TIP3    H160149   5.248   0.809   4.804  0.7878 -0.6315  0.2623
12886TIP3    H260150   5.146   0.738   4.891 -0.6187  1.2892  0.2487
12887TIP3   OH260151   0.970   4.195   5.417 -0.2177  0.3136  0.1772
12887TIP3    H160152   1.019   4.113   5.426  0.5757  0.8692  1.1847
12887TIP3    H260153   1.031   4.263   5.448 -0.7794  1.3156 -0.8476
12888TIP3   OH260154   3.390   4.296  16.202  0.0802  0.2150 -0.0346
12888TIP3    H160155   3.308   4.345  16.193  0.1125  0.5943  1.5037
12888TIP3    H260156   3.436   4.339  16.273  0.1777 -1.9169  1.2904
12889TIP3   OH260157   1.199   2.815   3.007 -0.3126 -0.3477  0.2553
12889TIP3    H160158   1.205   2.755   2.933  3.3412 -0.8725  0.7861
12889TIP3    H260159   1.170   2.761   3.080  1.3696 -1.1829  0.3551
12890TIP3   OH260160   2.023   3.409  15.822 -0.3263  0.1660  0.0622
12890TIP3    H160161   2.007   3.433  15.730 -2.0741 -2.0215 -0.2867
12890TIP3    H260162   1.970   3.331  15.836 -1.2763  1.2678  3.4039
12891TIP3   OH260163   6.105   2.782   4.668  0.1884  0.2299  0.1582
12891TIP3    H160164   6.092   2.877   4.668 -1.5636  0.0143  0.4829
12891TIP3    H260165   6.194   2.770   4.636 -0.4994  1.8559 -2.6644
12892TIP3   OH260166   3.299   2.118   2.664 -0.1522  0.4319 -0.3930
12892TIP3    H160167   3.314   2.026   2.644  0.5613  0.6178 -0.7496
12892TIP3    H260168   3.338   2.131   2.750  0.3344  0.5476 -0.6278
12893TIP3   OH260169   4.654   3.120   0.472 -0.0444  0.2428  0.6129
12893TIP3    H160170   4.737   3.080   0.501  0.3211  1.5536  1.4471
12893TIP3    H260171   4.667   3.137   0.379  0.1693 -0.6331  0.4714
12894TIP3   OH260172   3.491   2.044  14.285  0.0485 -0.2674 -0.1915
12894TIP3    H160173   3.519   1.955  14.310  1.8710  0.5594  0.9336
12894TIP3    H260174   3.439   2.074  14.359  1.2313  0.3405  0.4322
12895TIP3   OH260175   3.014   6.637  12.860 -0.0979  0.3644 -0.1777
12895TIP3    H160176   2.978   6.694  12.792 -0.0512 -2.0020 -2.3325
12895TIP3    H260177   3.106   6.627  12.837 -0.2251 -0.9687 -0.1658
12896TIP3   OH260178   6.396   4.097   0.647  0.0257 -0.4205  0.1894
12896TIP3    H160179   6.369   4.034   0.580  2.2332 -0.6323 -0.6099
12896TIP3    H260180   6.332   4.167   0.642 -1.2760 -1.6068 -0.3947
12897TIP3   OH260181   3.153   4.256  16.541 -0.2191  0.3197 -0.2353
12897TIP3    H160182   3.220   4.318  16.569  0.2006 -0.1053 -0.2838
12897TIP3    H260183   3.084   4.311  16.504  1.1486  0.7117 -2.4547
12898TIP3   OH260184   0.586   3.266   1.280 -0.3024  0.1312  0.2224
12898TIP3    H160185   0.631   3.185   1.255 -1.1616 -0.5832  0.9129
12898TIP3    H260186   0.592   3.322   1.202 -2.4705 -1.8283 -1.5112
12899TIP3   OH260187   2.233   0.519   1.566 -0.2136 -0.5723  0.4196
12899TIP3    H160188   2.167   0.500   1.633  0.9991 -1.0349  1.5198
12899TIP3    H260189   2.312   0.475   1.597  0.4291 -0.6754 -1.2515
12900TIP3   OH260190   3.366   0.063  11.955 -0.0296 -0.8756 -0.3114
12900TIP3    H160191   3.351   0.043  12.048 -0.3871  0.1371 -0.1335
12900TIP3    H260192   3.288   0.031  11.911 -0.5397 -0.0248 -0.0503
12901TIP3   OH260193   4.314   1.060  17.393  0.3433  0.1299  0.1947
12901TIP3    H160194   4.307   1.149  17.359  0.0391  0.4353  1.0497
12901TIP3    H260195   4.356   1.011  17.322  1.1327  1.0926 -0.0199
12902TIP3   OH260196   2.100   5.236  16.877  0.1071 -0.2184 -0.6293
12902TIP3    H160197   2.135   5.149  16.899 -1.0403 -0.7639 -0.8664
12902TIP3    H260198   2.159   5.269  16.809 -0.1841 -1.3949 -1.4991
12903TIP3   OH260199   0.557   3.686   4.760  0.5538 -0.0717 -0.4870
12903TIP3    H160200   0.596   3.617   4.813  0.3077 -1.1874 -1.6923
12903TIP3    H260201   0.465   3.688   4.788  0.6725  0.1022 -0.1099
12904TIP3   OH260202   4.830   1.074   2.244 -0.0243  0.0351  0.0817
12904TIP3    H160203   4.802   1.132   2.315  0.1743  2.5127 -1.7155
12904TIP3    H260204   4.925   1.065   2.258  0.4048  2.2498 -0.9277
12905TIP3   OH260205   3.214   0.012   3.601  0.8955  0.0340 -0.2327
12905TIP3    H160206   3.286   0.033   3.660 -0.0285 -1.0277  1.3654
12905TIP3    H260207   3.136   0.048   3.644  0.3925  0.8429 -1.7448
12906TIP3   OH260208   2.306   6.666  16.297 -0.3139 -0.0768 -0.0327
12906TIP3    H160209   2.355   6.628  16.224 -0.5970  0.9487 -0.7658
12906TIP3    H260210   2.303   6.595  16.362 -1.0097 -1.3852 -1.4294
12907TIP3   OH260211   1.403   2.383   0.636  0.1364  0.0046  0.5637
12907TIP3    H160212   1.430   2.401   0.726  1.9982  0.0038  0.0477
12907TIP3    H260213   1.439   2.456   0.585 -2.4735  1.0277 -0.0043
12908TIP3   OH260214   5.698   3.472   2.207 -0.6591 -0.1693  0.5605
12908TIP3    H160215   5.733   3.389   2.239  2.1292  1.7772  3.0514
12908TIP3    H260216   5.757   3.498   2.137 -2.2776 -0.7531 -1.1260
12909TIP3   OH260217   2.976   4.086   0.089  0.7864 -0.4919 -0.0622
12909TIP3    H160218   3.048   4.024   0.102  0.1185 -1.4382 -0.6994
12909TIP3    H260219   2.932   4.089   0.174  0.7911 -0.9361 -0.0423
12910TIP3   OH260220   1.325   1.739   1.436 -0.0636  0.9888  0.9205
12910TIP3    H160221   1.232   1.718   1.443 -0.2985  0.2855 -2.4234
12910TIP3    H260222   1.332   1.829   1.466 -1.8999  1.1484  0.9560
12911TIP3   OH260223   4.624   0.802   1.554  0.2631 -0.6637  0.5801
12911TIP3    H160224   4.591   0.839   1.636  1.2764 -1.6744  1.4631
12911TIP3    H260225   4.568   0.842   1.487 -2.4868 -1.9071  1.9395
12912TIP3   OH260226   1.844   0.079   6.383 -0.3391 -0.1110 -0.7415
12912TIP3    H160227   1.795   0.135   6.444 -1.3891 -0.4413 -1.2555
12912TIP3    H260228   1.934   0.113   6.386 -0.2367 -0.4187  1.3459
12913TIP3   OH260229   0.892   5.167  14.827 -0.0974 -0.2112 -0.5102
12913TIP3    H160230   0.970   5.222  14.817 -0.0886 -0.2945 -0.9062
12913TIP3    H260231   0.927   5.078  14.833 -0.1604 -0.2431 -0.6243
12914TIP3   OH260232   5.511   6.028   0.690 -0.2219  0.2584 -0.0118
12914TIP3    H160233   5.524   6.069   0.605  0.6939  1.2471  0.5928
12914TIP3    H260234   5.575   6.069   0.748 -0.3121 -0.9326  0.9887
12915TIP3   OH260235   0.464   2.967  12.336 -0.1076 -0.2203 -0.1040
12915TIP3    H160236   0.398   3.035  12.344  1.4319  1.4469 -0.9068
12915TIP3    H260237   0.459   2.939  12.244 -0.8589 -1.3606  0.2656
12916TIP3   OH260238   0.020   5.110  12.817  0.1022  0.2805  0.1808
12916TIP3    H160239  -0.038   5.058  12.873  0.0719 -0.8782 -0.8824
12916TIP3    H260240   0.047   5.183  12.873  0.8835 -1.3473  2.0670
12917TIP3   OH260241   1.997   0.954   3.550  0.0631 -0.1099 -0.2086
12917TIP3    H160242   1.955   1.009   3.484 -0.8230 -2.4318 -1.7064
12917TIP3    H260243   1.927   0.899   3.584  0.7768  0.1149  1.7552
12918TIP3   OH260244   5.723   4.474   2.024 -0.5118 -0.3148  0.7611
12918TIP3    H160245   5.649   4.430   1.982  0.5561 -0.2531 -1.2662
12918TIP3    H260246   5.797   4.415   2.011  0.1696  0.3972  1.2778
12919TIP3   OH260247   0.185   5.830  16.418 -0.2230  0.1943  0.1861
12919TIP3    H160248   0.126   5.833  16.343  2.1231  1.2890 -1.7415
12919TIP3    H260249   0.143   5.886  16.484 -1.4490  0.7210 -0.9881
12920TIP3   OH260250   2.586   3.865   6.366 -0.0713 -0.7083 -0.5395
12920TIP3    H160251   2.649   3.802   6.401 -0.3428 -0.2310  0.8587
12920TIP3    H260252   2.623   3.950   6.390 -0.7573 -0.3999 -0.5715
12921TIP3   OH260253   1.940   1.249  14.185  0.5381 -0.4874  0.9584
12921TIP3    H160254   1.875   1.209  14.128  0.8755 -1.8234  1.4659
12921TIP3    H260255   1.937   1.343  14.164 -0.6984 -0.6901  0.1495
12922TIP3   OH260256   4.777   6.173  14.969 -0.0953  0.4371 -0.6803
12922TIP3    H160257   4.688   6.196  14.996  0.0469  1.0848 -0.7498
12922TIP3    H260258   4.777   6.188  14.875  0.0666  0.3668 -0.6899
12923TIP3   OH260259   4.804   5.128  16.769 -0.1281  0.8330 -0.2165
12923TIP3    H160260   4.716   5.162  16.783 -0.9626 -0.9652 -0.7931
12923TIP3    H260261   4.842   5.188  16.705 -1.0046  1.5299 -0.1090
12924TIP3   OH260262   6.332   4.672  12.920  0.0153 -0.2368  0.3167
12924TIP3    H160263   6.340   4.767  12.909 -0.8290 -0.3012 -1.1557
12924TIP3    H260264   6.258   4.662  12.981  0.0192  0.0474  0.3716
12925TIP3   OH260265   2.685   1.612  14.164  0.3353 -0.9999  0.1858
12925TIP3    H160266   2.634   1.633  14.085 -0.5706 -1.8642  0.5135
12925TIP3    H260267   2.726   1.527  14.144  1.2279 -0.5644  0.1312
12926TIP3   OH260268   0.148   5.030   2.440  0.6027 -0.2005 -0.3996
12926TIP3    H160269   0.164   5.075   2.357 -0.8156  1.5736  0.2086
12926TIP3    H260270   0.175   4.940   2.424  0.6423  0.1507 -2.7030
12927TIP3   OH260271   3.408   3.138   5.377  0.5751  0.2436 -0.4848
12927TIP3    H160272   3.401   3.133   5.473  0.7927  1.1724 -0.4077
12927TIP3    H260273   3.348   3.209   5.352 -1.0050 -1.3073 -1.2586
12928TIP3   OH260274   4.679   1.082   6.527 -0.7114  0.3537  0.6371
12928TIP3    H160275   4.694   1.172   6.556 -1.0626  0.1381  1.5259
12928TIP3    H260276   4.587   1.080   6.501  0.0752  1.0875 -2.6263
12929TIP3   OH260277   3.659   2.095   1.014 -0.4040  0.1222 -0.2418
12929TIP3    H160278   3.698   2.135   1.092  0.9293 -0.5176 -0.5540
12929TIP3    H260279   3.681   2.155   0.943  0.2541 -0.3672 -0.4594
12930TIP3   OH260280   5.111   5.304  12.871 -0.4690 -0.0105  0.1120
12930TIP3    H160281   5.039   5.286  12.812 -1.3007 -0.6856  1.2766
12930TIP3    H260282   5.190   5.297  12.817 -1.2401  0.0933 -1.0378
12931TIP3   OH260283   1.219   1.729   6.540  0.2430 -0.7589  0.1058
12931TIP3    H160284   1.149   1.670   6.513  0.1487 -0.4883 -0.2505
12931TIP3    H260285   1.278   1.733   6.465 -0.0922  0.1074 -0.1352
12932TIP3   OH260286   4.912   2.967  13.509 -0.3184  0.5671 -0.8866
12932TIP3    H160287   4.864   2.884  13.500 -0.3687  0.6349 -1.2721
12932TIP3    H260288   4.988   2.945  13.562  0.7079 -0.1685 -2.5608
12933TIP3   OH260289   0.430   1.981  15.986 -0.6079  0.2679  0.2576
12933TIP3    H160290   0.374   1.955  16.059 -0.2613  0.0436  0.4435
12933TIP3    H260291   0.388   1.943  15.909  0.0437 -1.1228  0.5495
12934TIP3   OH260292   4.421   5.648   0.800  0.0874 -0.1594 -0.2874
12934TIP3    H160293   4.411   5.684   0.712  0.1903 -2.5851 -1.3596
12934TIP3    H260294   4.387   5.559   0.794  0.8091 -0.6565  1.9400
12935TIP3   OH260295   1.429   4.797   1.787  0.5635  0.3481  0.4707
12935TIP3    H160296   1.486   4.750   1.848  0.0773 -1.9923 -0.7474
12935TIP3    H260297   1.452   4.889   1.799  3.1499 -0.3370  1.4651
12936TIP3   OH260298   0.467   1.692  15.548  0.1047  0.2487 -0.6300
12936TIP3    H160299   0.530   1.735  15.606  0.7554  0.4573 -1.4707
12936TIP3    H260300   0.410   1.642  15.607  1.0496  0.0657  0.1530
12937TIP3   OH260301   3.368   0.051   5.037 -0.1261  0.3872 -0.1145
12937TIP3    H160302   3.421   0.121   5.075  0.7675  1.1032 -2.4398
12937TIP3    H260303   3.403  -0.030   5.075  2.4820  0.8551 -1.2596
12938TIP3   OH260304   4.442   2.028   4.124  0.0997  0.1685  0.4401
12938TIP3    H160305   4.516   1.972   4.147  0.2434  0.1085 -0.1427
12938TIP3    H260306   4.434   2.089   4.197  1.8745  1.3448 -0.2767
12939TIP3   OH260307   0.013   3.794  13.875 -0.2832 -0.0888 -0.3188
12939TIP3    H160308  -0.082   3.790  13.872 -0.2973  0.7081 -3.2173
12939TIP3    H260309   0.039   3.715  13.924 -2.3567 -1.1734 -0.8755
12940TIP3   OH260310   6.043   1.495  15.769  0.5732 -0.0290  0.0656
12940TIP3    H160311   5.968   1.475  15.713  0.4044 -1.9346  0.9194
12940TIP3    H260312   6.098   1.551  15.714 -0.3050 -0.5779 -1.4554
12941TIP3   OH260313   3.775   3.183  14.675 -0.4331 -0.5131 -0.1462
12941TIP3    H160314   3.806   3.161  14.587 -1.3517  0.3581 -0.7138
12941TIP3    H260315   3.743   3.100  14.710 -0.4876 -0.7882 -0.8184
12942TIP3   OH260316   4.613   5.883  14.731  0.3200  0.3517 -0.5063
12942TIP3    H160317   4.607   5.878  14.635 -1.2320  4.1481 -0.7764
12942TIP3    H260318   4.699   5.923  14.747  0.5443 -0.2068 -0.2680
12943TIP3   OH260319   0.734   0.125   5.591 -0.3156  0.3727  0.0573
12943TIP3    H160320   0.676   0.197   5.617 -0.4993 -0.5051  2.3013
12943TIP3    H260321   0.811   0.169   5.556 -1.0643  1.6320 -0.0817
12944TIP3   OH260322   4.452   4.251  11.315 -0.0777 -0.3843  0.0221
12944TIP3    H160323   4.542   4.264  11.345 -0.2338  0.6011  0.0881
12944TIP3    H260324   4.415   4.339  11.312 -1.2267 -0.8326  0.5688
12945TIP3   OH260325   0.716   3.396  13.736  0.0008 -1.0611 -0.5228
12945TIP3    H160326   0.766   3.412  13.816 -0.2444  0.2232 -0.6040
12945TIP3    H260327   0.776   3.420  13.666  0.6768 -3.4003 -0.8298
12946TIP3   OH260328   2.933   6.701  13.615  0.1908  0.2163  0.3201
12946TIP3    H160329   2.907   6.609  13.624 -0.9271  0.5604  0.7345
12946TIP3    H260330   2.944   6.714  13.521  0.6063 -0.4110  0.2800
12947TIP3   OH260331   6.479   0.168  15.896 -0.0623  0.3484  0.5585
12947TIP3    H160332   6.399   0.221  15.900 -0.0904  0.4396 -0.8212
12947TIP3    H260333   6.544   0.226  15.857  0.0604 -0.4159 -0.4268
12948TIP3   OH260334   3.246   3.957  15.128  0.0711  0.0506  0.8089
12948TIP3    H160335   3.306   4.032  15.125  1.2660 -0.8593  1.2896
12948TIP3    H260336   3.272   3.902  15.054  0.1236 -0.5647  1.2755
12949TIP3   OH260337   3.135   0.414  17.102 -0.2672  0.2829 -0.1719
12949TIP3    H160338   3.060   0.376  17.058 -1.1057  2.0185 -0.3301
12949TIP3    H260339   3.098   0.480  17.160  1.1816  1.9679 -1.0734
12950TIP3   OH260340   6.681   1.597   4.422 -0.3463 -0.0682  0.1402
12950TIP3    H160341   6.661   1.558   4.507  0.9887  1.6109  1.2944
12950TIP3    H260342   6.734   1.674   4.443  1.8238 -0.7658 -2.3390
12951TIP3   OH260343   0.691   3.533  14.061  0.1973  0.8576  0.2541
12951TIP3    H160344   0.640   3.453  14.076  1.0169 -0.1151 -1.7620
12951TIP3    H260345   0.635   3.585  14.004  0.1057  1.2818  0.7235
12952TIP3   OH260346   1.426   5.711   0.881 -0.6942  0.3158 -0.8257
12952TIP3    H160347   1.338   5.713   0.844 -0.4810 -0.4296 -1.3979
12952TIP3    H260348   1.483   5.694   0.807 -0.2504 -1.1522 -0.1777
12953TIP3   OH260349   3.707   4.251   0.639 -0.1112  0.3336 -0.1234
12953TIP3    H160350   3.633   4.217   0.589 -0.8526  1.7226 -0.0199
12953TIP3    H260351   3.778   4.259   0.575  0.0792 -1.3175 -0.1534
12954TIP3   OH260352   5.608   3.958  17.307  0.2200 -0.3503 -0.0503
12954TIP3    H160353   5.532   3.923  17.260  0.4782 -0.3719 -0.4614
12954TIP3    H260354   5.577   4.039  17.347  0.2316  0.1622 -1.0370
12955TIP3   OH260355   0.746   1.931  11.952 -0.3974 -0.4231 -0.0218
12955TIP3    H160356   0.694   1.973  11.883 -0.1087  0.4572  0.2751
12955TIP3    H260357   0.680   1.891  12.009 -0.6452 -1.0357 -0.7208
12956TIP3   OH260358   2.462   4.707   0.079  0.4348  0.1173  0.3924
12956TIP3    H160359   2.542   4.656   0.075  0.1771 -0.3141 -3.2232
12956TIP3    H260360   2.397   4.647   0.116  0.9188 -1.0237 -0.5317
12957TIP3   OH260361   3.879   2.484  15.176  0.6465  0.4027 -0.1397
12957TIP3    H160362   3.966   2.524  15.183  1.6863 -1.6276 -0.5476
12957TIP3    H260363   3.854   2.464  15.266  1.1622 -0.1027 -0.1036
12958TIP3   OH260364   5.485   0.032   4.217  0.0041 -0.3993 -0.2355
12958TIP3    H160365   5.435   0.062   4.293 -0.1148  1.0221 -0.8497
12958TIP3    H260366   5.493   0.109   4.162 -0.4990 -1.5542 -1.9987
12959TIP3   OH260367   0.384   5.415   1.140 -0.5852  0.0816  0.7604
12959TIP3    H160368   0.463   5.426   1.191 -1.9557  2.2844  2.5587
12959TIP3    H260369   0.327   5.361   1.195 -1.4390  1.0508  0.8548
12960TIP3   OH260370   2.469   2.267  15.628 -0.2501 -0.1214  0.7112
12960TIP3    H160371   2.476   2.354  15.668 -2.6098  0.9746 -0.9888
12960TIP3    H260372   2.424   2.214  15.693 -0.9269  0.6381  0.8819
12961TIP3   OH260373   3.922   5.064   0.567 -0.2750  0.4342 -0.4055
12961TIP3    H160374   3.852   5.039   0.626 -0.4225  2.0004  0.1367
12961TIP3    H260375   3.995   5.086   0.624 -0.5362  2.3253 -0.7294
12962TIP3   OH260376   4.117   5.498  11.612  1.1472  0.3837  0.0508
12962TIP3    H160377   4.025   5.494  11.637  1.2434 -1.1221  0.2875
12962TIP3    H260378   4.118   5.543  11.528  0.1390 -0.0285 -0.1884
12963TIP3   OH260379   1.132   5.054   5.008  0.3032  0.5227  0.1004
12963TIP3    H160380   1.077   5.012   5.074  0.9541  0.2192  0.4530
12963TIP3    H260381   1.220   5.024   5.027  0.3672 -0.5704 -1.6341
12964TIP3   OH260382   5.262   2.122  13.791  1.0787  0.5544 -0.7815
12964TIP3    H160383   5.191   2.177  13.824 -0.1432 -2.1893  1.5897
12964TIP3    H260384   5.224   2.075  13.717  1.4534  1.2967 -1.4625
12965TIP3   OH260385   5.587   4.027  12.189 -0.1380  0.2200  0.9570
12965TIP3    H160386   5.676   3.999  12.211  0.1663  1.7033  1.6881
12965TIP3    H260387   5.532   3.953  12.214  0.9251 -0.9781 -0.0947
12966TIP3   OH260388   1.162   2.019   4.430 -0.2500  0.2136  0.0133
12966TIP3    H160389   1.131   1.984   4.514 -0.1269  1.0378  0.4097
12966TIP3    H260390   1.200   1.943   4.386  1.3872  0.0988  1.4915
12967TIP3   OH260391   5.841   5.340  15.439  0.3382  0.1259 -0.4152
12967TIP3    H160392   5.884   5.255  15.448  1.2055  0.7032  1.5290
12967TIP3    H260393   5.904   5.393  15.390  0.3402  0.0158 -0.5336
12968TIP3   OH260394   0.813   4.916  16.171 -0.2288  0.0599  0.1407
12968TIP3    H160395   0.793   5.010  16.175  1.0715  0.3253  2.7166
12968TIP3    H260396   0.884   4.904  16.234  0.1179 -2.5735 -0.6291
12969TIP3   OH260397   6.366   1.025  11.015 -0.4896  0.3693 -0.8355
12969TIP3    H160398   6.457   1.006  10.992 -0.7324 -1.0400 -0.7188
12969TIP3    H260399   6.364   1.021  11.111 -0.4558  1.5581 -0.7644
12970TIP3   OH260400   0.372   1.346  14.033 -0.2284 -0.6931 -0.4621
12970TIP3    H160401   0.280   1.367  14.018  0.4104  1.9771 -1.0902
12970TIP3    H260402   0.377   1.325  14.126 -1.0995  1.9420  0.2690
12971TIP3   OH260403   2.336   6.487  11.599  0.3827  0.7855  0.3442
12971TIP3    H160404   2.330   6.534  11.517  1.6398  0.6944  0.1857
12971TIP3    H260405   2.401   6.419  11.584 -0.5752 -0.3034  0.9114
12972TIP3   OH260406   1.488   0.536   2.450 -0.2760  0.3808 -0.6260
12972TIP3    H160407   1.423   0.565   2.386 -1.5364 -0.7165  0.0862
12972TIP3    H260408   1.451   0.455   2.486  1.4782 -0.2547 -0.1414
12973TIP3   OH260409   3.980   2.905   3.688  0.0126 -0.2636  0.6524
12973TIP3    H160410   4.066   2.945   3.701 -0.0476  0.0961  0.0203
12973TIP3    H260411   3.918   2.974   3.713 -0.1087 -0.9007  2.1949
12974TIP3   OH260412   1.370   3.007  17.340 -0.1549 -0.4047  0.1975
12974TIP3    H160413   1.291   2.992  17.392 -1.0520 -1.5252 -1.3941
12974TIP3    H260414   1.340   3.055  17.263  0.8391 -0.2636 -0.1200
12975TIP3   OH260415   2.016   2.545  14.822  0.1695 -0.2702 -0.1169
12975TIP3    H160416   2.101   2.555  14.863  0.3177 -1.0113 -0.2308
12975TIP3    H260417   1.954   2.542  14.895  0.5167 -2.4753  0.1335
12976TIP3   OH260418   2.309   5.228   1.014  0.5274 -0.2114  0.4064
12976TIP3    H160419   2.350   5.212   1.099 -0.2861 -2.6427  0.4216
12976TIP3    H260420   2.370   5.192   0.950  0.8324  1.0088 -0.0050
12977TIP3   OH260421   5.682   0.363  13.657  0.6178  0.3485 -0.1799
12977TIP3    H160422   5.641   0.426  13.717  0.2887  1.6384 -1.6763
12977TIP3    H260423   5.776   0.380  13.665  0.6793 -0.4694  0.9873
12978TIP3   OH260424   2.065   1.786  12.579  0.1120 -0.7809 -0.5889
12978TIP3    H160425   2.137   1.812  12.637  0.9994 -0.4275 -1.7743
12978TIP3    H260426   2.107   1.780  12.492 -0.9621 -2.1884 -1.0337
12979TIP3   OH260427   3.152   1.170   4.584 -0.1429  0.2786  0.4770
12979TIP3    H160428   3.186   1.119   4.512 -2.0596 -1.3561  0.6257
12979TIP3    H260429   3.099   1.239   4.542  0.4676  0.6482  0.3081
12980TIP3   OH260430   6.336   2.828   3.800  0.3328  0.0357  0.0890
12980TIP3    H160431   6.319   2.794   3.713 -0.8568 -0.6995  0.5905
12980TIP3    H260432   6.424   2.866   3.794  0.6764 -0.8865 -1.1606
12981TIP3   OH260433   3.859   6.032  12.228 -0.7534 -0.4304  0.3100
12981TIP3    H160434   3.914   6.100  12.267 -1.2453  0.7081 -0.9272
12981TIP3    H260435   3.785   6.079  12.191 -1.8102 -1.7914  0.6100
12982TIP3   OH260436   2.984   5.733  15.434 -0.2459 -0.0254 -0.1245
12982TIP3    H160437   2.929   5.761  15.507 -0.2928 -1.4364  0.4116
12982TIP3    H260438   3.074   5.746  15.465 -0.2677 -0.3107  0.0608
12983TIP3   OH260439   1.973   5.992  16.879  0.0423 -0.0996 -0.1401
12983TIP3    H160440   2.025   5.944  16.815 -1.1307 -0.3150 -0.9506
12983TIP3    H260441   2.008   6.081  16.877  0.3958 -0.2487 -0.6327
12984TIP3   OH260442   1.139   6.354  13.834  0.2225  0.3450  0.3182
12984TIP3    H160443   1.224   6.346  13.790  0.1264 -0.0401  0.2020
12984TIP3    H260444   1.077   6.374  13.765  0.3831  1.7052  0.5423
12985TIP3   OH260445   1.681   4.357  11.978  0.4293 -0.3740 -0.6357
12985TIP3    H160446   1.660   4.356  12.072 -0.6709  1.3818 -0.8104
12985TIP3    H260447   1.659   4.269  11.947 -0.3166 -0.6165  0.5322
12986TIP3   OH260448   0.429   2.694  13.086  0.3118 -0.0877 -0.3338
12986TIP3    H160449   0.435   2.656  13.174  1.2834 -1.9345 -1.1401
12986TIP3    H260450   0.451   2.622  13.027  1.7755  1.6077 -1.9988
12987TIP3   OH260451   3.948   6.622   3.693 -0.2524 -0.1718 -0.1503
12987TIP3    H160452   4.013   6.691   3.702  0.2816 -0.6605 -0.2036
12987TIP3    H260453   3.997   6.547   3.660 -0.7122 -0.7509  0.4506
12988TIP3   OH260454   1.004   5.976  11.444 -0.1416  0.8690 -0.0987
12988TIP3    H160455   0.946   5.929  11.504  1.4721 -0.2765  0.6190
12988TIP3    H260456   1.030   5.912  11.379 -0.3633  1.6135 -0.9461
12989TIP3   OH260457   0.864   5.059   2.781 -0.1663 -0.3042 -0.4495
12989TIP3    H160458   0.885   5.047   2.874 -2.0011 -0.8615 -0.0790
12989TIP3    H260459   0.913   4.990   2.736 -0.5783 -1.0997  0.2964
12990TIP3   OH260460   4.395   3.040   6.303 -0.1613 -0.1968  0.0418
12990TIP3    H160461   4.342   3.113   6.271  0.8414  0.7393  0.4190
12990TIP3    H260462   4.359   3.021   6.390 -0.3496 -0.0744 -0.0084
12991TIP3   OH260463   2.373   2.790   4.362 -0.6505  0.1999  0.1856
12991TIP3    H160464   2.321   2.854   4.314  0.5107 -0.1863 -1.6935
12991TIP3    H260465   2.370   2.711   4.308  3.4602  0.7491 -1.1855
12992TIP3   OH260466   5.624   1.149   0.119 -0.0359 -0.3382  0.4066
12992TIP3    H160467   5.681   1.223   0.138 -0.2345  0.7288 -2.5151
12992TIP3    H260468   5.684   1.077   0.098  0.3059  0.4611 -1.5610
12993TIP3   OH260469   4.278   4.888   3.625 -0.3676  0.1796 -0.0105
12993TIP3    H160470   4.342   4.956   3.605  0.5725 -0.7913 -0.4239
12993TIP3    H260471   4.329   4.819   3.669 -1.5798  0.4051  1.8814
12994TIP3   OH260472   6.310   0.851  11.932 -0.0400 -0.1145  0.4751
12994TIP3    H160473   6.301   0.786  11.862  1.4173 -0.6425  0.7485
12994TIP3    H260474   6.296   0.801  12.013 -1.6364  0.4760  0.5984
12995TIP3   OH260475   2.796   4.961   0.902 -0.8996  0.1301 -0.5808
12995TIP3    H160476   2.809   5.053   0.878 -2.2753 -0.0096 -1.9916
12995TIP3    H260477   2.879   4.919   0.881  0.4613  1.3337  1.8950
12996TIP3   OH260478   3.288   0.840   6.090  0.0828 -0.2276 -0.1770
12996TIP3    H160479   3.359   0.829   6.154 -1.4677 -0.4844  1.6088
12996TIP3    H260480   3.305   0.774   6.023  0.7115 -1.3192  1.0058
12997TIP3   OH260481   4.372   1.325   6.164  0.0504  0.3907  0.4602
12997TIP3    H160482   4.422   1.339   6.244 -1.0010 -1.3424  1.4870
12997TIP3    H260483   4.437   1.318   6.095  1.0771  0.3061  1.4159
12998TIP3   OH260484   2.928   6.063  17.502  0.1843 -0.8094 -0.5403
12998TIP3    H160485   2.965   6.078  17.415 -0.4782  0.0315 -0.6907
12998TIP3    H260486   2.963   5.977  17.529 -0.3995 -1.5447 -2.0439
12999TIP3   OH260487   1.617   3.915  14.632  0.1982 -0.0893  0.1060
12999TIP3    H160488   1.603   3.978  14.703  2.3854  1.3525 -0.6125
12999TIP3    H260489   1.545   3.931  14.571 -0.4757  0.1946  0.9572
13000TIP3   OH260490   5.869   1.175  16.827 -0.3149  0.1715  0.2992
13000TIP3    H160491   5.821   1.092  16.816 -0.2934 -0.0572  1.6510
13000TIP3    H260492   5.836   1.231  16.758 -0.2113 -1.0205 -0.7596
13001TIP3   OH260493   1.740   4.473   4.980  0.2232  0.0008  0.5262
13001TIP3    H160494   1.692   4.468   5.063 -0.4197  1.5181  0.2693
13001TIP3    H260495   1.811   4.534   4.997 -0.1981  0.7048 -0.1532
13002TIP3   OH260496   4.327   3.239   2.379  0.4977 -0.2093 -0.1414
13002TIP3    H160497   4.401   3.290   2.411  0.6103 -1.1631  1.2153
13002TIP3    H260498   4.264   3.304   2.350  2.4299  0.6235 -2.8126
13003TIP3   OH260499   0.750   1.168  13.602  0.3356 -0.2524 -0.0714
13003TIP3    H160500   0.800   1.244  13.630  2.1610 -2.2327  2.5649
13003TIP3    H260501   0.659   1.189  13.623  0.7819  1.2183  0.4578
13004TIP3   OH260502   4.687   3.297   1.858 -0.4628 -0.3627 -0.7025
13004TIP3    H160503   4.781   3.311   1.867 -0.4769 -0.6058 -0.0889
13004TIP3    H260504   4.672   3.290   1.764  0.0468  0.2295 -0.8327
13005TIP3   OH260505   2.827   6.479  15.587 -0.7945  0.0840 -0.4563
13005TIP3    H160506   2.751   6.458  15.533  0.2148 -3.5961 -0.7765
13005TIP3    H260507   2.896   6.423  15.553  1.4003  1.5272  1.3411
13006TIP3   OH260508   2.313   0.535  16.306 -0.3164  0.0960 -0.2457
13006TIP3    H160509   2.368   0.526  16.228  1.8122 -1.3444  1.2852
13006TIP3    H260510   2.358   0.482  16.372 -2.2955  0.8646  1.8237
13007TIP3   OH260511   2.559   4.749  16.540 -0.3480  0.3356  0.2371
13007TIP3    H160512   2.547   4.656  16.562  0.6380 -0.2291 -1.4117
13007TIP3    H260513   2.619   4.782  16.607 -0.7381 -0.1824  0.8622
13008TIP3   OH260514   4.718   3.289   3.289  0.4285 -0.1159  0.0085
13008TIP3    H160515   4.781   3.246   3.232  0.7600 -1.4277  1.2931
13008TIP3    H260516   4.728   3.382   3.271  0.3558 -0.4836 -2.1815
13009TIP3   OH260517   0.957   5.618  12.789  0.3027  0.4312  0.5054
13009TIP3    H160518   0.951   5.693  12.848 -0.4214 -0.7078  1.9191
13009TIP3    H260519   0.874   5.618  12.742  0.5407  0.8297  0.0625
13010TIP3   OH260520   6.088   0.096  17.383  0.5102  0.2599 -0.0831
13010TIP3    H160521   6.087   0.146  17.302  1.2505 -0.4353 -0.5405
13010TIP3    H260522   6.133   0.152  17.446  0.1515  0.7003 -0.2165
13011TIP3   OH260523   2.962   5.133   4.843  0.4102 -0.3867 -0.0101
13011TIP3    H160524   2.907   5.063   4.879  1.4598 -0.9965  0.4305
13011TIP3    H260525   2.995   5.098   4.761 -0.1123  0.1124 -0.4429
13012TIP3   OH260526   0.549   4.317   2.438 -0.0892 -0.3528 -0.1469
13012TIP3    H160527   0.620   4.265   2.475  1.2320  1.9605  0.7847
13012TIP3    H260528   0.563   4.313   2.343  2.1052  1.0228  0.0451
13013TIP3   OH260529   1.308   0.096   5.140  0.6348 -0.0521 -0.0038
13013TIP3    H160530   1.266   0.010   5.140  0.1526  0.1709  1.0077
13013TIP3    H260531   1.283   0.135   5.224  3.2060 -0.0733  0.8466
13014TIP3   OH260532   0.844   0.654   0.500  0.9255 -0.2596  0.1208
13014TIP3    H160533   0.756   0.665   0.463  0.7922  2.1925  0.9740
13014TIP3    H260534   0.833   0.668   0.594  2.3971  1.5763  0.0744
13015TIP3   OH260535   3.642   3.722  11.987  0.0517  0.0575 -0.1421
13015TIP3    H160536   3.555   3.751  11.961  0.5247  0.5366 -1.2231
13015TIP3    H260537   3.676   3.674  11.911  1.0839  0.6551 -0.0792
13016TIP3   OH260538   5.057   3.766  16.871 -0.3746  0.3914  0.3255
13016TIP3    H160539   5.053   3.797  16.961  0.4129  1.0326  0.1592
13016TIP3    H260540   4.969   3.780  16.836 -0.9332 -0.6867  1.2365
13017TIP3   OH260541   3.239   5.615   1.811 -0.0856 -0.2398  0.2061
13017TIP3    H160542   3.333   5.607   1.825  0.2572 -0.2695 -1.8030
13017TIP3    H260543   3.202   5.537   1.853  1.1019 -1.6695 -1.2667
13018TIP3   OH260544   5.163   1.908  14.195  0.4000 -0.1442 -0.3918
13018TIP3    H160545   5.184   1.816  14.180  0.3971 -0.1258 -0.5086
13018TIP3    H260546   5.214   1.955  14.129 -0.6879 -0.1549 -1.2646
13019TIP3   OH260547   6.370   4.678   4.028 -0.3307  0.3052  0.0963
13019TIP3    H160548   6.446   4.620   4.030 -0.6861 -0.1443  1.7762
13019TIP3    H260549   6.374   4.725   4.111 -1.3644  0.9954 -0.2243
13020TIP3   OH260550   0.371   6.728  16.246  0.0838 -0.5904  0.1200
13020TIP3    H160551   0.318   6.787  16.300  0.1208  0.6418 -1.1392
13020TIP3    H260552   0.426   6.787  16.194  2.2147 -1.7889  0.8633
13021TIP3   OH260553   0.831   6.447   1.422  0.3846  0.4171 -0.1908
13021TIP3    H160554   0.914   6.449   1.468 -0.0561  1.4732  0.5932
13021TIP3    H260555   0.768   6.414   1.486  0.5309 -2.6679 -1.4393
13022TIP3   OH260556   4.375   1.383   2.854  0.1496  0.5942 -0.4903
13022TIP3    H160557   4.421   1.374   2.937 -1.6198  0.2230  0.5027
13022TIP3    H260558   4.363   1.477   2.843  1.2162  0.7024 -0.8258
13023TIP3   OH260559   2.038   0.327  12.505 -0.1610  0.6885 -0.0387
13023TIP3    H160560   2.052   0.275  12.426 -0.8053  1.1349 -0.4603
13023TIP3    H260561   1.958   0.290  12.544  0.4134  0.1668  0.6619
13024TIP3   OH260562   1.091   2.696   6.376 -1.0232 -0.1965 -0.2376
13024TIP3    H160563   1.069   2.692   6.469 -0.8398  1.7982 -0.0662
13024TIP3    H260564   1.008   2.719   6.333 -0.9565 -0.4265 -0.4930
13025TIP3   OH260565   5.638   3.328  14.644  0.0527 -0.1209 -0.5649
13025TIP3    H160566   5.691   3.250  14.632 -2.2525 -1.5069 -2.6599
13025TIP3    H260567   5.548   3.297  14.642 -0.9329  2.3986  0.3879
13026TIP3   OH260568   1.286   5.448  16.101  0.2558  0.1819 -0.3637
13026TIP3    H160569   1.297   5.403  16.017 -0.9924 -0.0683 -0.4187
13026TIP3    H260570   1.293   5.541  16.079  0.4273  0.0995 -0.6636
13027TIP3   OH260571   1.582   1.064  15.290  0.2577  0.4237  0.4024
13027TIP3    H160572   1.595   1.159  15.294 -0.1459  0.5145 -0.2655
13027TIP3    H260573   1.670   1.028  15.296  0.5078  0.8867 -0.3205
13028TIP3   OH260574   6.713   5.203   2.441  0.0585  0.2741 -0.6625
13028TIP3    H160575   6.761   5.253   2.375 -2.2326 -1.2299 -3.7297
13028TIP3    H260576   6.755   5.117   2.441 -0.4216  0.0391 -0.7251
13029TIP3   OH260577   3.387   4.493  16.435  0.1504  0.3488  0.0128
13029TIP3    H160578   3.400   4.435  16.510 -1.1077 -0.7128 -0.5568
13029TIP3    H260579   3.446   4.567  16.451  0.1778 -0.0308  1.8568
13030TIP3   OH260580   2.726   6.334   3.461  0.1633  0.0062 -0.5647
13030TIP3    H160581   2.815   6.370   3.459  0.1067  0.4184  1.6463
13030TIP3    H260582   2.687   6.361   3.379  0.9720  2.8103 -0.1222
13031TIP3   OH260583   6.211   1.571   3.004  0.0612  1.0105 -0.2985
13031TIP3    H160584   6.175   1.656   2.981  0.3227  2.0772  2.7797
13031TIP3    H260585   6.306   1.585   3.006  0.1530  0.4435 -0.4551
13032TIP3   OH260586   0.548   1.136  12.802 -0.3570 -0.1086  0.0569
13032TIP3    H160587   0.454   1.151  12.799 -0.3063  0.6240  1.4882
13032TIP3    H260588   0.564   1.099  12.889  0.7014 -0.0058 -0.0791
13033TIP3   OH260589   4.526   4.517   3.907 -0.0844 -0.3729 -0.1318
13033TIP3    H160590   4.567   4.457   3.844  0.5374  1.5299 -1.6349
13033TIP3    H260591   4.598   4.573   3.937 -0.4737 -0.9361  1.9634
13034TIP3   OH260592   6.704   5.626   5.968  0.1506  0.4037  0.4779
13034TIP3    H160593   6.641   5.614   6.038  0.5273  0.2593  0.7978
13034TIP3    H260594   6.659   5.681   5.903 -1.2550 -1.8836 -0.5864
13035TIP3   OH260595   3.813   5.388   1.386 -0.2851  0.4553 -0.1701
13035TIP3    H160596   3.811   5.333   1.307 -1.2544  0.3660 -0.0857
13035TIP3    H260597   3.814   5.326   1.459  0.6188  0.5380 -0.0931
13036TIP3   OH260598   4.350   0.180  14.410 -1.0086  0.1512 -0.1869
13036TIP3    H160599   4.410   0.249  14.383 -1.2079  0.2674 -0.3385
13036TIP3    H260600   4.263   0.213  14.385 -1.0401 -0.4716 -0.9218
13037TIP3   OH260601   5.609   4.009   5.693  0.1809  0.1351  0.1570
13037TIP3    H160602   5.562   4.048   5.766 -0.1541 -1.4803  0.8272
13037TIP3    H260603   5.613   3.916   5.713 -1.3844 -0.6537 -2.6503
13038TIP3   OH260604   1.836   6.422   4.632  0.7216  0.0900  0.0755
13038TIP3    H160605   1.795   6.348   4.587 -0.2529  0.3061  0.5927
13038TIP3    H260606   1.873   6.385   4.712  0.8767  0.0381 -0.0187
13039TIP3   OH260607   4.238   3.720   2.122  1.0769 -0.3869 -0.4174
13039TIP3    H160608   4.288   3.639   2.129  2.7204  0.5823 -0.6627
13039TIP3    H260609   4.197   3.715   2.035 -1.2445 -2.2218  0.6385
13040TIP3   OH260610   2.253   1.681  12.947 -0.0779  0.3577 -0.8355
13040TIP3    H160611   2.271   1.773  12.925 -0.5777 -0.1498 -3.7374
13040TIP3    H260612   2.241   1.638  12.863  1.7812 -2.7619  0.3243
13041TIP3   OH260613   4.233   5.069  16.351 -0.2146  0.3505  0.0252
13041TIP3    H160614   4.312   5.085  16.299  1.0834  2.2588  2.3675
13041TIP3    H260615   4.228   4.973  16.358  0.3514  0.0814 -2.3010
13042TIP3   OH260616   0.107   6.158  14.397  0.4648 -0.3074 -0.2362
13042TIP3    H160617   0.186   6.116  14.363  0.3725  0.2230 -1.1365
13042TIP3    H260618   0.067   6.199  14.321 -0.6658 -0.5366  0.2138
13043TIP3   OH260619   5.097   3.172  14.430 -0.1667 -0.1670 -0.0035
13043TIP3    H160620   5.184   3.183  14.467  1.1740 -2.0165 -2.3160
13043TIP3    H260621   5.066   3.089  14.466 -1.1274  0.5931  0.9891
13044TIP3   OH260622   5.553   4.892  15.763  0.3781 -0.3821  0.0497
13044TIP3    H160623   5.543   4.797  15.758  0.5934 -0.3739 -0.5008
13044TIP3    H260624   5.486   4.919  15.826 -1.0765 -0.6690 -1.3168
13045TIP3   OH260625   4.974   1.998   0.135  0.1586 -0.5761 -0.2623
13045TIP3    H160626   4.970   1.983   0.230  0.9783 -0.2534 -0.1729
13045TIP3    H260627   4.891   2.040   0.114  0.1872 -0.1804  0.3989
13046TIP3   OH260628   5.437   5.432  12.482  0.2174 -0.9673 -0.0246
13046TIP3    H160629   5.513   5.489  12.470 -1.0613  0.3833 -2.4095
13046TIP3    H260630   5.434   5.380  12.401 -0.9456 -1.5768  0.3889
13047TIP3   OH260631   0.508   0.260  15.092  0.1637  0.4023  0.8146
13047TIP3    H160632   0.577   0.194  15.099  0.7628  0.7745 -0.9966
13047TIP3    H260633   0.435   0.223  15.141  0.6484 -1.4193  0.2624
13048TIP3   OH260634   0.786   0.020   0.594 -0.3184 -0.1103 -0.3389
13048TIP3    H160635   0.807   0.107   0.630  0.1314 -0.0847 -0.6499
13048TIP3    H260636   0.742  -0.025   0.666  0.3085  0.0415  0.1506
13049TIP3   OH260637   1.526   6.143  11.969 -0.2492  0.4298  0.2572
13049TIP3    H160638   1.509   6.066  12.023  0.3123 -0.2794 -0.5427
13049TIP3    H260639   1.443   6.158  11.922 -0.2088  0.0029  0.0433
13050TIP3   OH260640   1.140   5.668   6.126 -0.0591  1.0190 -0.5028
13050TIP3    H160641   1.175   5.689   6.213  0.0651  2.0970 -0.7961
13050TIP3    H260642   1.206   5.612   6.086 -0.8178 -0.8002  0.6521
13051TIP3   OH260643   0.053   1.354  15.694 -0.1051  0.1095  0.0763
13051TIP3    H160644   0.130   1.403  15.722 -0.1436 -0.1255  0.6018
13051TIP3    H260645  -0.021   1.403  15.729 -0.1424 -0.3377  0.6456
13052TIP3   OH260646   3.742   3.240  11.719 -0.5000 -0.0871 -0.2113
13052TIP3    H160647   3.715   3.277  11.803 -2.6959  1.6772 -1.5821
13052TIP3    H260648   3.787   3.312  11.675 -0.2305 -0.6899 -0.9397
13053TIP3   OH260649   3.846   0.329   4.617  0.3744  0.1932 -0.7132
13053TIP3    H160650   3.760   0.365   4.640  1.0473  1.8038 -0.5850
13053TIP3    H260651   3.898   0.338   4.698  1.5418  2.0951 -1.6021
13054TIP3   OH260652   0.246   6.423   3.683  0.1947 -0.8731 -0.1137
13054TIP3    H160653   0.314   6.490   3.672  0.4857 -0.6824  2.4285
13054TIP3    H260654   0.294   6.341   3.695 -0.0123 -0.8549  0.9456
13055TIP3   OH260655   0.247   2.222  12.500 -0.4826  0.3265  0.2591
13055TIP3    H160656   0.211   2.214  12.412 -0.7136 -0.4133  0.4176
13055TIP3    H260657   0.179   2.267  12.550 -0.3083  0.8443  0.0464
13056TIP3   OH260658   6.540   6.547   4.194  0.6808 -0.1709 -0.8399
13056TIP3    H160659   6.534   6.489   4.270 -0.1748 -0.9214 -1.4607
13056TIP3    H260660   6.449   6.558   4.165  0.9197  0.7993 -1.2366
13057TIP3   OH260661   3.266   1.310  12.363  0.6302 -0.3169 -0.2524
13057TIP3    H160662   3.253   1.304  12.268 -0.9700  1.7079 -0.2348
13057TIP3    H260663   3.314   1.392  12.375  1.6300 -1.0147  0.6637
13058TIP3   OH260664   0.531   2.675   4.382 -0.0963  0.2023  0.6953
13058TIP3    H160665   0.482   2.716   4.311  0.1165 -1.5596 -0.5476
13058TIP3    H260666   0.547   2.745   4.445  0.0846  1.9290 -1.1980
13059TIP3   OH260667   6.514   3.686   2.478  0.6705  0.1780 -0.7242
13059TIP3    H160668   6.441   3.624   2.486  0.0060  0.9949 -0.1643
13059TIP3    H260669   6.500   3.730   2.394 -1.0129  2.1397  0.4830
13060TIP3   OH260670   0.831   3.203   0.363  0.2886 -0.6862  0.4292
13060TIP3    H160671   0.750   3.246   0.390  0.5265 -0.3426  0.5945
13060TIP3    H260672   0.840   3.225   0.271  1.3589  1.1657  0.9246
13061TIP3   OH260673   0.721   5.871   1.539  0.1603 -0.4848  0.3266
13061TIP3    H160674   0.680   5.956   1.554 -0.3723 -0.3934 -1.4396
13061TIP3    H260675   0.649   5.808   1.547  0.1680 -0.5717 -0.2314
13062TIP3   OH260676   2.517   4.840   5.110  0.4818  0.4615  0.0662
13062TIP3    H160677   2.553   4.752   5.103 -0.1583  0.1907  0.1196
13062TIP3    H260678   2.491   4.862   5.020 -1.9780 -0.5488  0.4472
13063TIP3   OH260679   0.597   2.293   3.480 -0.4862  0.0758  0.4161
13063TIP3    H160680   0.551   2.253   3.406  2.6335  0.8627 -2.1835
13063TIP3    H260681   0.632   2.219   3.530  0.1552 -0.5270 -0.8698
13064TIP3   OH260682   2.468   5.352   6.356 -0.1293  0.2612 -0.0827
13064TIP3    H160683   2.422   5.378   6.277 -0.9420  1.1458  0.6486
13064TIP3    H260684   2.548   5.311   6.325 -0.4223  0.6007 -1.3529
13065TIP3   OH260685   3.073   1.992  17.336  0.5139  0.5882 -0.0858
13065TIP3    H160686   3.013   1.918  17.341 -0.6484  1.3097 -1.9885
13065TIP3    H260687   3.090   2.017  17.427 -1.9762  0.2767  0.5152
13066TIP3   OH260688   2.267   4.993  13.806 -0.3590 -0.6021  0.0097
13066TIP3    H160689   2.239   4.904  13.789  0.4361 -0.5554 -1.7427
13066TIP3    H260690   2.349   4.983  13.855  0.9997 -0.9457 -2.2002
13067TIP3   OH260691   5.576   1.657  14.511  0.3124 -0.1215  0.1023
13067TIP3    H160692   5.589   1.566  14.537  0.0449  0.1477  1.2269
13067TIP3    H260693   5.636   1.707  14.567  1.6855  0.2908 -1.6106
13068TIP3   OH260694   1.228   6.570   1.856 -0.1885  0.0836 -0.2717
13068TIP3    H160695   1.311   6.587   1.811 -0.1478  0.5111 -0.0407
13068TIP3    H260696   1.191   6.495   1.809  0.5608 -0.4348 -0.0698
13069TIP3   OH260697   1.055   0.606  14.686  0.4326 -0.2204 -0.1570
13069TIP3    H160698   1.089   0.631  14.772  1.0781  1.0563 -0.7652
13069TIP3    H260699   1.022   0.517  14.699  0.4980 -0.0526  1.4148
13070TIP3   OH260700   0.976   5.258   5.235  0.2496 -0.3413 -0.1415
13070TIP3    H160701   0.946   5.167   5.240  0.0018 -0.4122 -1.9972
13070TIP3    H260702   0.913   5.308   5.287 -1.4580 -0.8757 -1.5933
13071TIP3   OH260703   1.796   0.315   2.525  0.2552 -0.3650  0.0497
13071TIP3    H160704   1.754   0.230   2.530  0.2718 -0.3710  0.0869
13071TIP3    H260705   1.729   0.377   2.553  0.8239 -0.5407  1.9331
13072TIP3   OH260706   1.836   3.410  15.049 -0.1484  0.2115 -0.2449
13072TIP3    H160707   1.849   3.351  14.976  0.2265  1.2588 -1.0531
13072TIP3    H260708   1.759   3.376  15.094  0.0964 -0.9100 -0.6450
13073TIP3   OH260709   4.591   3.196   1.604 -0.2016 -0.1454 -0.2638
13073TIP3    H160710   4.559   3.185   1.514 -1.8136 -0.1987  0.2913
13073TIP3    H260711   4.546   3.129   1.654  0.1914  0.3067  0.7150
13074TIP3   OH260712   6.372   0.001   4.536 -0.0468 -0.2939  0.3057
13074TIP3    H160713   6.462  -0.032   4.533  0.0900  0.0048  1.0046
13074TIP3    H260714   6.318  -0.078   4.527  0.2761 -0.3685 -1.1045
13075TIP3   OH260715   0.427   1.301  15.350 -0.0340 -0.4048 -0.6757
13075TIP3    H160716   0.333   1.307  15.336  0.1355  0.0411 -1.6510
13075TIP3    H260717   0.456   1.392  15.360  0.3045 -0.5389 -0.4027
13076TIP3   OH260718   2.622   3.481   4.218 -0.6729 -0.2166 -0.2033
13076TIP3    H160719   2.534   3.515   4.234 -1.1231 -1.6087  0.4551
13076TIP3    H260720   2.669   3.500   4.299 -0.3647  0.4815 -0.5364
13077TIP3   OH260721   6.504   0.122   5.249  0.4603  0.4813 -0.1422
13077TIP3    H160722   6.523   0.187   5.317  0.6530  0.5823 -0.2943
13077TIP3    H260723   6.488   0.173   5.170 -1.2510  0.4589  0.1564
13078TIP3   OH260724   5.380   2.806   5.164 -0.1540 -0.0489 -0.4837
13078TIP3    H160725   5.318   2.866   5.204 -0.2117 -0.4054 -0.0396
13078TIP3    H260726   5.395   2.842   5.076 -1.6532 -0.4338 -0.9228
13079TIP3   OH260727   1.558   3.384   6.216 -0.0884  0.3580 -0.0104
13079TIP3    H160728   1.470   3.414   6.191  0.4728  2.4143  0.2893
13079TIP3    H260729   1.617   3.431   6.158  0.8211 -2.4528 -1.5549
13080TIP3   OH260730   5.684   0.922  12.167  0.0364 -0.2690 -0.4382
13080TIP3    H160731   5.706   0.955  12.254 -1.9808  1.4178 -0.4796
13080TIP3    H260732   5.744   0.969  12.108  1.3266 -1.3294 -0.0198
13081TIP3   OH260733   4.327   0.782   5.253  0.1504  0.0120  0.6784
13081TIP3    H160734   4.314   0.876   5.266 -0.5585 -0.2938  2.6152
13081TIP3    H260735   4.327   0.746   5.342  2.0663 -1.6311  0.0799
13082TIP3   OH260736   6.181   2.942   0.060  0.7716 -0.9630 -0.6074
13082TIP3    H160737   6.189   2.852   0.093  1.2784 -1.1096 -1.1071
13082TIP3    H260738   6.241   2.993   0.114  0.2350 -0.8623 -0.1041
13083TIP3   OH260739   2.040   0.998   2.430 -0.0541  0.2263 -0.5757
13083TIP3    H160740   2.067   1.039   2.348  1.1519 -1.3366 -1.0046
13083TIP3    H260741   1.998   0.917   2.404  0.2315 -0.2327  0.3324
13084TIP3   OH260742   6.717   2.115   6.040 -1.2533  0.8827  0.2752
13084TIP3    H160743   6.701   2.203   6.074 -2.6857  0.7332  0.0373
13084TIP3    H260744   6.630   2.077   6.031 -0.8416  0.3603 -2.1150
13085TIP3   OH260745   1.388   5.133  16.079 -0.4476  0.0463 -0.1955
13085TIP3    H160746   1.329   5.073  16.125 -0.8384  0.2250 -0.4647
13085TIP3    H260747   1.364   5.126  15.987 -2.3327  2.5428 -0.0248
13086TIP3   OH260748   3.669   3.442  17.025  0.6713 -0.1665 -0.0851
13086TIP3    H160749   3.705   3.368  17.073  1.8133  0.7289  0.5014
13086TIP3    H260750   3.709   3.436  16.938  0.7847 -0.2227 -0.0292
13087TIP3   OH260751   5.017   2.504  15.824 -0.3147 -0.3473 -0.1236
13087TIP3    H160752   5.100   2.464  15.801  0.1515 -0.3640  1.4405
13087TIP3    H260753   4.973   2.521  15.741  0.5281 -1.8732 -0.9067
13088TIP3   OH260754   6.661   2.070   3.254  0.1243 -0.1845 -0.6976
13088TIP3    H160755   6.642   2.138   3.189 -1.0035  0.8639  0.6683
13088TIP3    H260756   6.755   2.054   3.245 -0.0088 -0.1209 -2.6013
13089TIP3   OH260757   6.181   6.026  16.652  0.3102  0.3254 -0.5565
13089TIP3    H160758   6.216   6.029  16.741 -0.1039 -1.1545 -0.3151
13089TIP3    H260759   6.194   5.935  16.625 -2.6014 -0.1301 -0.7295
13090TIP3   OH260760   2.192   0.650  14.585 -0.4591 -0.5126 -0.5655
13090TIP3    H160761   2.103   0.677  14.608  0.0870  0.6941  0.2998
13090TIP3    H260762   2.227   0.724  14.536  1.3220  0.8610  2.4657
13091TIP3   OH260763   4.377   5.640  12.806  0.2302 -0.3022 -0.5451
13091TIP3    H160764   4.353   5.732  12.791  3.0188  0.4051 -1.2070
13091TIP3    H260765   4.436   5.643  12.881  1.3512 -1.3595 -1.3452
13092TIP3   OH260766   3.983   5.859  15.911 -0.5677 -0.3387  1.2171
13092TIP3    H160767   4.031   5.806  15.974  1.0865  1.3043  1.4410
13092TIP3    H260768   3.967   5.941  15.957  2.5333  1.7465 -0.9735
13093TIP3   OH260769   2.663   2.626   0.374 -0.2336 -0.0950 -0.4777
13093TIP3    H160770   2.654   2.672   0.290 -0.8714 -1.0494 -0.9555
13093TIP3    H260771   2.573   2.606   0.400  0.0498 -2.1856 -0.9453
13094TIP3   OH260772   1.525   1.725  13.771  0.7091  0.1546 -0.4098
13094TIP3    H160773   1.475   1.806  13.759  0.5753  0.5117  2.0688
13094TIP3    H260774   1.506   1.674  13.693  0.5934  2.3842 -1.9454
13095TIP3   OH260775   0.029   1.491  16.335  0.9328  0.0227 -0.6182
13095TIP3    H160776   0.114   1.526  16.309  0.4900  0.2809 -1.7764
13095TIP3    H260777  -0.028   1.510  16.261 -0.0391 -0.5063 -0.0209
13096TIP3   OH260778   1.466   5.924   4.199  0.2614  0.1245 -0.0584
13096TIP3    H160779   1.472   5.997   4.137  0.8693  0.3476  0.2560
13096TIP3    H260780   1.556   5.907   4.225 -0.0606  0.7439  1.5798
13097TIP3   OH260781   4.620   0.595  14.893  0.2011  0.3818  0.0541
13097TIP3    H160782   4.579   0.632  14.815 -1.9370 -1.8987  0.0102
13097TIP3    H260783   4.580   0.643  14.966  2.2759  2.5880 -0.1053
13098TIP3   OH260784   0.284   0.743  16.069  0.5149 -0.0304 -0.5025
13098TIP3    H160785   0.270   0.717  16.161 -1.8340 -0.4264 -0.9148
13098TIP3    H260786   0.268   0.837  16.069  0.1909 -0.0831 -0.5456
13099TIP3   OH260787   0.493   5.022  15.109  0.0063 -0.3860 -0.1709
13099TIP3    H160788   0.466   4.930  15.108  0.6817 -0.6876 -3.2860
13099TIP3    H260789   0.588   5.019  15.111  0.0193  0.2798  0.3860
13100TIP3   OH260790   2.316   2.486  14.506  0.3984 -0.2222  0.0152
13100TIP3    H160791   2.293   2.553  14.570 -0.2768  0.5039 -0.9628
13100TIP3    H260792   2.411   2.496  14.495  0.2727  0.7651 -0.3112
13101TIP3   OH260793   3.148   5.504  14.017  0.5673  0.2801 -0.6071
13101TIP3    H160794   3.243   5.504  14.008  0.4918 -1.5946 -1.8744
13101TIP3    H260795   3.119   5.427  13.969 -1.3937 -0.7733  2.0092
13102TIP3   OH260796   4.087   1.328  13.472  0.2358 -0.4811 -0.4098
13102TIP3    H160797   4.128   1.295  13.552 -1.0537  0.5968  0.7334
13102TIP3    H260798   4.034   1.255  13.440 -0.3865 -0.4524  0.5356
13103TIP3   OH260799   3.330   6.728  17.175 -0.7293  0.1101  0.6420
13103TIP3    H160800   3.320   6.785  17.099 -0.7701 -2.0279 -1.0714
13103TIP3    H260801   3.399   6.769  17.227  1.5496  0.1467 -2.1425
13104TIP3   OH260802   6.663   3.710  16.564  0.6927  0.6745  0.1857
13104TIP3    H160803   6.648   3.711  16.659  0.7770 -0.1875  0.2147
13104TIP3    H260804   6.625   3.792  16.533  0.7949  1.0325  0.9839
13105TIP3   OH260805   1.395   6.485  12.501  0.5103  0.0500  0.2537
13105TIP3    H160806   1.346   6.485  12.583  2.0103  0.3630  1.1831
13105TIP3    H260807   1.328   6.501  12.433 -0.8183 -0.6859  1.3377
13106TIP3   OH260808   2.063   2.874   0.563 -0.0518 -0.0137 -0.0885
13106TIP3    H160809   2.089   2.956   0.605 -0.0108 -0.8321  1.5813
13106TIP3    H260810   2.023   2.822   0.634 -1.6101 -0.7910 -1.4508
13107TIP3   OH260811   0.947   3.274   3.303 -0.1531  0.1626 -0.8395
13107TIP3    H160812   1.025   3.233   3.342 -0.8640 -2.7655 -2.2061
13107TIP3    H260813   0.916   3.210   3.240 -3.4807  1.3886 -0.6269
13108TIP3   OH260814   5.034   1.192  16.858 -0.5578 -0.0418 -0.2463
13108TIP3    H160815   5.033   1.251  16.782  0.1121 -0.1980 -0.3871
13108TIP3    H260816   5.124   1.160  16.862 -0.0453  1.4722  1.8142
13109TIP3   OH260817   3.240   1.989   5.486  0.2840 -0.1378 -0.0228
13109TIP3    H160818   3.284   2.052   5.543 -2.1734  1.0904  0.6306
13109TIP3    H260819   3.275   2.008   5.399 -0.3906  2.2147  0.1420
13110TIP3   OH260820   4.345   1.320  14.762 -0.5994  0.5431 -0.4205
13110TIP3    H160821   4.428   1.366  14.759 -0.3538  0.1018 -0.5682
13110TIP3    H260822   4.297   1.351  14.686 -0.0456 -0.1571 -1.0761
13111TIP3   OH260823   0.598   2.545  15.074  0.4036 -0.1766  0.4250
13111TIP3    H160824   0.649   2.493  15.012 -0.0045 -0.1046  0.0227
13111TIP3    H260825   0.522   2.575  15.024  0.2805  0.2299  0.8457
13112TIP3   OH260826   0.599   5.217  14.759  0.0992  0.1764  0.6944
13112TIP3    H160827   0.548   5.151  14.806  1.8636 -0.3712  1.9431
13112TIP3    H260828   0.640   5.169  14.687 -1.0449  0.6053 -0.2785
13113TIP3   OH260829   4.536   4.448   6.171  0.5272  0.2454  0.4376
13113TIP3    H160830   4.475   4.374   6.179 -1.9420  2.1185 -0.0254
13113TIP3    H260831   4.520   4.501   6.249  0.6839  1.4000 -0.3063
13114TIP3   OH260832   5.149   3.132   4.964  0.2654 -0.4104 -0.1715
13114TIP3    H160833   5.229   3.184   4.970  1.2415 -2.0018  1.7641
13114TIP3    H260834   5.080   3.196   4.952  1.7711  1.0481 -1.5355
13115TIP3   OH260835   1.288   2.497   2.022  0.9156 -0.2545  0.2493
13115TIP3    H160836   1.309   2.414   1.978 -1.8962 -1.1856  0.4618
13115TIP3    H260837   1.294   2.477   2.115  3.2357  0.7109  0.3768
13116TIP3   OH260838   3.308   0.505  15.396 -0.8952  0.3791 -0.1972
13116TIP3    H160839   3.281   0.423  15.354 -0.0984  0.7509 -1.5149
13116TIP3    H260840   3.350   0.478  15.477 -1.5785 -0.4432 -0.1033
13117TIP3   OH260841   4.586   3.237   2.538  0.1139  0.3993  0.1967
13117TIP3    H160842   4.576   3.143   2.524 -0.1100  0.4822 -0.2118
13117TIP3    H260843   4.679   3.248   2.561 -0.2855 -0.1424  2.1872
13118TIP3   OH260844   5.920   5.933   3.039  0.1275 -0.5145 -0.1004
13118TIP3    H160845   5.975   5.922   3.117  1.2598  0.6777 -0.6849
13118TIP3    H260846   5.965   6.001   2.988 -1.1815 -0.4857 -1.2645
13119TIP3   OH260847   2.677   2.803  15.097  0.5473 -0.0925  0.1243
13119TIP3    H160848   2.683   2.742  15.024  0.8871  0.4505 -0.3097
13119TIP3    H260849   2.710   2.755  15.173  0.8470 -0.4274 -0.2205
13120TIP3   OH260850   1.747   1.039  11.334  0.4705  0.3092  0.0302
13120TIP3    H160851   1.666   1.035  11.384  0.6732 -1.4037  0.2676
13120TIP3    H260852   1.795   0.960  11.358  1.0950  0.0061 -1.9712
13121TIP3   OH260853   5.107   1.501   3.244  0.7145  0.4689  0.4962
13121TIP3    H160854   5.073   1.464   3.162  0.2002 -0.0353  0.9283
13121TIP3    H260855   5.167   1.434   3.276 -0.1867  0.0015  1.2592
13122TIP3   OH260856   3.970   5.863   4.672 -0.2482 -0.6707  0.2060
13122TIP3    H160857   4.030   5.790   4.653 -0.9051 -0.9118 -1.0818
13122TIP3    H260858   3.988   5.927   4.604  0.9771  0.8416  1.8693
13123TIP3   OH260859   2.989   6.124   2.972  0.2069  0.1223  0.2246
13123TIP3    H160860   2.983   6.220   2.968 -1.0008  0.0383 -0.9150
13123TIP3    H260861   2.927   6.100   3.041 -0.0821  0.1311 -0.0283
13124TIP3   OH260862   2.090   3.887   4.881  0.3227 -0.1252 -0.3313
13124TIP3    H160863   2.032   3.838   4.939  1.1801 -1.2145 -0.3552
13124TIP3    H260864   2.177   3.848   4.895  1.4799  2.5979  1.0581
13125TIP3   OH260865   1.436   4.508  16.289 -0.0217  0.1613 -0.0176
13125TIP3    H160866   1.436   4.600  16.313 -0.0943 -0.0474  0.7993
13125TIP3    H260867   1.385   4.465  16.358  1.4126 -0.7290  0.5419
13126TIP3   OH260868   0.975   1.759  16.408 -0.3638  0.1394 -0.4511
13126TIP3    H160869   1.069   1.777  16.407 -0.3516  0.0331 -1.2685
13126TIP3    H260870   0.935   1.837  16.369 -0.9262  1.7792  2.9445
13127TIP3   OH260871   2.349   0.814  13.099 -0.2705 -0.1880  0.3861
13127TIP3    H160872   2.259   0.787  13.079  0.5029 -2.5251 -0.1971
13127TIP3    H260873   2.396   0.807  13.016  0.4956  0.9929  0.6894
13128TIP3   OH260874   0.265   5.107  10.191 -0.1958 -0.3224 -0.2586
13128TIP3    H160875   0.341   5.076  10.142 -0.2251  2.2784 -2.2049
13128TIP3    H260876   0.297   5.123  10.279  2.0623  2.2252 -1.3988
13129TIP3   OH260877   4.604   3.935  16.009  0.1930 -0.3722  0.2512
13129TIP3    H160878   4.639   3.997  16.074  1.3201 -0.3399 -0.3502
13129TIP3    H260879   4.672   3.868  16.002 -1.0382 -1.7202  0.9205
13130TIP3   OH260880   0.614   4.709   4.152  0.6206  0.3109 -0.0619
13130TIP3    H160881   0.532   4.758   4.152  0.5156  0.1386 -0.2365
13130TIP3    H260882   0.592   4.627   4.196  0.6305  0.1530 -0.3512
13131TIP3   OH260883   6.180   0.731  14.738  0.5306 -0.3815  0.2631
13131TIP3    H160884   6.127   0.722  14.817 -1.5640 -0.8064 -1.1068
13131TIP3    H260885   6.270   0.740  14.770 -0.4774  2.1634  2.7988
13132TIP3   OH260886   3.838   5.725   3.192 -0.1207 -0.1208 -0.3341
13132TIP3    H160887   3.826   5.820   3.203 -1.3789 -0.2152 -0.6584
13132TIP3    H260888   3.765   5.699   3.136  0.2234 -1.2873 -0.2568
13133TIP3   OH260889   2.372   5.855   4.773 -0.3025  0.2310 -0.1868
13133TIP3    H160890   2.293   5.888   4.729 -0.4552 -0.3263 -0.3347
13133TIP3    H260891   2.404   5.930   4.823 -0.4651  0.7018 -0.7751
13134TIP3   OH260892   0.039   0.373  16.621 -0.1083  0.7229  0.2351
13134TIP3    H160893  -0.035   0.323  16.655 -0.1962  1.3721  1.0328
13134TIP3    H260894   0.036   0.360  16.526 -0.3485 -0.4644  0.3961
13135TIP3   OH260895   3.643   3.395  15.498  0.0668  0.2516 -0.0500
13135TIP3    H160896   3.663   3.377  15.406  1.3520 -1.4916  0.5076
13135TIP3    H260897   3.712   3.456  15.526  1.9871 -2.0653  0.6322
13136TIP3   OH260898   1.150   6.423   5.709 -0.1052  0.1106  0.4116
13136TIP3    H160899   1.056   6.405   5.718 -0.1638 -0.9869 -1.7874
13136TIP3    H260900   1.153   6.507   5.662  0.0667  0.7480  1.5185
13137TIP3   OH260901   6.421   5.576  14.559  0.0505  1.0735 -0.8151
13137TIP3    H160902   6.451   5.491  14.591 -1.5522  0.8561  0.2000
13137TIP3    H260903   6.475   5.640  14.606  0.1494  0.6504 -0.3455
13138TIP3   OH260904   0.594   0.315   2.945 -0.1063  0.1685  0.1484
13138TIP3    H160905   0.566   0.386   3.003 -1.7123 -0.5775  0.3072
13138TIP3    H260906   0.662   0.356   2.890  0.6332  1.1942  1.7532
13139TIP3   OH260907   0.411   5.598  16.705 -0.4386 -0.3073 -0.0397
13139TIP3    H160908   0.451   5.679  16.674  0.0147 -1.7114 -3.5347
13139TIP3    H260909   0.322   5.601  16.669 -1.5917  0.0716  2.6410
13140TIP3   OH260910   4.766   5.375  13.702  0.6015  0.0563  0.3419
13140TIP3    H160911   4.705   5.342  13.635  1.3325 -1.2220  0.2705
13140TIP3    H260912   4.717   5.443  13.748  0.3494  1.5897 -2.0124
13141TIP3   OH260913   1.263   2.635  12.357 -0.2782 -0.1616 -0.4316
13141TIP3    H160914   1.308   2.660  12.275  0.5490 -0.5105 -0.1001
13141TIP3    H260915   1.192   2.578  12.329 -1.5477  1.6764 -1.1145
13142TIP3   OH260916   0.283   2.523  16.138  0.2156 -0.0979  0.0564
13142TIP3    H160917   0.294   2.605  16.089  2.0799 -0.5650 -0.4142
13142TIP3    H260918   0.364   2.475  16.121 -1.3587 -2.6655 -0.8078
13143TIP3   OH260919   4.356   3.696   0.657  0.7223  0.2307  0.1953
13143TIP3    H160920   4.427   3.739   0.609  0.3820  0.0494 -0.4781
13143TIP3    H260921   4.313   3.640   0.592 -0.5177  0.9241  0.3808
13144TIP3   OH260922   1.242   4.044   2.420  0.3314 -0.0076  0.2557
13144TIP3    H160923   1.248   4.087   2.505 -1.0516 -0.4041  0.5857
13144TIP3    H260924   1.157   3.999   2.422  0.3990 -0.2535 -1.2233
13145TIP3   OH260925   3.713   4.164  17.525  0.2641 -0.3266 -0.1746
13145TIP3    H160926   3.778   4.139  17.459  0.4714  3.7790 -1.8412
13145TIP3    H260927   3.678   4.247  17.493 -3.7687 -0.9030  2.1686
13146TIP3   OH260928   4.258   0.535  15.393  0.1220 -0.1089  0.5734
13146TIP3    H160929   4.353   0.526  15.403  0.1784 -2.4219 -1.2257
13146TIP3    H260930   4.247   0.615  15.341  0.9780  0.7088  1.5993
13147TIP3   OH260931   1.784   0.381  15.025 -0.2038 -0.5014  0.4702
13147TIP3    H160932   1.872   0.345  15.039 -0.0142 -0.1411  0.2037
13147TIP3    H260933   1.789   0.471  15.058 -0.2903 -0.2707 -0.1385
13148TIP3   OH260934   6.463   6.252   0.079 -0.9561 -0.5039 -0.3274
13148TIP3    H160935   6.484   6.180   0.020 -0.1195  0.0505 -0.7294
13148TIP3    H260936   6.456   6.328   0.022  0.7205  0.2076  0.3424
13149TIP3   OH260937   0.514   5.506  13.510 -0.5084  0.3223  0.5850
13149TIP3    H160938   0.569   5.470  13.580 -0.3785  0.8136  0.7423
13149TIP3    H260939   0.446   5.556  13.556 -2.7295 -2.4152  0.5420
13150TIP3   OH260940   0.576   5.981   6.571 -0.9551 -0.6647  0.4768
13150TIP3    H160941   0.482   5.965   6.579 -0.7656 -2.2022 -0.0799
13150TIP3    H260942   0.612   5.900   6.535  0.7407 -0.5049  1.6581
13151TIP3   OH260943   4.476   6.056   3.485  0.4115  0.1690 -0.0380
13151TIP3    H160944   4.503   6.148   3.481  0.2230  0.2146 -0.3202
13151TIP3    H260945   4.392   6.059   3.532 -1.5559  0.6213 -3.2448
13152TIP3   OH260946   0.841   3.877  11.367 -0.6179 -0.0977  0.2207
13152TIP3    H160947   0.910   3.837  11.420 -0.3646  1.4045  1.0567
13152TIP3    H260948   0.875   3.963  11.343 -1.3315 -0.1819 -1.1900
13153TIP3   OH260949   5.439   4.635  14.811  0.8436 -0.6346  0.2957
13153TIP3    H160950   5.495   4.683  14.872  0.7932  0.1578 -0.2669
13153TIP3    H260951   5.371   4.698  14.786  0.3778 -1.2158  0.0648
13154TIP3   OH260952   2.099   2.399  11.124 -0.3652 -0.1201  0.0285
13154TIP3    H160953   2.124   2.384  11.215 -1.3611 -0.1753  0.3003
13154TIP3    H260954   2.004   2.385  11.122 -0.1242 -1.8943 -1.3886
13155TIP3   OH260955   5.417   4.422  13.189  0.0596  0.2558  0.1772
13155TIP3    H160956   5.453   4.502  13.226  1.3981  0.4171 -1.3582
13155TIP3    H260957   5.422   4.434  13.094 -3.5987  0.0300 -0.1818
13156TIP3   OH260958   0.484   5.219  14.376  0.2309 -0.1558 -0.3888
13156TIP3    H160959   0.551   5.159  14.409  1.3368 -0.4664 -2.9521
13156TIP3    H260960   0.490   5.296  14.433  1.1564 -1.0869  0.8323
13157TIP3   OH260961   6.021   6.640  13.018  0.2772 -0.0414  0.3489
13157TIP3    H160962   6.092   6.704  13.030 -0.0555  0.4228 -0.0899
13157TIP3    H260963   6.048   6.589  12.941  0.0191  0.3028  0.0268
13158TIP3   OH260964   1.390   0.622  15.236  0.2207 -0.4529  0.6511
13158TIP3    H160965   1.371   0.534  15.270 -2.2107 -1.5577 -2.9484
13158TIP3    H260966   1.471   0.610  15.184  0.8756 -0.0892  1.5648
13159TIP3   OH260967   5.743   3.127  11.818 -0.2922 -0.2876 -0.2552
13159TIP3    H160968   5.812   3.179  11.777 -1.3964  1.0418 -0.4702
13159TIP3    H260969   5.705   3.186  11.883 -1.6259 -0.7887 -0.5646
13160TIP3   OH260970   3.199   2.334  12.723  0.4526  0.2432  0.0095
13160TIP3    H160971   3.171   2.245  12.700 -0.9837  1.3142 -2.8087
13160TIP3    H260972   3.242   2.367  12.645  1.1765  1.9791  1.0832
13161TIP3   OH260973   0.281   1.095   1.947 -0.6246  0.0136  0.3693
13161TIP3    H160974   0.222   1.057   1.881 -1.5393  0.8660  0.6742
13161TIP3    H260975   0.308   1.179   1.909 -1.0068  0.4232  0.9963
13162TIP3   OH260976   1.194   4.173  13.690  0.0924  0.1595  0.2631
13162TIP3    H160977   1.281   4.133  13.699 -0.0632 -0.0666  0.7879
13162TIP3    H260978   1.178   4.214  13.774 -0.1059  0.6268 -0.0019
13163TIP3   OH260979   2.996   3.016   2.160 -0.1641  0.3462 -0.8176
13163TIP3    H160980   3.059   3.018   2.231  0.1040  0.1013 -1.0444
13163TIP3    H260981   3.006   2.928   2.122 -0.3915  0.4314 -1.0784
13164TIP3   OH260982   5.496   1.754   5.820  0.1418  0.2855  0.3356
13164TIP3    H160983   5.517   1.841   5.854 -1.3598  0.4879  0.8397
13164TIP3    H260984   5.503   1.696   5.896 -3.1322  0.7232  1.1084
13165TIP3   OH260985   3.625   3.984   4.255 -0.2690 -0.7227 -0.8042
13165TIP3    H160986   3.543   3.979   4.304  1.2936 -1.2807  1.9889
13165TIP3    H260987   3.648   3.893   4.238 -0.0065 -0.5869 -1.1844
13166TIP3   OH260988   3.728   6.429  12.371  0.0260 -0.2464  0.1446
13166TIP3    H160989   3.798   6.495  12.373 -1.0106  0.8673  1.1741
13166TIP3    H260990   3.774   6.345  12.369  1.3878  0.4643  0.3883
13167TIP3   OH260991   0.585   0.281  13.254 -0.5715  0.0175  0.2344
13167TIP3    H160992   0.637   0.255  13.330  0.9421  0.4892 -0.6151
13167TIP3    H260993   0.538   0.359  13.282 -0.3027 -0.0218  0.8025
13168TIP3   OH260994   6.509   5.756  12.073  0.8398  0.1698 -0.0744
13168TIP3    H160995   6.601   5.736  12.059  0.7474  0.1078 -0.6241
13168TIP3    H260996   6.470   5.754  11.985  0.1161 -0.7955  0.2476
13169TIP3   OH260997   1.491   1.356   0.446 -0.0228 -0.6264 -0.3896
13169TIP3    H160998   1.414   1.377   0.499 -0.5292 -1.3112 -0.8424
13169TIP3    H260999   1.550   1.312   0.506  0.0223 -0.0860 -0.0346
13170TIP3   OH261000   3.956   6.559   5.057 -0.1049  0.1021 -0.3986
13170TIP3    H161001   3.950   6.597   4.969 -3.5847  0.3001 -0.2183
13170TIP3    H261002   3.966   6.465   5.040 -0.5531  0.1564 -1.0248
13171TIP3   OH261003   4.609   0.316   0.529  0.3303  0.1469  0.4308
13171TIP3    H161004   4.612   0.363   0.446 -0.2300  0.2485  0.4601
13171TIP3    H261005   4.619   0.384   0.595 -1.0543  0.3298  0.4912
13172TIP3   OH261006   0.089   1.879   6.525  0.0126 -0.1297  0.1197
13172TIP3    H161007   0.067   1.967   6.492 -0.1559  0.2917  1.3065
13172TIP3    H261008   0.040   1.819   6.468 -0.7128  0.5944 -0.0346
13173TIP3   OH261009   3.643   2.431  13.216  0.4512 -0.3699 -0.0847
13173TIP3    H161010   3.624   2.381  13.295 -0.4740  1.1015  0.6685
13173TIP3    H261011   3.597   2.383  13.146 -0.1796 -0.7260  0.5594
13174TIP3   OH261012   1.932   1.479  11.567 -0.2846  0.1785  0.3785
13174TIP3    H161013   1.986   1.416  11.615  0.4392 -0.4581 -1.1906
13174TIP3    H261014   1.986   1.558  11.561  0.1532 -0.1640 -0.4283
13175TIP3   OH261015   4.364   0.251  15.720 -0.3614 -0.1515 -0.7023
13175TIP3    H161016   4.390   0.343  15.712 -0.3498 -0.2620 -2.2530
13175TIP3    H261017   4.273   0.250  15.689 -0.8758 -0.4368  0.7418
13176TIP3   OH261018   3.222   1.261   0.473 -0.0723 -0.6787  0.1056
13176TIP3    H161019   3.295   1.299   0.423  0.2628  1.4774  2.0249
13176TIP3    H261020   3.247   1.171   0.489  2.0059 -0.1090  0.3128
13177TIP3   OH261021   5.499   0.693   3.074  0.3329  0.3472  0.0132
13177TIP3    H161022   5.548   0.719   2.996  0.1219 -0.8703 -0.5402
13177TIP3    H261023   5.412   0.671   3.042  0.5686 -1.2775  0.3920
13178TIP3   OH261024   4.960   3.145  17.449  0.2477  0.7843  0.4058
13178TIP3    H161025   4.981   3.118  17.539  5.0966 -0.0853 -0.7290
13178TIP3    H261026   4.908   3.072  17.414  0.5149 -0.0987  1.7475
13179TIP3   OH261027   2.973   1.061  15.565 -0.5104  0.4463  0.3430
13179TIP3    H161028   3.053   1.047  15.514  0.9497  0.8831  2.4046
13179TIP3    H261029   2.921   1.121  15.512  0.4716  0.0948 -1.0766
13180TIP3   OH261030   6.618   4.783   1.308  0.4617  0.2500 -0.1468
13180TIP3    H161031   6.677   4.777   1.383  2.1425 -1.4116 -1.5182
13180TIP3    H261032   6.537   4.742   1.338  0.8996  0.1458  0.9281
13181TIP3   OH261033   4.344   1.204   3.182 -0.1667 -0.1455 -0.2458
13181TIP3    H161034   4.397   1.140   3.134 -0.6573 -1.9625  1.4793
13181TIP3    H261035   4.390   1.287   3.171  2.7625 -1.5010  0.7059
13182TIP3   OH261036   2.453   0.303  16.501  0.4964 -0.3119 -0.1110
13182TIP3    H161037   2.546   0.327  16.501  1.4231 -3.3730  1.3677
13182TIP3    H261038   2.435   0.280  16.592 -1.6391 -0.1965 -0.4600
13183TIP3   OH261039   2.881   3.056  15.164  0.1524 -0.2232 -0.8260
13183TIP3    H161040   2.863   3.123  15.097 -0.9890  1.5255  1.1282
13183TIP3    H261041   2.806   3.060  15.223  1.0140 -1.8870  0.4694
13184TIP3   OH261042   4.940   6.632   1.291 -0.4713 -0.4306  0.0678
13184TIP3    H161043   4.867   6.607   1.234 -0.6002  2.3939 -1.1494
13184TIP3    H261044   4.899   6.665   1.370 -0.3833 -1.1716  0.4383
13185TIP3   OH261045   1.602   6.559   3.481  0.3655  0.3430 -0.1999
13185TIP3    H161046   1.697   6.571   3.475  0.3943  0.0948 -0.2386
13185TIP3    H261047   1.590   6.499   3.554  0.0608  2.7697  1.8706
13186TIP3   OH261048   0.217   1.005  16.448  1.0675 -0.3418  0.4362
13186TIP3    H161049   0.133   1.046  16.426  1.7996  0.3005 -1.3845
13186TIP3    H261050   0.209   0.983  16.540 -1.1457 -0.4092  0.2975
13187TIP3   OH261051   4.727   5.432  11.996  0.3406 -0.1986 -0.2765
13187TIP3    H161052   4.750   5.424  12.088  0.5708 -0.6469 -0.3673
13187TIP3    H261053   4.810   5.426  11.949  0.3968  1.4801 -0.4580
13188TIP3   OH261054   6.511   6.263  13.359 -0.0701 -0.2204 -0.2674
13188TIP3    H161055   6.602   6.269  13.388 -0.4236  2.0706  0.5732
13188TIP3    H261056   6.488   6.352  13.333 -2.4870 -0.4500  0.8440
13189TIP3   OH261057   0.099   5.685   2.892 -0.3892 -0.2059 -0.0333
13189TIP3    H161058   0.042   5.699   2.816 -1.1038 -0.1272  0.5075
13189TIP3    H261059   0.184   5.659   2.854 -1.0636 -1.3472 -0.8366
13190TIP3   OH261060   3.002   2.027  12.971  0.2240  0.4648 -0.4322
13190TIP3    H161061   3.078   2.085  12.982  1.0860 -0.4215 -1.4550
13190TIP3    H261062   2.929   2.086  12.953  0.7665  1.3109  0.0509
13191TIP3   OH261063   4.092   3.549  16.894  0.3327  0.2272 -0.1658
13191TIP3    H161064   4.137   3.466  16.905  1.6890  0.9248 -0.2382
13191TIP3    H261065   4.122   3.603  16.967 -0.8638  0.5338  0.1319
13192TIP3   OH261066   2.503   6.053   5.225  0.0897  0.0198  0.1289
13192TIP3    H161067   2.547   6.119   5.279 -0.9852  0.9773 -0.1349
13192TIP3    H261068   2.492   6.095   5.140  0.0649 -0.7877 -0.2746
13193TIP3   OH261069   0.427   3.143   5.041  0.2137 -0.1691 -0.0820
13193TIP3    H161070   0.426   3.057   4.999 -0.8721  0.6772 -1.9373
13193TIP3    H261071   0.505   3.142   5.097  0.9790 -1.8544 -1.0973
13194TIP3   OH261072   0.958   2.762  17.318 -0.2723  0.5951 -0.2706
13194TIP3    H161073   0.962   2.763  17.414  1.1839  0.2732 -0.2925
13194TIP3    H261074   0.939   2.852  17.293  2.2508  1.3611  0.2841
13195TIP3   OH261075   5.212   2.492   4.946  0.2541 -0.0540 -0.4258
13195TIP3    H161076   5.244   2.475   4.858  2.4784  0.0579  0.3067
13195TIP3    H261077   5.282   2.462   5.004 -0.0269  2.1596  1.2153
13196TIP3   OH261078   4.124   2.362   6.127 -0.3360  0.2049  0.3840
13196TIP3    H161079   4.183   2.410   6.069  0.6759 -0.1541  1.0683
13196TIP3    H261080   4.156   2.383   6.215 -1.1723 -0.0828  0.7629
13197TIP3   OH261081   0.430   2.480   5.986  0.0235 -0.7392  0.0317
13197TIP3    H161082   0.387   2.400   5.956 -1.1009  0.2032 -0.9680
13197TIP3    H261083   0.366   2.523   6.042 -0.0030  0.2329 -0.7265
13198TIP3   OH261084   2.627   3.348   1.566  0.4536  0.1542 -0.1582
13198TIP3    H161085   2.713   3.386   1.546  0.7147  0.2850  1.1269
13198TIP3    H261086   2.566   3.422   1.563  0.4258  0.1132 -0.7665
13199TIP3   OH261087   4.583   0.782   5.705  0.4367 -0.1759 -0.1696
13199TIP3    H161088   4.551   0.709   5.652 -1.2195  0.9940 -0.8259
13199TIP3    H261089   4.550   0.763   5.793 -0.5725  0.1008 -0.4746
13200TIP3   OH261090   5.875   6.029   6.187  0.1299  0.1032 -0.3198
13200TIP3    H161091   5.944   6.083   6.226 -0.4244  0.5053  0.1381
13200TIP3    H261092   5.889   6.036   6.093 -2.2787  4.4703 -0.6361
13201TIP3   OH261093   5.975   0.239  14.251  0.3146 -0.2730 -0.1706
13201TIP3    H161094   5.930   0.222  14.168  0.1000  0.9748 -0.3391
13201TIP3    H261095   6.036   0.166  14.261 -1.6792 -2.0158  0.0405
13202TIP3   OH261096   1.871   6.488   2.804 -0.2732 -0.3519  0.2450
13202TIP3    H161097   1.819   6.441   2.739 -0.1362 -0.5507  0.2788
13202TIP3    H261098   1.806   6.530   2.861 -0.4016 -0.7670  0.4098
13203TIP3   OH261099   3.704   0.853  12.206  0.0814  0.2976 -0.1734
13203TIP3    H161100   3.782   0.797  12.210  0.6688  1.1311  0.2429
13203TIP3    H261101   3.655   0.833  12.285  0.0730  0.0581 -0.2395
13204TIP3   OH261102   2.492   3.253  16.364  0.0695 -0.1291  0.1428
13204TIP3    H161103   2.442   3.199  16.303  0.4180 -1.4808  1.0040
13204TIP3    H261104   2.546   3.191  16.413  0.6616  1.0310  1.0323
13205TIP3   OH261105   0.340   3.655   6.678 -0.6523 -0.4032  0.6070
13205TIP3    H161106   0.336   3.570   6.721  0.5236 -1.3511 -1.0221
13205TIP3    H261107   0.433   3.679   6.681 -0.5304 -0.4934 -1.2576
13206TIP3   OH261108   1.826   6.744   5.888  0.2428 -0.1584  0.0698
13206TIP3    H161109   1.794   6.834   5.888 -0.7880 -0.5110  0.4753
13206TIP3    H261110   1.836   6.722   5.980 -0.4046 -0.7558  0.0102
13207TIP3   OH261111   6.229   3.092  16.973  0.2368 -0.8138 -0.1556
13207TIP3    H161112   6.265   3.009  17.005 -1.1514 -1.0167  0.9659
13207TIP3    H261113   6.293   3.122  16.909  1.1205 -2.3987 -0.0753
13208TIP3   OH261114   6.368   3.177   0.086 -0.1515 -0.0591 -0.4279
13208TIP3    H161115   6.394   3.100   0.035 -0.9411  0.4799 -1.7091
13208TIP3    H261116   6.380   3.250   0.025 -3.0452  0.3860 -0.5699
13209TIP3   OH261117   0.903   3.680   6.617 -0.4220 -0.1819 -0.4174
13209TIP3    H161118   0.921   3.705   6.526 -0.9693 -0.0110 -0.4814
13209TIP3    H261119   0.984   3.700   6.664 -0.4835  0.7263 -0.6769
13210TIP3   OH261120   1.710   5.181  15.895  0.5064 -0.6630  0.0366
13210TIP3    H161121   1.727   5.210  15.985 -0.8307 -0.3366  0.2053
13210TIP3    H261122   1.615   5.180  15.888  0.5922 -0.9484 -1.3035
13211TIP3   OH261123   5.290   6.758  14.200 -0.0157  0.4136 -0.0115
13211TIP3    H161124   5.372   6.781  14.243 -0.1834  0.5717  0.2233
13211TIP3    H261125   5.316   6.700  14.128  0.3747  1.0097 -0.3634
13212TIP3   OH261126   2.960   0.974   4.679 -0.0936  0.0412  0.5234
13212TIP3    H161127   2.944   0.934   4.764  2.2661  1.5549  1.7698
13212TIP3    H261128   2.916   1.059   4.683  0.4458  0.3269  0.4235
13213TIP3   OH261129   1.435   6.505   6.840  0.0699 -0.0432  0.1475
13213TIP3    H161130   1.377   6.432   6.821  1.8074 -1.7158  0.9592
13213TIP3    H261131   1.464   6.536   6.754  1.0590 -1.8242 -0.2099
13214TIP3   OH261132   4.764   3.996  13.749  0.5200  0.3607 -0.4542
13214TIP3    H161133   4.753   3.944  13.828  4.6003  2.5456  1.8870
13214TIP3    H261134   4.790   3.932  13.682  4.3472 -1.0325  2.0247
13215TIP3   OH261135   0.460   2.617   5.743 -0.2935 -0.3577 -0.0169
13215TIP3    H161136   0.446   2.543   5.684 -0.4580 -0.8718  0.6488
13215TIP3    H261137   0.440   2.582   5.830  1.3483 -0.0280  0.5262
13216TIP3   OH261138   4.437   6.728  13.411 -0.3570 -0.1897 -0.3650
13216TIP3    H161139   4.453   6.738  13.505  0.6818  1.1458 -0.6556
13216TIP3    H261140   4.517   6.759  13.370 -1.0176 -0.2319 -1.7147
13217TIP3   OH261141   3.749   6.054   1.985  0.1742  0.4200 -0.1802
13217TIP3    H161142   3.807   6.086   1.916  0.2851  1.1861  0.2506
13217TIP3    H261143   3.790   6.085   2.066 -0.2450  0.0033  0.1913
13218TIP3   OH261144   0.403   3.884  14.528 -0.7623 -0.2347 -0.0409
13218TIP3    H161145   0.384   3.874  14.434 -0.7748  0.8958 -0.1682
13218TIP3    H261146   0.486   3.931  14.531 -0.6731 -0.4202  0.5209
13219TIP3   OH261147   6.760   3.587  11.439  0.4715 -0.4765 -0.5173
13219TIP3    H161148   6.699   3.538  11.495  1.0385 -0.4896  0.1052
13219TIP3    H261149   6.761   3.538  11.357 -1.6840  0.4977 -1.1791
13220TIP3   OH261150   6.576   6.730   3.836 -0.6070  0.5874  0.0687
13220TIP3    H161151   6.515   6.657   3.835 -1.3646  1.2010  0.4105
13220TIP3    H261152   6.535   6.797   3.781 -1.6450  2.0834  2.5226
13221TIP3   OH261153   3.419   2.650  12.585  0.4324  0.1156  0.2717
13221TIP3    H161154   3.333   2.622  12.552  0.4312 -1.4340  1.4769
13221TIP3    H261155   3.470   2.666  12.505 -0.2910 -1.1979 -0.4995
13222TIP3   OH261156   4.545   5.276   5.390 -0.2102  0.1812 -0.0612
13222TIP3    H161157   4.530   5.210   5.323 -0.3427 -0.7308  0.8412
13222TIP3    H261158   4.471   5.336   5.382 -1.3388 -1.0742  0.5943
13223TIP3   OH261159   5.361   3.561   6.914  0.3262  0.1302  0.3911
13223TIP3    H161160   5.295   3.629   6.898  1.9675  2.0470  1.3156
13223TIP3    H261161   5.315   3.494   6.964 -1.1872  0.8612  0.0462
13224TIP3   OH261162   5.887   6.334  11.786  0.0347 -0.2062 -0.5056
13224TIP3    H161163   5.931   6.341  11.870  2.3547 -1.9161 -1.4794
13224TIP3    H261164   5.845   6.419  11.774  1.8473  1.0250  1.1896
13225TIP3   OH261165   6.104   5.497  16.728  0.2098  0.4043  0.4232
13225TIP3    H161166   6.102   5.580  16.777  1.3591  0.9774 -0.4499
13225TIP3    H261167   6.191   5.495  16.688  0.2630 -1.3186  0.5534
13226TIP3   OH261168   2.569   2.120   5.212 -0.1369  0.1440  0.2006
13226TIP3    H161169   2.634   2.071   5.263 -0.2606 -0.2657 -0.0336
13226TIP3    H261170   2.584   2.093   5.122  0.8094  1.6770 -0.1548
13227TIP3   OH261171   6.006   4.500  11.733 -0.6712  0.2309  0.8457
13227TIP3    H161172   6.002   4.562  11.805 -0.2211 -0.8653  1.8457
13227TIP3    H261173   5.947   4.429  11.758 -0.8415  0.0285 -0.0688
13228TIP3   OH261174   6.123   1.608  16.634  0.2613  0.1600 -0.5837
13228TIP3    H161175   6.076   1.690  16.616 -0.3315 -0.3725 -1.5390
13228TIP3    H261176   6.082   1.574  16.714  0.1343  0.5157 -0.4970
13229TIP3   OH261177   5.469   6.197   4.650  0.1269  0.2332 -0.5650
13229TIP3    H161178   5.485   6.291   4.657  0.8176  0.4150 -3.3880
13229TIP3    H261179   5.374   6.189   4.642 -0.0782  0.4961  1.1534
13230TIP3   OH261180   2.440   2.845  13.956 -0.6561  0.2930 -0.1392
13230TIP3    H161181   2.489   2.838  13.874 -1.8209 -1.1300 -0.7671
13230TIP3    H261182   2.449   2.759  13.997 -3.5137 -0.4779 -0.8704
13231TIP3   OH261183   5.846   6.557  16.173 -0.3523  0.0134  0.4262
13231TIP3    H161184   5.822   6.488  16.112 -2.5998  0.3412  0.8367
13231TIP3    H261185   5.878   6.511  16.250 -1.4615 -0.5998  0.5468
13232TIP3   OH261186   6.301   6.019  14.271 -0.0284 -0.1101  0.3471
13232TIP3    H161187   6.347   5.991  14.350  0.9942  1.2902  0.2934
13232TIP3    H261188   6.213   5.983  14.279  0.8474 -2.2658  0.8226
13233TIP3   OH261189   0.571   5.727   1.774  0.6380 -0.1434  0.1091
13233TIP3    H161190   0.664   5.733   1.795  0.7233 -0.4150 -0.1844
13233TIP3    H261191   0.549   5.635   1.786  0.2756  0.0155  0.7078
13234TIP3   OH261192   0.424   0.661   3.284 -0.3130  0.0618  0.2528
13234TIP3    H161193   0.412   0.755   3.269  2.7701  0.3041 -1.5197
13234TIP3    H261194   0.470   0.630   3.206 -1.7386 -3.1081  0.5200
13235TIP3   OH261195   1.779   6.370   5.550  0.1084  0.8734 -0.2644
13235TIP3    H161196   1.836   6.294   5.534 -1.8085 -0.5244 -0.7947
13235TIP3    H261197   1.840   6.441   5.570  1.9417 -1.1305  1.8404
13236TIP3   OH261198   2.318   0.008  16.940 -0.0429  0.3409 -0.2384
13236TIP3    H161199   2.347   0.000  17.031  1.4889  1.7291 -0.5497
13236TIP3    H261200   2.274   0.093  16.936 -0.9904 -0.1602 -0.5828
13237TIP3   OH261201   4.188   2.797   6.343 -0.0069  0.3323 -0.3442
13237TIP3    H161202   4.238   2.859   6.397 -0.5837  0.3642  0.1672
13237TIP3    H261203   4.253   2.733   6.313  0.1579 -0.3085  1.2751
13238TIP3   OH261204   2.460   0.868   1.599 -0.3563  0.1428 -0.2201
13238TIP3    H161205   2.448   0.777   1.572  1.1185 -0.6702  1.6208
13238TIP3    H261206   2.373   0.907   1.593 -0.4889 -0.2827 -4.4834
13239TIP3   OH261207   0.893   1.713   1.160  0.8016 -0.2501  0.1947
13239TIP3    H161208   0.891   1.772   1.085 -0.2344 -0.5046  0.0010
13239TIP3    H261209   0.806   1.672   1.160 -0.1367  1.4980  2.9198
13240TIP3   OH261210   1.401   0.699   0.191 -0.5674  0.1226  0.3664
13240TIP3    H161211   1.364   0.787   0.199 -0.1235  0.2267  1.4433
13240TIP3    H261212   1.339   0.643   0.238 -1.0164 -0.2068 -0.5863
13241TIP3   OH261213   1.238   4.610  11.658  0.2623 -0.4692 -0.1860
13241TIP3    H161214   1.331   4.604  11.678  0.3308  1.4147  0.2934
13241TIP3    H261215   1.194   4.588  11.739  0.4023  1.2620  0.4129
13242TIP3   OH261216   5.593   3.600  10.924  0.2603 -0.3868  0.2106
13242TIP3    H161217   5.525   3.533  10.934  0.5626 -0.9391 -1.2138
13242TIP3    H261218   5.558   3.661  10.860  0.5048  0.1551  0.5825
13243TIP3   OH261219   4.826   3.760   3.799  0.4385 -0.1554  0.2683
13243TIP3    H161220   4.814   3.788   3.708 -0.2980  0.5629  0.5693
13243TIP3    H261221   4.903   3.809   3.828  0.7790 -0.5184 -0.0188
13244TIP3   OH261222   3.997   0.829   1.463 -0.7457 -0.6613 -0.4397
13244TIP3    H161223   3.904   0.851   1.457 -0.1202  2.6949  0.2067
13244TIP3    H261224   4.013   0.814   1.556 -0.6055 -1.2380 -0.5494
13245TIP3   OH261225   4.529   1.517  14.584 -0.1228  0.6546  0.1358
13245TIP3    H161226   4.538   1.467  14.503  0.7361  1.6634 -0.4172
13245TIP3    H261227   4.467   1.587  14.562 -1.4111 -0.1946  0.9383
13246TIP3   OH261228   0.841   4.502   5.415  0.7262  0.0419  0.3143
13246TIP3    H161229   0.827   4.476   5.324  0.1096 -0.8080  0.6385
13246TIP3    H261230   0.932   4.480   5.432  0.8897  0.3472 -0.1323
13247TIP3   OH261231   5.446   2.782   3.056  0.2288  0.0014  0.1270
13247TIP3    H161232   5.375   2.843   3.076  0.2971  0.1592 -0.1080
13247TIP3    H261233   5.525   2.836   3.055  0.4059 -0.2383  0.7570
13248TIP3   OH261234   6.693   3.110  16.910 -0.3134  0.0726 -0.1270
13248TIP3    H161235   6.649   3.195  16.912  0.7355  0.6304  0.3313
13248TIP3    H261236   6.775   3.127  16.862 -0.1113 -0.6835 -0.0619
13249TIP3   OH261237   1.460   1.562   0.737  0.4965 -0.5057 -0.0448
13249TIP3    H161238   1.533   1.516   0.695  0.4860 -0.2694 -0.3329
13249TIP3    H261239   1.461   1.649   0.697 -0.0063 -0.5320 -0.1287
13250TIP3   OH261240   6.528   4.441   2.735 -0.1492  0.2033  0.3292
13250TIP3    H161241   6.475   4.479   2.665 -0.5372  0.2953  0.6680
13250TIP3    H261242   6.464   4.403   2.796  0.0684  1.6835  1.5450
13251TIP3   OH261243   2.424   0.362  12.193 -0.0990 -0.0986  0.7188
13251TIP3    H161244   2.386   0.408  12.268  2.2935  1.1687  1.2314
13251TIP3    H261245   2.384   0.403  12.117 -2.3869 -1.2398  1.2207
13252TIP3   OH261246   3.534   2.989   5.831  0.0659  0.7501  0.0317
13252TIP3    H161247   3.606   3.046   5.855 -0.8478  1.5151  1.0105
13252TIP3    H261248   3.493   2.965   5.914 -2.7123  2.8610 -0.5719
13253TIP3   OH261249   2.249   3.060   6.085 -0.0921 -0.3167  0.1357
13253TIP3    H161250   2.162   3.080   6.050 -0.2799 -0.6798  0.3952
13253TIP3    H261251   2.257   2.965   6.079  0.2433 -0.2969  0.2179
13254TIP3   OH261252   3.313   3.724  16.816 -0.0091  0.0615  0.0928
13254TIP3    H161253   3.391   3.762  16.857 -0.3630 -0.4923  1.3485
13254TIP3    H261254   3.295   3.781  16.742  0.8712  0.9266  0.5164
13255TIP3   OH261255   0.191   5.037  16.783 -0.2561  0.4925 -0.1642
13255TIP3    H161256   0.171   5.018  16.874 -0.1509 -0.8934 -0.3986
13255TIP3    H261257   0.223   5.127  16.783  0.6402  0.2129  1.3060
13256TIP3   OH261258   3.119   0.321  16.702 -1.2282 -0.3746 -0.0519
13256TIP3    H161259   3.173   0.274  16.765 -0.6292 -0.5538 -0.6848
13256TIP3    H261260   3.060   0.374  16.755  0.4702  0.8719  0.6805
13257TIP3   OH261261   4.537   6.328   3.754 -0.2046 -0.5613  0.4111
13257TIP3    H161262   4.544   6.420   3.780 -0.7921  0.7150 -3.4207
13257TIP3    H261263   4.521   6.282   3.836  0.5016  2.6523  2.5611
13258TIP3   OH261264   1.845   6.525  16.318 -0.0158  0.0052  0.9411
13258TIP3    H161265   1.895   6.605  16.303 -1.6804  1.4359  2.5503
13258TIP3    H261266   1.816   6.532  16.409 -0.5250 -2.2750  1.0039
13259TIP3   OH261267   3.220   0.499   4.422 -0.1252  0.1470  0.0334
13259TIP3    H161268   3.206   0.458   4.336 -3.6333 -0.0446  0.5469
13259TIP3    H261269   3.198   0.431   4.485 -2.1630  1.5269  0.9495
13260TIP3   OH261270   1.974   5.853   0.674  0.1527  0.1708  0.3566
13260TIP3    H161271   2.009   5.774   0.635 -2.3259 -0.2633 -1.2086
13260TIP3    H261272   1.948   5.827   0.763  0.9898 -0.2677  0.4791
13261TIP3   OH261273   4.014   2.928   5.349 -0.2580  0.4351 -0.1149
13261TIP3    H161274   4.073   2.997   5.380  0.5368 -0.3555  0.1536
13261TIP3    H261275   3.937   2.935   5.406 -0.0528  0.9017  0.1103
13262TIP3   OH261276   5.485   4.062   1.793 -0.4716  0.5353 -0.1892
13262TIP3    H161277   5.492   3.990   1.855  1.2822 -0.2429 -1.2183
13262TIP3    H261278   5.421   4.033   1.728 -2.1339  1.2570  1.0661
13263TIP3   OH261279   0.059   3.796   2.825 -0.0842  0.3482 -0.8563
13263TIP3    H161280   0.097   3.864   2.768  0.8274  0.6200  0.0397
13263TIP3    H261281   0.001   3.844   2.884 -0.9451  0.0811 -1.4748
13264TIP3   OH261282   0.431   0.438   5.381  0.3647  0.0515 -0.0921
13264TIP3    H161283   0.487   0.417   5.455  0.7405 -0.2254 -0.4533
13264TIP3    H261284   0.422   0.356   5.333  0.0819  0.2172 -0.3261
13265TIP3   OH261285   6.250   0.218  13.966  0.3415  0.1628 -0.7825
13265TIP3    H161286   6.256   0.313  13.978 -2.1665  0.3706 -0.5572
13265TIP3    H261287   6.260   0.205  13.872 -0.0444  0.7557 -0.9118
13266TIP3   OH261288   2.309   1.296   0.737  0.3857  0.0535  0.5413
13266TIP3    H161289   2.328   1.210   0.773 -0.9854 -0.9450 -0.9482
13266TIP3    H261290   2.383   1.315   0.679  0.7932 -0.0210  1.0349
13267TIP3   OH261291   6.600   0.212  16.673 -0.5095 -0.2720 -0.0971
13267TIP3    H161292   6.673   0.150  16.669 -0.3651 -0.0496 -1.9563
13267TIP3    H261293   6.522   0.157  16.679 -0.2428 -0.5052  2.8856
13268TIP3   OH261294   1.842   4.062   4.219 -0.0633 -0.0800 -0.4021
13268TIP3    H161295   1.851   3.998   4.290  1.0961  1.0813  0.5514
13268TIP3    H261296   1.761   4.037   4.175 -1.0856 -0.5868  1.6136
13269TIP3   OH261297   3.111   5.421  12.860  0.1828  0.2321 -0.1230
13269TIP3    H161298   3.078   5.332  12.850 -1.6414  0.6803  1.2883
13269TIP3    H261299   3.162   5.419  12.941 -1.4788  0.8431  0.9848
13270TIP3   OH261300   3.306   3.287   0.037  0.2105  0.3156  0.2320
13270TIP3    H161301   3.382   3.253  -0.009  1.0409  1.2836  0.8570
13270TIP3    H261302   3.333   3.373   0.069 -2.3902  2.5467 -2.9322
13271TIP3   OH261303   2.661   0.618  15.753  0.3203 -0.4193 -0.2002
13271TIP3    H161304   2.677   0.710  15.731 -1.7124 -0.2159 -1.0410
13271TIP3    H261305   2.739   0.572  15.721  1.2632  0.9718  0.0222
13272TIP3   OH261306   1.510   1.292   1.474  0.5131 -0.3854  0.7520
13272TIP3    H161307   1.562   1.227   1.426 -0.4798 -0.3648 -0.4046
13272TIP3    H261308   1.477   1.351   1.406  1.3037  1.3038  1.7543
13273TIP3   OH261309   3.586   4.159   1.396  0.0068 -0.0266  0.1558
13273TIP3    H161310   3.576   4.065   1.411 -1.2376 -0.2735 -1.7698
13273TIP3    H261311   3.624   4.165   1.308 -0.5546  1.2613 -0.0203
13274TIP3   OH261312   4.410   3.335  11.904 -0.2544  0.3274  0.3340
13274TIP3    H161313   4.362   3.413  11.932 -0.4147  0.0239  0.9171
13274TIP3    H261314   4.453   3.303  11.983 -2.4627 -1.7802  0.8252
13275TIP3   OH261315   1.208   4.123   6.447 -0.2917 -0.0044  0.1096
13275TIP3    H161316   1.183   4.058   6.512  2.3606 -2.3802 -1.0402
13275TIP3    H261317   1.275   4.176   6.491 -1.4469  1.1393  0.5742
13276TIP3   OH261318   2.849   2.310   1.297 -0.0262  0.0020  0.9975
13276TIP3    H161319   2.896   2.260   1.364 -0.1656 -1.2982  0.1603
13276TIP3    H261320   2.877   2.400   1.310  1.3755 -0.4993  1.6373
13277TIP3   OH261321   3.351   3.394  13.404  0.2220  0.4860 -0.3477
13277TIP3    H161322   3.415   3.406  13.334 -0.3230  0.0037 -0.9383
13277TIP3    H261323   3.273   3.360  13.360 -0.2994  0.6558  0.4242
13278TIP3   OH261324   2.616   0.247   4.713  0.0777  0.0069 -0.2940
13278TIP3    H161325   2.626   0.318   4.650 -1.8872  0.4577 -0.1699
13278TIP3    H261326   2.521   0.235   4.720  0.3091 -3.7935 -1.6120
13279TIP3   OH261327   0.641   1.300  11.527  0.2630 -0.3650 -0.5008
13279TIP3    H161328   0.665   1.208  11.516 -1.3916 -1.1232  1.5607
13279TIP3    H261329   0.650   1.316  11.621  0.8600  1.7279 -0.8506
13280TIP3   OH261330   1.262   3.241   1.115 -0.1816  0.2045 -0.1129
13280TIP3    H161331   1.282   3.317   1.171 -0.6438  0.6474 -0.5369
13280TIP3    H261332   1.346   3.198   1.102  0.4864  1.8265 -1.5567
13281TIP3   OH261333   1.212   2.335   4.138  0.4869  0.3956  0.1143
13281TIP3    H161334   1.139   2.280   4.169  0.3758  1.1080  1.1932
13281TIP3    H261335   1.290   2.283   4.157  0.2779 -0.3814 -1.0606
13282TIP3   OH261336   5.366   0.368   3.789 -0.0492 -0.1934 -0.0741
13282TIP3    H161337   5.273   0.373   3.811 -0.2073  3.3059 -0.8505
13282TIP3    H261338   5.369   0.385   3.695  1.3888  2.7840  0.3738
13283TIP3   OH261339   0.465   6.317   3.111 -0.1426 -0.2763  0.0381
13283TIP3    H161340   0.411   6.260   3.057  1.1313 -0.9127 -0.6020
13283TIP3    H261341   0.405   6.385   3.141 -1.3555 -1.1160 -0.4047
13284TIP3   OH261342   3.372   1.127   5.314 -0.5107  0.3535 -0.4130
13284TIP3    H161343   3.416   1.095   5.236  0.5739  0.7365  0.0243
13284TIP3    H261344   3.303   1.185   5.281  0.3536  1.0225 -1.0665
13285TIP3   OH261345   6.608   4.158  13.863  0.2956 -0.1601 -0.3961
13285TIP3    H161346   6.656   4.229  13.819  1.5125 -1.6414 -1.5747
13285TIP3    H261347   6.600   4.090  13.796  0.0482 -1.5427  0.9995
13286TIP3   OH261348   6.705   4.283   0.223  0.2493  0.8380 -0.3083
13286TIP3    H161349   6.786   4.325   0.194  0.9041  0.8409  1.4572
13286TIP3    H261350   6.734   4.204   0.268 -0.6249  1.4695  1.4558
13287TIP3   OH261351   6.247   4.909   1.987  0.4041  0.0933  0.6732
13287TIP3    H161352   6.187   4.944   2.053 -0.8821  0.4513 -0.6361
13287TIP3    H261353   6.262   4.818   2.014 -0.8118 -0.0278  0.9827
13288TIP3   OH261354   5.348   5.407   2.893 -0.1942 -0.3810  0.2183
13288TIP3    H161355   5.332   5.390   2.986 -1.0896 -2.2280 -0.2153
13288TIP3    H261356   5.443   5.403   2.884 -0.0424  0.6127  1.1712
13289TIP3   OH261357   0.537   6.667   1.706 -0.0412 -0.0033 -1.3025
13289TIP3    H161358   0.606   6.672   1.772  1.1760 -0.7991 -2.4648
13289TIP3    H261359   0.561   6.733   1.641  0.6908 -1.5008 -2.6288
13290TIP3   OH261360   5.497   2.967  17.044 -0.0783  0.0626 -0.8225
13290TIP3    H161361   5.552   2.934  16.973 -1.0915 -0.9249 -1.1805
13290TIP3    H261362   5.450   2.890  17.076 -2.8466  1.1548 -1.9832
13291TIP3   OH261363   1.084   2.203  15.871 -0.1248 -0.2588 -0.1979
13291TIP3    H161364   1.023   2.130  15.881 -1.2295  0.3722 -1.9517
13291TIP3    H261365   1.087   2.243  15.958 -2.4531 -0.1615 -0.1019
13292TIP3   OH261366   1.663   6.189  15.709  0.0252 -0.4499  0.2554
13292TIP3    H161367   1.705   6.269  15.740 -0.2751  0.0421 -0.5778
13292TIP3    H261368   1.652   6.136  15.787  2.8299 -0.9091  0.4663
13293TIP3   OH261369   2.015   3.483  17.300  0.0573  0.1675 -0.4801
13293TIP3    H161370   2.077   3.502  17.229 -0.2848 -0.5592 -0.9896
13293TIP3    H261371   2.054   3.522  17.378  0.8604  0.2336 -0.9076
13294TIP3   OH261372   4.488   0.971  11.358 -0.1353 -0.2464  0.3640
13294TIP3    H161373   4.501   0.889  11.312 -0.9949 -0.5328  0.6205
13294TIP3    H261374   4.537   1.035  11.307  0.3310 -0.8670  0.0235
13295TIP3   OH261375   3.678   2.983  12.324  0.0237 -0.3146 -0.2242
13295TIP3    H161376   3.630   2.980  12.241 -0.5877  1.5880  0.0034
13295TIP3    H261377   3.761   3.025  12.303 -0.6514  1.3971  0.2778
13296TIP3   OH261378   1.312   3.513  12.340  0.1412  0.1529 -0.2265
13296TIP3    H161379   1.325   3.419  12.332 -1.0946  0.0443 -1.3279
13296TIP3    H261380   1.231   3.530  12.292  1.3747  2.0570 -1.7664
13297TIP3   OH261381   2.524   2.948  12.754 -0.5973  0.6867 -0.1106
13297TIP3    H161382   2.548   3.000  12.677  0.2059  0.5783  0.0591
13297TIP3    H261383   2.515   2.859  12.721  0.8629  0.4419  0.1156
13298TIP3   OH261384   3.387   4.297  12.729  0.5044  0.2845  0.4623
13298TIP3    H161385   3.394   4.371  12.669  2.6221 -0.8398 -0.8014
13298TIP3    H261386   3.477   4.272  12.747 -0.1346 -1.5740  1.3797
13299TIP3   OH261387   0.067   6.221  13.796  0.3405  0.1019 -0.4923
13299TIP3    H161388   0.034   6.181  13.876  2.7112  0.2544  0.6408
13299TIP3    H261389   0.007   6.191  13.728 -2.2997  0.6968  1.4123
13300TIP3   OH261390   1.897   5.146   6.438 -0.0099  0.1933 -0.4139
13300TIP3    H161391   1.896   5.055   6.410 -0.5574  0.3380 -0.8665
13300TIP3    H261392   1.806   5.166   6.457  0.0347  0.8126 -0.8440
13301TIP3   OH261393   3.690   5.644  11.736 -0.2809  0.4330  0.3804
13301TIP3    H161394   3.767   5.693  11.707 -0.1031 -0.5998 -0.9990
13301TIP3    H261395   3.625   5.658  11.667 -0.5794 -0.4236  0.4733
13302TIP3   OH261396   1.516   3.701  10.852 -0.3604  0.1606 -0.6422
13302TIP3    H161397   1.426   3.719  10.879  0.3276 -0.1911  2.1575
13302TIP3    H261398   1.523   3.605  10.856  0.1303  0.1812 -0.9602
13303TIP3   OH261399   4.953   6.602   2.310 -0.4649  0.0627  0.6368
13303TIP3    H161400   5.032   6.653   2.296 -1.9498  2.3362 -0.1694
13303TIP3    H261401   4.948   6.543   2.234 -1.5218  2.7895 -1.6018
13304TIP3   OH261402   4.612   0.045   0.582 -0.0678  0.0373 -0.7821
13304TIP3    H161403   4.638   0.136   0.566 -0.1160  0.5105  1.5284
13304TIP3    H261404   4.677   0.012   0.644  0.0649 -1.6107 -1.7387
13305TIP3   OH261405   1.846   5.182   0.937 -0.3977  0.3850 -0.6276
13305TIP3    H161406   1.802   5.265   0.918 -1.8753 -0.1324  0.4012
13305TIP3    H261407   1.904   5.168   0.862 -1.8917  1.1511 -1.9752
13306TIP3   OH261408   6.662   0.660   2.961 -0.5462  0.2721 -0.0061
13306TIP3    H161409   6.594   0.673   2.894 -2.2448 -2.0754  1.1265
13306TIP3    H261410   6.631   0.585   3.012  3.0168 -1.0179  0.5039
13307TIP3   OH261411   1.168   1.150  15.261  0.1936 -0.1100  0.0090
13307TIP3    H161412   1.208   1.063  15.266 -0.1057 -0.1816  1.5628
13307TIP3    H261413   1.123   1.151  15.176  0.1875 -1.4675 -0.0228
13308TIP3   OH261414   5.056   5.537   1.131  0.0631  0.1584 -0.1732
13308TIP3    H161415   5.124   5.584   1.180  0.0902  1.2413 -1.2199
13308TIP3    H261416   4.988   5.602   1.115 -0.3684 -0.4279 -0.7703
13309TIP3   OH261417   3.488   2.728  11.227 -0.1068 -0.4550  0.2951
13309TIP3    H161418   3.478   2.633  11.222 -0.8315 -0.3911  0.4479
13309TIP3    H261419   3.439   2.754  11.305  0.3405  0.0106  0.4281
13310TIP3   OH261420   3.589   3.179   7.086  0.1627 -0.4415  0.1187
13310TIP3    H161421   3.497   3.153   7.086 -0.0413  0.2437  0.3255
13310TIP3    H261422   3.620   3.157   7.174  0.0073 -0.0460  0.2740
13311TIP3   OH261423   2.080   3.613   1.912 -0.2673 -0.1999  0.1407
13311TIP3    H161424   2.100   3.600   2.005  0.4568 -1.3192 -0.1501
13311TIP3    H261425   2.001   3.667   1.912 -1.9034 -2.4232  1.4729
13312TIP3   OH261426   5.092   6.085  15.530  0.0511 -0.3019 -0.4606
13312TIP3    H161427   5.179   6.049  15.548  0.7772  1.9268  0.9513
13312TIP3    H261428   5.069   6.052  15.443  0.2447 -4.6496  0.8987
13313TIP3   OH261429   1.254   5.585   1.391  0.0582  0.3533 -0.0244
13313TIP3    H161430   1.187   5.565   1.457  2.1024 -0.4116  1.9243
13313TIP3    H261431   1.262   5.504   1.340 -1.0369  0.7240 -0.8348
13314TIP3   OH261432   1.161   2.062   0.351 -0.0731 -0.7577 -0.2705
13314TIP3    H161433   1.079   2.108   0.366  1.3558  1.4525  1.5489
13314TIP3    H261434   1.217   2.126   0.307  1.1312 -1.6956 -0.1628
13315TIP3   OH261435   6.063   2.182  15.153 -0.4386  0.3057 -0.0468
13315TIP3    H161436   6.122   2.229  15.212  0.7137  0.2831 -1.1513
13315TIP3    H261437   6.080   2.090  15.170  0.7863  0.2795 -1.2134
13316TIP3   OH261438   2.853   5.757  15.687  0.5470  0.2315  0.1508
13316TIP3    H161439   2.909   5.752  15.765  0.8558  0.9451 -0.0143
13316TIP3    H261440   2.777   5.702  15.708  1.0208 -0.2647  0.6168
13317TIP3   OH261441   3.751   0.415  12.166  0.4514  0.4543  0.3525
13317TIP3    H161442   3.679   0.476  12.152 -0.6897 -0.6732  1.1075
13317TIP3    H261443   3.783   0.394  12.078 -3.8411 -3.3148 -0.6561
13318TIP3   OH261444   3.422   1.122  17.164 -0.0425 -0.3662 -0.5541
13318TIP3    H161445   3.363   1.051  17.137 -0.1423 -0.1991 -0.7801
13318TIP3    H261446   3.405   1.133  17.258  1.3941 -1.9867 -0.0571
13319TIP3   OH261447   0.760   4.627  12.954 -0.0124  0.5476 -0.0805
13319TIP3    H161448   0.708   4.572  13.013  0.1488  0.7891  0.2943
13319TIP3    H261449   0.851   4.605  12.975  0.0483  0.7702 -0.1042
13320TIP3   OH261450   4.440   0.656  14.405  0.0959 -0.0251  0.2805
13320TIP3    H161451   4.485   0.582  14.365 -1.0261 -0.1087 -0.8737
13320TIP3    H261452   4.347   0.637  14.394 -0.2943  0.0935  2.7117
13321TIP3   OH261453   4.640   4.503   4.500 -0.6082  0.0363 -0.1844
13321TIP3    H161454   4.696   4.537   4.571  0.2997  1.0351 -1.3381
13321TIP3    H261455   4.621   4.579   4.446 -1.5222 -0.6645 -0.8818
13322TIP3   OH261456   6.239   1.567   4.872 -0.0196 -0.0560 -0.2026
13322TIP3    H161457   6.333   1.571   4.855  0.4485 -0.7434  1.8567
13322TIP3    H261458   6.203   1.520   4.797  1.6497 -1.9044  0.0511
13323TIP3   OH261459   1.456   6.514  11.802  0.0110  0.2990 -0.3142
13323TIP3    H161460   1.453   6.574  11.728  1.1321  0.7373 -0.0362
13323TIP3    H261461   1.472   6.428  11.763 -0.6030  0.3353 -0.6504
13324TIP3   OH261462   0.818   1.772   5.003  0.3737  0.6238 -0.4419
13324TIP3    H161463   0.750   1.743   4.942 -0.8818  1.1972  0.6476
13324TIP3    H261464   0.900   1.757   4.955 -0.5101  0.1787 -1.8998
13325TIP3   OH261465   6.677   5.360   4.844  0.5390  0.5270 -0.5973
13325TIP3    H161466   6.709   5.362   4.754  1.6017 -0.8810 -0.2689
13325TIP3    H261467   6.730   5.294   4.888 -0.8129  0.2709  0.7509
13326TIP3   OH261468   2.305   1.150   1.628  0.2931 -0.1815  0.0865
13326TIP3    H161469   2.278   1.066   1.664  1.5924 -1.2458 -1.3158
13326TIP3    H261470   2.269   1.151   1.540 -1.9361  1.9230  0.8868
13327TIP3   OH261471   1.851   2.236  14.319 -0.6901  0.1190 -0.4052
13327TIP3    H161472   1.893   2.150  14.328  0.7612  0.7813 -0.7367
13327TIP3    H261473   1.918   2.299  14.343 -1.0822  1.2702 -2.2107
13328TIP3   OH261474   5.992   0.439  14.848 -0.2137  0.2345 -0.1582
13328TIP3    H161475   6.087   0.428  14.845 -0.3280 -1.2571  0.8345
13328TIP3    H261476   5.963   0.421  14.758  0.3152 -0.8036 -0.1343
13329TIP3   OH261477   3.605   2.328   6.971  0.1650  0.4086 -0.2282
13329TIP3    H161478   3.511   2.338   6.957  0.2609  1.1619 -0.3328
13329TIP3    H261479   3.635   2.415   6.997  0.8771  0.2306 -0.4417
13330TIP3   OH261480   5.650   6.508  15.947  0.5203  0.1258 -0.2430
13330TIP3    H161481   5.722   6.453  15.916  0.8336 -0.0659  0.8075
13330TIP3    H261482   5.644   6.579  15.882 -0.5425 -1.6405 -2.1928
13331TIP3   OH261483   3.672   0.981  11.641 -0.2471  0.1487  0.3539
13331TIP3    H161484   3.632   0.932  11.713  2.1390  1.3516  2.6546
13331TIP3    H261485   3.681   1.070  11.675  1.4584  0.6240 -1.2168
13332TIP3   OH261486   0.031   6.347   5.801 -0.3316 -0.1805 -0.0650
13332TIP3    H161487  -0.030   6.334   5.729  0.8088 -0.5029 -0.9994
13332TIP3    H261488   0.029   6.264   5.849 -0.8785 -0.0660  0.1148
13333TIP3   OH261489   1.873   5.250  15.365  0.0076  0.0621  0.0903
13333TIP3    H161490   1.863   5.264  15.459  0.1480 -1.8529  0.4377
13333TIP3    H261491   1.783   5.243  15.332 -0.1183 -2.8451  0.7643
13334TIP3   OH261492   5.902   5.966  14.572  0.3015 -0.2122 -0.1126
13334TIP3    H161493   5.855   6.049  14.561  0.6508 -0.0053 -0.0448
13334TIP3    H261494   5.833   5.900  14.576 -0.0469  0.2062  1.1871
13335TIP3   OH261495   6.564   1.045  15.040  0.1594 -0.0925 -0.5766
13335TIP3    H161496   6.656   1.071  15.033  0.6084 -0.9049  1.4534
13335TIP3    H261497   6.521   1.121  15.082 -0.0141  0.1208 -1.1364
13336TIP3   OH261498   1.185   3.485   5.060 -0.3294  0.4955  0.1950
13336TIP3    H161499   1.267   3.527   5.086  0.7402 -1.7820  0.6932
13336TIP3    H261500   1.197   3.460   4.969 -1.2102  1.7600 -0.3000
13337TIP3   OH261501   6.501   1.510   3.283 -0.0626 -0.0190  0.1431
13337TIP3    H161502   6.412   1.492   3.254 -0.6922  1.1981  1.1890
13337TIP3    H261503   6.516   1.447   3.354  0.5271 -1.2814 -1.0646
13338TIP3   OH261504   4.310   3.200  13.083 -0.3106  0.0757  0.5903
13338TIP3    H161505   4.290   3.269  13.145  0.6436  2.6380 -1.7675
13338TIP3    H261506   4.233   3.195  13.027 -1.6683 -3.0304  2.4362
13339TIP3   OH261507   3.291   3.773   2.001  0.3363  0.2562  0.6867
13339TIP3    H161508   3.209   3.813   2.030  0.2215 -1.0929  2.4093
13339TIP3    H261509   3.355   3.844   2.003 -0.5603  1.0956  0.3464
13340TIP3   OH261510   1.164   5.875   5.947 -0.3371  0.3262 -0.0898
13340TIP3    H161511   1.132   5.819   6.018 -0.5592 -0.9239 -1.1213
13340TIP3    H261512   1.086   5.892   5.894  0.4718 -2.3655 -2.3870
13341TIP3   OH261513   3.810   1.032  10.937  0.2485  0.3668 -0.2398
13341TIP3    H161514   3.872   1.104  10.944  0.0077  0.5876 -0.3581
13341TIP3    H261515   3.762   1.048  10.856 -0.9899  1.0280  0.5875
13342TIP3   OH261516   1.228   2.295  16.104  0.0295  0.1858 -0.3128
13342TIP3    H161517   1.284   2.218  16.104 -0.7528 -0.3895  0.4820
13342TIP3    H261518   1.227   2.325  16.195 -1.5427 -0.2539 -0.1663
13343TIP3   OH261519   2.956   0.076  12.234  0.0398 -0.0322  0.7287
13343TIP3    H161520   2.877   0.099  12.282 -0.3267 -0.5661  0.3949
13343TIP3    H261521   2.984  -0.008  12.273  0.2495 -0.0150  0.6180
13344TIP3   OH261522   6.171   3.213  12.494  0.3034 -0.3245 -0.3654
13344TIP3    H161523   6.129   3.176  12.572  1.4532  0.1599  0.5180
13344TIP3    H261524   6.100   3.224  12.431 -0.7892 -0.0193  0.8905
13345TIP3   OH261525   5.680   3.458   0.796 -0.4413  0.2429 -0.7058
13345TIP3    H161526   5.602   3.512   0.803  0.1959  1.6113 -2.9353
13345TIP3    H261527   5.680   3.428   0.705  0.4598 -1.6423 -0.1513
13346TIP3   OH261528   0.439   2.060   1.316 -0.2051  0.5965 -0.0104
13346TIP3    H161529   0.388   2.136   1.288 -0.9248 -0.5250 -1.8754
13346TIP3    H261530   0.523   2.097   1.344 -0.7741  2.1339 -0.2465
13347TIP3   OH261531   2.448   3.908   0.132  0.1779 -0.8506  0.2294
13347TIP3    H161532   2.415   3.869   0.050  0.0573 -0.9595  0.3285
13347TIP3    H261533   2.531   3.948   0.108  0.6842 -1.8325  0.2865
13348TIP3   OH261534   1.290   5.736   4.823  0.1181 -0.5450 -0.2045
13348TIP3    H161535   1.270   5.669   4.889 -0.6240  0.1173  0.2589
13348TIP3    H261536   1.365   5.783   4.858 -1.0691  0.6501  0.8314
13349TIP3   OH261537   6.594   4.635  13.952 -0.0106  0.1561  0.3304
13349TIP3    H161538   6.589   4.680  13.867 -1.1063  0.4052  0.5090
13349TIP3    H261539   6.509   4.652  13.993 -0.3313 -1.7916  0.5702
13350TIP3   OH261540   3.166   6.693  11.822 -0.5927  0.1701  0.2248
13350TIP3    H161541   3.074   6.693  11.794 -1.0591 -0.2657  1.6332
13350TIP3    H261542   3.196   6.604  11.805 -1.2445 -0.4558  2.1283
13351TIP3   OH261543   2.813   3.082  11.546  0.9387  0.4474  0.7635
13351TIP3    H161544   2.730   3.040  11.522  2.8168 -2.2443 -1.7142
13351TIP3    H261545   2.789   3.173  11.564 -2.3106  0.3115 -1.8666
13352TIP3   OH261546   4.818   3.219  13.572 -0.2514 -0.2598 -0.6083
13352TIP3    H161547   4.870   3.141  13.556  0.3398  0.1133 -0.5385
13352TIP3    H261548   4.769   3.232  13.491  0.2407 -0.2565 -0.9069
13353TIP3   OH261549   2.087   5.069  15.666  0.1784 -0.1820  0.0341
13353TIP3    H161550   2.158   5.015  15.700 -0.6802 -1.9596 -0.8568
13353TIP3    H261551   2.117   5.159  15.677  2.4418 -0.8746 -0.0858
13354TIP3   OH261552   2.802   3.946  13.776  0.6609 -0.5951  0.3019
13354TIP3    H161553   2.798   3.872  13.836  2.8237 -0.4087  0.7597
13354TIP3    H261554   2.727   3.934  13.718 -1.5543 -0.7636  3.0131
13355TIP3   OH261555   3.790   4.249  15.647 -0.0819 -0.3326 -0.4219
13355TIP3    H161556   3.794   4.186  15.719 -3.7217 -0.4653 -0.1811
13355TIP3    H261557   3.882   4.273  15.632  0.9785 -1.4165  3.2305
13356TIP3   OH261558   3.252   5.338  11.004 -0.4589 -0.1696 -0.6021
13356TIP3    H161559   3.281   5.261  10.955  0.6209 -0.3585  0.3014
13356TIP3    H261560   3.312   5.407  10.978 -1.7871  0.5769 -1.8679
13357TIP3   OH261561   4.674   5.132   2.792  0.4406 -0.3532  0.0852
13357TIP3    H161562   4.591   5.177   2.778 -0.1652 -1.0979  1.1355
13357TIP3    H261563   4.703   5.106   2.704  0.2490  1.0703 -0.4194
13358TIP3   OH261564   6.266   2.866  15.446 -0.0233 -0.0210  0.0851
13358TIP3    H161565   6.233   2.776  15.442  0.8410 -0.3219 -0.7896
13358TIP3    H261566   6.247   2.902  15.359  1.0041  0.1325 -0.0833
13359TIP3   OH261567   2.790   1.048   3.082  0.2466  0.0646 -0.1020
13359TIP3    H161568   2.772   1.037   3.175  0.6166  0.8208  0.0730
13359TIP3    H261569   2.742   0.977   3.039 -0.8836  0.4014  0.5656
13360TIP3   OH261570   0.119   4.750  12.982  0.2478  0.1142  0.1741
13360TIP3    H161571   0.129   4.795  13.066  0.6899  1.0102 -0.3469
13360TIP3    H261572   0.123   4.657  13.004  0.9198  0.3421  1.0749
13361TIP3   OH261573   5.963   0.791  11.603  0.3165  0.0970 -0.2902
13361TIP3    H161574   6.053   0.808  11.575  0.4949  0.5750  0.5387
13361TIP3    H261575   5.959   0.826  11.692 -0.5610 -0.3391 -0.1514
13362TIP3   OH261576   4.848   0.904   5.961 -0.0399 -0.8742  0.5966
13362TIP3    H161577   4.872   0.909   6.054  0.7585 -0.7821  0.3937
13362TIP3    H261578   4.926   0.871   5.918 -1.2574 -3.6304  0.3023
13363TIP3   OH261579   1.020   0.051  15.659 -0.0382  0.8117  0.1477
13363TIP3    H161580   0.992   0.138  15.629 -0.5178  0.7008  0.2710
13363TIP3    H261581   0.950  -0.008  15.632  0.8362  0.2510 -1.0091
13364TIP3   OH261582   6.024   4.387   0.028 -0.2074  0.1158  0.1040
13364TIP3    H161583   6.118   4.387   0.013 -0.5576  0.6885 -2.5102
13364TIP3    H261584   6.001   4.295   0.037  0.5227 -0.0506  0.3218
13365TIP3   OH261585   2.353   6.527   1.610 -0.0157  0.6907 -0.1065
13365TIP3    H161586   2.416   6.598   1.613 -1.1325  1.7873 -1.3481
13365TIP3    H261587   2.383   6.469   1.540  1.0580 -0.2853  1.1000
13366TIP3   OH261588   5.221   3.555   3.243  0.0926  0.2770 -0.4270
13366TIP3    H161589   5.206   3.642   3.279 -0.8100  0.6540 -1.6638
13366TIP3    H261590   5.138   3.530   3.203  0.1337 -1.4410  0.4580
13367TIP3   OH261591   2.674   0.875   1.343 -0.4613 -0.1783 -0.2834
13367TIP3    H161592   2.604   0.899   1.283 -0.3063  0.3179 -0.2694
13367TIP3    H261593   2.661   0.782   1.359 -0.4769 -0.3266 -1.1189
13368TIP3   OH261594   3.299   2.923  11.291 -0.1893  0.3138 -0.0341
13368TIP3    H161595   3.278   2.961  11.205  0.3184 -0.1791 -0.3886
13368TIP3    H261596   3.230   2.859  11.306 -0.8027  1.0488  0.3650
13369TIP3   OH261597   4.132   3.415   0.480  0.0600 -0.3174 -0.2397
13369TIP3    H161598   4.191   3.349   0.444  0.6800  0.4883 -0.7355
13369TIP3    H261599   4.082   3.447   0.405  1.6110  1.6265 -0.5439
13370TIP3   OH261600   4.942   1.643   5.262  0.9220 -0.0405  0.1166
13370TIP3    H161601   4.974   1.722   5.303  2.8542 -1.4270  1.4708
13370TIP3    H261602   4.893   1.598   5.330  0.0733 -0.1516 -0.5525
13371TIP3   OH261603   0.673   1.228  12.536  0.2684  0.4625 -0.7426
13371TIP3    H161604   0.654   1.208  12.628  1.1830 -1.4901 -0.9412
13371TIP3    H261605   0.624   1.309  12.519 -0.7999  0.2690  1.1409
13372TIP3   OH261606   6.597   3.094  12.114 -0.2833 -0.7191 -0.2994
13372TIP3    H161607   6.668   3.031  12.130  2.1393  1.1348 -2.6569
13372TIP3    H261608   6.590   3.143  12.196  2.3523  0.0178 -0.4063
13373TIP3   OH261609   5.516   3.532  11.260 -0.1505 -0.9316 -0.4543
13373TIP3    H161610   5.467   3.463  11.215 -0.5268 -0.7600 -0.3101
13373TIP3    H261611   5.592   3.548  11.204 -0.8275 -0.4211 -1.2602
13374TIP3   OH261612   5.442   3.635  12.240 -0.1215  0.2186 -0.1882
13374TIP3    H161613   5.468   3.702  12.303 -2.3574 -0.8326  2.0285
13374TIP3    H261614   5.366   3.593  12.280 -1.7438 -0.4907 -3.6844
13375TIP3   OH261615   6.391   5.105   1.852  0.3780  0.0388  0.3506
13375TIP3    H161616   6.421   5.161   1.924  2.3342 -1.5957  0.9118
13375TIP3    H261617   6.347   5.032   1.895 -0.6547  0.2786 -0.2717
13376TIP3   OH261618   3.061   0.415   2.338  1.0351  0.5307  0.0753
13376TIP3    H161619   3.082   0.330   2.377  0.2164  0.2478 -0.0841
13376TIP3    H261620   2.969   0.429   2.359  0.6704  0.5402 -1.4353
13377TIP3   OH261621   1.179   3.944   1.366  0.2362 -0.1713  0.3577
13377TIP3    H161622   1.183   3.995   1.448  1.2607 -0.6987  0.6548
13377TIP3    H261623   1.087   3.950   1.339 -0.0113  0.4517  1.2658
13378TIP3   OH261624   5.751   3.812   5.043 -0.3497 -0.0689 -0.9257
13378TIP3    H161625   5.751   3.898   5.085 -2.2129 -0.1027 -0.7659
13378TIP3    H261626   5.840   3.801   5.010  0.2231  1.4311  0.0195
13379TIP3   OH261627   5.100   2.910  13.726  0.4144 -0.0448 -0.3181
13379TIP3    H161628   5.088   2.949  13.812  0.8084  1.1264 -0.7877
13379TIP3    H261629   5.048   2.829  13.730 -1.2357  1.0013  0.3411
13380TIP3   OH261630   0.154   2.170  12.246 -0.2916  0.2484  0.2770
13380TIP3    H161631   0.141   2.242  12.186  0.8173  0.3905  0.1876
13380TIP3    H261632   0.083   2.109  12.226 -0.5227  0.7515 -0.4769
13381TIP3   OH261633   1.544   5.425   4.661  0.2923  0.2960 -0.1616
13381TIP3    H161634   1.478   5.409   4.594  1.1179  1.9341 -1.4423
13381TIP3    H261635   1.496   5.422   4.743 -0.8810 -1.0892 -0.8558
13382TIP3   OH261636   1.046   2.767   2.033  0.2079  0.1629  0.3844
13382TIP3    H161637   0.970   2.817   2.062  1.2306  1.4989  0.8756
13382TIP3    H261638   1.090   2.740   2.114  0.4873 -0.2471  0.1027
13383TIP3   OH261639   5.578   1.469  13.905  0.0379  0.3115 -0.1330
13383TIP3    H161640   5.484   1.453  13.900  0.1864 -0.9426  0.7613
13383TIP3    H261641   5.618   1.383  13.891  1.0356  0.7380  0.0265
13384TIP3   OH261642   0.400   3.150   3.690 -0.0839 -0.1076  0.3641
13384TIP3    H161643   0.400   3.207   3.767 -0.2323 -1.2738  1.2627
13384TIP3    H261644   0.480   3.174   3.643 -0.1577  0.8465  0.6956
13385TIP3   OH261645   1.971   6.289  11.346 -0.0047  0.0423  0.1211
13385TIP3    H161646   2.043   6.274  11.285 -0.9716 -0.4733 -0.9326
13385TIP3    H261647   1.997   6.243  11.426  1.8857  1.8205  0.6137
13386TIP3   OH261648   3.158   1.770   2.712 -0.3150  0.8168 -0.4380
13386TIP3    H161649   3.063   1.780   2.711 -0.5321 -0.9289 -0.2266
13386TIP3    H261650   3.181   1.758   2.620 -0.5282 -0.4485 -0.3417
13387TIP3   OH261651   3.975   6.440  15.144 -0.7693  0.0503  0.0371
13387TIP3    H161652   4.058   6.484  15.165 -0.9750  0.2864  0.3728
13387TIP3    H261653   3.992   6.395  15.062 -0.4009  0.3534 -0.0575
13388TIP3   OH261654   4.861   4.268  11.616  0.0467  0.2527  0.0258
13388TIP3    H161655   4.872   4.278  11.710  0.1978  1.8520 -0.1349
13388TIP3    H261656   4.797   4.196  11.607  0.5077 -0.3558  1.3003
13389TIP3   OH261657   3.214   2.417  13.779 -0.0331  0.0248  0.4079
13389TIP3    H161658   3.192   2.506  13.806  2.1454  0.7408  0.0456
13389TIP3    H261659   3.242   2.374  13.859  0.7665  0.2972  0.2848
13390TIP3   OH261660   1.196   2.686  12.763  0.1045  0.0802  0.3689
13390TIP3    H161661   1.131   2.616  12.774  1.2779 -0.8609  1.6494
13390TIP3    H261662   1.274   2.641  12.732  0.6869  0.9242  0.5952
13391TIP3   OH261663   1.290   6.237   6.221 -0.5211 -0.3936 -0.3746
13391TIP3    H161664   1.247   6.299   6.280  1.0210  1.2244 -0.8542
13391TIP3    H261665   1.325   6.169   6.279 -2.0801 -0.7544  0.1828
13392TIP3   OH261666   2.596   0.907  11.005 -0.3677  0.5516 -0.1729
13392TIP3    H161667   2.563   0.960  11.078 -1.3860 -1.0428  0.5775
13392TIP3    H261668   2.689   0.927  11.001  0.1913 -0.8819  3.0058
13393TIP3   OH261669   3.865   4.657  13.945  0.4901  0.2639  0.9174
13393TIP3    H161670   3.798   4.589  13.938  1.4808 -0.6146 -1.2666
13393TIP3    H261671   3.921   4.628  14.018 -1.1800  0.7896  2.4779
13394TIP3   OH261672   3.288   5.185  14.042  0.1020  0.9123  0.0053
13394TIP3    H161673   3.254   5.125  14.108 -0.3926  0.7816 -0.3572
13394TIP3    H261674   3.210   5.233  14.011  0.1192  0.1325 -1.3294
13395TIP3   OH261675   0.608   2.500   5.118  0.1820  0.6146  0.7877
13395TIP3    H161676   0.665   2.453   5.179  2.2572  1.2178 -0.5685
13395TIP3    H261677   0.661   2.509   5.039 -2.4706 -0.3463 -1.2331
13396TIP3   OH261678   2.386   4.958  13.179 -0.4100  0.0594  0.3666
13396TIP3    H161679   2.314   4.925  13.232 -0.1501  0.1849  0.8028
13396TIP3    H261680   2.391   5.051  13.199 -1.2001  0.4031 -0.9283
13397TIP3   OH261681   5.687   2.140  12.553  0.4073 -0.1416  0.3459
13397TIP3    H161682   5.771   2.167  12.517  0.5575 -1.9044 -0.7256
13397TIP3    H261683   5.626   2.146  12.479 -0.4229  1.0694  1.0930
13398TIP3   OH261684   6.610   5.627  10.885 -0.1998 -0.4072  0.4271
13398TIP3    H161685   6.635   5.706  10.932  0.9494 -0.7556  0.4308
13398TIP3    H261686   6.525   5.647  10.847 -0.0308  0.7380  0.6312
13399TIP3   OH261687   0.730   1.778   4.239 -0.5650  0.3915 -0.5873
13399TIP3    H161688   0.750   1.697   4.287 -3.4858 -0.6433 -0.9131
13399TIP3    H261689   0.816   1.816   4.220  0.8502 -1.5508  1.3716
13400TIP3   OH261690   1.044   1.864  16.686 -0.0428 -0.5891  0.0185
13400TIP3    H161691   0.976   1.798  16.672 -0.4717  0.2004 -1.8381
13400TIP3    H261692   1.117   1.834  16.632  0.4429 -0.4775  0.6014
13401TIP3   OH261693   0.155   3.579  14.069 -0.0519 -0.1877 -0.0161
13401TIP3    H161694   0.145   3.486  14.047  0.1975 -0.2672  0.1947
13401TIP3    H261695   0.209   3.615  13.999  0.5245 -0.3826  0.3174
13402TIP3   OH261696   5.506   2.887  16.758  0.1304 -0.1922  0.5862
13402TIP3    H161697   5.487   2.979  16.743  1.1971  0.1930  1.4604
13402TIP3    H261698   5.593   2.874  16.719  0.2818 -0.6607  1.0730
13403TIP3   OH261699   0.663   6.470  15.970 -0.3302 -0.5175  0.3337
13403TIP3    H161700   0.680   6.461  16.064 -2.3582 -0.0179  0.7869
13403TIP3    H261701   0.633   6.383  15.943 -0.1962 -0.5377  0.2495
13404TIP3   OH261702   3.374   0.810  14.989  0.3482 -0.3172 -0.5452
13404TIP3    H161703   3.449   0.867  14.973  0.0906 -0.1712 -1.2751
13404TIP3    H261704   3.387   0.777  15.078  0.8211  0.3865 -0.3473
13405TIP3   OH261705   4.103   0.848  11.340 -0.2819  0.3093 -0.1284
13405TIP3    H161706   4.172   0.852  11.273  0.8434  1.0972  1.0094
13405TIP3    H261707   4.051   0.927  11.326  1.2360  1.6169  1.1696
13406TIP3   OH261708   2.065   0.018   6.104 -0.0336  0.4037  0.0429
13406TIP3    H161709   2.086   0.022   6.011  1.2997 -1.9103  0.1981
13406TIP3    H261710   2.149   0.029   6.149 -0.4099 -0.1762  0.9231
13407TIP3   OH261711   0.033   5.216  13.287 -0.2752 -0.3646 -0.3731
13407TIP3    H161712  -0.032   5.274  13.327  0.4431  0.9823 -1.0915
13407TIP3    H261713  -0.018   5.146  13.247 -1.3205  0.7963 -1.1364
13408TIP3   OH261714   3.988   1.756  15.824 -0.2174  0.5685 -0.7835
13408TIP3    H161715   4.043   1.782  15.897 -2.4987 -0.7788  1.6097
13408TIP3    H261716   3.960   1.667  15.846 -1.8019  0.4964 -2.8068
13409TIP3   OH261717   1.696   1.525   0.259 -0.5772 -0.1507  0.2460
13409TIP3    H161718   1.606   1.504   0.282 -0.1937 -2.4129 -0.0822
13409TIP3    H261719   1.746   1.446   0.280  1.0146  0.3405 -1.3698
13410TIP3   OH261720   3.169   1.913   1.370  0.4497  0.9943 -0.0399
13410TIP3    H161721   3.130   1.854   1.434  0.3154  1.0323 -0.0850
13410TIP3    H261722   3.122   1.894   1.288  1.4179  0.1239 -0.4085
13411TIP3   OH261723   0.085   3.578   3.143 -0.1546 -0.2382  0.5806
13411TIP3    H161724   0.109   3.566   3.051 -1.2084  1.5961  0.0053
13411TIP3    H261725   0.169   3.591   3.188  0.3422 -0.5801 -0.2196
13412TIP3   OH261726   1.011   5.436  12.963 -0.6645 -0.1558  0.1739
13412TIP3    H161727   1.097   5.428  13.006 -0.2591  1.0114 -0.3957
13412TIP3    H261728   1.027   5.490  12.886 -1.8128 -0.4057 -0.2611
13413TIP3   OH261729   1.454   4.430   3.280 -0.1769  0.4263  0.4717
13413TIP3    H161730   1.488   4.388   3.360  0.7211 -1.1109 -0.6591
13413TIP3    H261731   1.528   4.481   3.247 -0.7279  1.5233  0.9107
13414TIP3   OH261732   1.195   2.178   0.722 -0.1755 -0.3498 -0.3831
13414TIP3    H161733   1.210   2.215   0.635 -2.1061  1.8194  0.1121
13414TIP3    H261734   1.263   2.217   0.777  0.9457 -1.5968 -0.8427
13415TIP3   OH261735   3.372   4.920  13.864  0.1803 -0.1741  0.2820
13415TIP3    H161736   3.375   4.827  13.844  0.2777 -0.2828  0.7810
13415TIP3    H261737   3.281   4.945  13.848  0.1141 -0.3965  0.3111
13416TIP3   OH261738   4.259   3.043   3.734 -0.5670 -0.2801 -0.2816
13416TIP3    H161739   4.343   3.013   3.702 -0.4167 -0.2205  0.0490
13416TIP3    H261740   4.277   3.130   3.770 -1.0133  0.2705 -1.3317
13417TIP3   OH261741   1.660   0.318  11.996  0.2124 -0.1851 -0.4543
13417TIP3    H161742   1.612   0.264  11.933  1.1271 -2.3191  0.5816
13417TIP3    H261743   1.592   0.355  12.052 -0.3903 -2.1153  0.1871
13418TIP3   OH261744   3.592   3.314   4.268 -0.1006 -0.0512  0.0008
13418TIP3    H161745   3.584   3.321   4.363  0.0553 -0.5022  0.0491
13418TIP3    H261746   3.677   3.272   4.254  0.2204  0.7036 -0.3632
13419TIP3   OH261747   0.700   3.613   2.263  0.0983 -0.4350 -0.4088
13419TIP3    H161748   0.632   3.553   2.232  0.3003 -1.0216  0.2720
13419TIP3    H261749   0.660   3.699   2.257 -0.4816 -0.7149 -0.6258
13420TIP3   OH261750   1.845   3.417   4.027 -0.1919 -0.0242  0.3652
13420TIP3    H161751   1.939   3.429   4.043 -0.3906  0.5846  1.1811
13420TIP3    H261752   1.816   3.357   4.096 -0.4358 -0.0471  0.2445
13421TIP3   OH261753   6.281   3.373   4.074  0.1709  0.3075  0.2843
13421TIP3    H161754   6.370   3.349   4.101 -0.0309  0.5505  1.1856
13421TIP3    H261755   6.224   3.323   4.132 -0.2617  2.3165  1.6931
13422TIP3   OH261756   4.850   6.286   0.367  0.4138 -0.6472  0.0848
13422TIP3    H161757   4.824   6.356   0.307  1.0481 -0.2632  0.2464
13422TIP3    H261758   4.883   6.331   0.445  0.7525 -1.1233  0.2269
13423TIP3   OH261759   2.642   5.511   4.486 -0.9836 -0.9795 -0.0545
13423TIP3    H161760   2.714   5.517   4.548 -0.4871 -1.1857 -0.6086
13423TIP3    H261761   2.573   5.567   4.523 -0.0718  0.2609 -0.1897
13424TIP3   OH261762   5.314   1.984   1.326  0.6312 -0.9046 -0.1321
13424TIP3    H161763   5.358   2.032   1.256  0.6599 -1.5619 -0.5701
13424TIP3    H261764   5.302   2.048   1.396 -0.4673  0.0914 -1.1860
13425TIP3   OH261765   0.537   5.091  11.318  0.0395  0.3234  0.1423
13425TIP3    H161766   0.514   5.141  11.239 -0.8365  1.5287  1.1259
13425TIP3    H261767   0.477   5.124  11.385 -0.0592 -1.5442  1.0231
13426TIP3   OH261768   4.447   4.137   5.764 -1.0220 -0.2016  0.1973
13426TIP3    H161769   4.364   4.137   5.813 -0.9458 -2.3882  0.4051
13426TIP3    H261770   4.504   4.195   5.815 -2.3041  1.1591  0.1812
13427TIP3   OH261771   2.408   2.958   1.610  0.2012  0.0987 -0.1757
13427TIP3    H161772   2.356   2.928   1.685  2.4215 -1.5308  0.7997
13427TIP3    H261773   2.448   3.039   1.639 -0.2757  0.3699 -0.2550
13428TIP3   OH261774   5.709   4.997   4.469 -0.3480  0.0405  0.2169
13428TIP3    H161775   5.707   4.901   4.466  1.1212 -0.0071 -0.8514
13428TIP3    H261776   5.708   5.023   4.377  1.2146  0.9334  0.4138
13429TIP3   OH261777   5.269   4.231  16.068  0.1065 -0.2912  0.3077
13429TIP3    H161778   5.337   4.165  16.077 -0.2287 -0.5169  1.2645
13429TIP3    H261779   5.198   4.186  16.023 -0.2630 -0.7112  1.2754
13430TIP3   OH261780   3.102   2.149  13.331  0.0268 -0.4949 -0.0072
13430TIP3    H161781   3.067   2.201  13.403  0.5657  1.6068 -1.1775
13430TIP3    H261782   3.024   2.116  13.286 -0.4220  1.0704 -0.4463
13431TIP3   OH261783   1.579   4.358   4.498  0.5200 -0.2366  0.1889
13431TIP3    H161784   1.559   4.343   4.590  0.3582 -0.9006  0.0491
13431TIP3    H261785   1.584   4.270   4.460  2.2535 -0.0391 -0.0925
13432TIP3   OH261786   5.043   3.330   0.914 -0.0452 -0.0050  0.2984
13432TIP3    H161787   4.973   3.281   0.958  0.2303 -1.8297 -1.1827
13432TIP3    H261788   5.068   3.276   0.840  0.6148  2.2153 -1.2139
13433TIP3   OH261789   2.969   1.858   5.090 -0.1104  0.0980 -0.8033
13433TIP3    H161790   2.908   1.931   5.094 -0.6799 -0.3465 -1.2273
13433TIP3    H261791   2.994   1.842   5.182 -0.0280  0.7785 -0.7051
13434TIP3   OH261792   2.686   3.730   0.326 -0.1279  0.1955 -0.0626
13434TIP3    H161793   2.765   3.714   0.378 -0.7294 -1.7561  0.3218
13434TIP3    H261794   2.714   3.716   0.235  0.0372 -0.1764  0.0444
13435TIP3   OH261795   0.607   2.354   4.612 -0.0279 -0.3152 -0.6336
13435TIP3    H161796   0.515   2.343   4.589 -0.1484  0.7770 -0.7026
13435TIP3    H261797   0.620   2.448   4.616  0.9503 -0.4621 -0.0499
13436TIP3   OH261798   6.668   0.450   2.011  0.5983 -0.1585 -0.3079
13436TIP3    H161799   6.632   0.508   2.078 -1.4248 -1.6446 -0.0261
13436TIP3    H261800   6.727   0.507   1.959 -0.7538  1.9605  0.3457
13437TIP3   OH261801   5.951   4.349  14.189  0.1547 -0.2465  0.0961
13437TIP3    H161802   6.023   4.330  14.130  0.3592 -1.2389  0.6370
13437TIP3    H261803   5.980   4.316  14.274 -0.4383  0.4598  0.5835
13438TIP3   OH261804   1.438   6.627   1.675  0.0877  0.2417 -0.1934
13438TIP3    H161805   1.464   6.676   1.597  2.1858 -1.0289 -0.3843
13438TIP3    H261806   1.419   6.539   1.643  2.2838 -0.6747  0.8104
13439TIP3   OH261807   2.038   1.455  13.839  0.0476 -0.1815 -0.1752
13439TIP3    H161808   2.110   1.398  13.865  0.5151  0.9625  1.1526
13439TIP3    H261809   1.962   1.397  13.830  0.6876 -1.1072  0.3235
13440TIP3   OH261810   0.820   1.952  14.307 -0.5648 -1.1165  0.1827
13440TIP3    H161811   0.853   1.984  14.223 -2.0035  1.3644  0.4814
13440TIP3    H261812   0.745   1.896  14.283 -1.8862  0.7322 -0.2214
13441TIP3   OH261813   5.443   6.741  16.021  0.0451  0.0959  0.2844
13441TIP3    H161814   5.371   6.803  16.010  1.5693  2.1532  1.3630
13441TIP3    H261815   5.453   6.732  16.116  1.3609  0.0239  0.1598
13442TIP3   OH261816   0.041   0.779  11.962  0.2681 -0.2493 -0.3225
13442TIP3    H161817   0.049   0.768  11.867 -0.4681 -0.2818 -0.3874
13442TIP3    H261818  -0.048   0.812  11.975  0.4924  0.1120  0.3298
13443TIP3   OH261819   2.602   2.791   1.745  0.0355  0.3135 -0.2656
13443TIP3    H161820   2.569   2.810   1.833  0.6165 -0.1913  0.0717
13443TIP3    H261821   2.538   2.830   1.686 -1.3273 -0.9180  0.3568
13444TIP3   OH261822   1.292   1.469  16.458  0.0803 -0.1136  0.6021
13444TIP3    H161823   1.203   1.453  16.490 -0.4335 -0.9852 -1.1115
13444TIP3    H261824   1.313   1.391  16.407 -0.2141  2.0409 -3.2341
13445TIP3   OH261825   6.606   3.232  13.550 -0.0662 -0.0682 -0.2146
13445TIP3    H161826   6.645   3.278  13.476 -0.6565 -0.2887 -0.6654
13445TIP3    H261827   6.513   3.226  13.529 -0.9569  2.8670  2.0314
13446TIP3   OH261828   5.843   3.946   0.307 -0.2372 -0.0883 -0.5500
13446TIP3    H161829   5.840   4.001   0.229 -1.7659 -0.4005 -0.7397
13446TIP3    H261830   5.836   3.857   0.273 -1.0051 -0.2184 -0.0532
13447TIP3   OH261831   0.247   1.689   5.583 -0.0607 -0.5518  0.2643
13447TIP3    H161832   0.231   1.738   5.663  1.8003  0.3784  0.1292
13447TIP3    H261833   0.323   1.633   5.604 -0.1863 -1.0507 -0.5402
13448TIP3   OH261834   3.346   4.737   2.637 -0.0233 -0.0626  0.6819
13448TIP3    H161835   3.335   4.767   2.547 -0.6659  0.7872  1.0326
13448TIP3    H261836   3.331   4.815   2.691 -0.7885 -0.7955  1.5733
13449TIP3   OH261837   3.609   1.815   3.844  0.1631 -0.1158 -0.4694
13449TIP3    H161838   3.610   1.868   3.923  0.0400 -1.3422  0.3825
13449TIP3    H261839   3.661   1.865   3.781 -0.9639  1.5720 -0.1007
13450TIP3   OH261840   3.764   0.897  14.325 -0.3233 -0.1324 -0.0640
13450TIP3    H161841   3.695   0.851  14.277 -1.5192 -0.8569  2.1978
13450TIP3    H261842   3.839   0.838  14.322 -1.3452 -1.5959  1.4640
13451TIP3   OH261843   3.645   1.985  14.055  0.3925 -0.0399 -0.4849
13451TIP3    H161844   3.618   2.031  14.135  0.2472  0.1482 -0.6447
13451TIP3    H261845   3.621   2.044  13.984 -0.6627 -0.7735 -0.7532
13452TIP3   OH261846   5.322   4.251   0.138 -0.4490  0.1692  0.5942
13452TIP3    H161847   5.274   4.191   0.195 -1.1621  0.7945  0.6652
13452TIP3    H261848   5.297   4.338   0.168  1.8190  0.5527  1.5681
13453TIP3   OH261849   0.003   3.926   0.165 -0.3544  0.1893 -0.3480
13453TIP3    H161850   0.063   3.989   0.205  0.5745 -0.1078 -1.2459
13453TIP3    H261851  -0.074   3.927   0.222  0.2857  0.9682  0.5282
13454TIP3   OH261852   5.824   3.193   4.255 -0.8511 -0.1873 -0.2148
13454TIP3    H161853   5.867   3.132   4.196  0.3732  1.9051 -1.6301
13454TIP3    H261854   5.780   3.138   4.319  2.8113 -2.5885  0.5530
13455TIP3   OH261855   1.368   2.589  17.439  0.1714  0.6889 -0.1285
13455TIP3    H161856   1.429   2.541  17.495  1.5349  1.1419 -1.1672
13455TIP3    H261857   1.411   2.673  17.423 -0.6647  0.9706 -1.0001
13456TIP3   OH261858   5.810   3.880  15.484 -1.0491 -0.2978  0.4385
13456TIP3    H161859   5.736   3.893  15.544 -0.1594 -1.1765  1.7821
13456TIP3    H261860   5.873   3.829  15.534  0.4710  0.3831 -0.6811
13457TIP3   OH261861   1.278   2.979   5.864  0.3536  0.3901  0.2177
13457TIP3    H161862   1.211   3.032   5.820 -0.0081 -1.0024 -1.0114
13457TIP3    H261863   1.254   2.981   5.956 -0.6258  0.9794 -0.0337
13458TIP3   OH261864   5.843   4.242  17.207  0.0029  0.7301  0.2551
13458TIP3    H161865   5.912   4.288  17.158 -0.0632  0.6122  0.0519
13458TIP3    H261866   5.778   4.219  17.141 -0.3327  1.0237  0.4779
13459TIP3   OH261867   3.435   1.183   6.159 -0.1288  0.1881  0.1822
13459TIP3    H161868   3.361   1.159   6.103 -0.0121  1.1688 -0.4014
13459TIP3    H261869   3.405   1.261   6.207  1.0777  1.5949 -1.2547
13460TIP3   OH261870   2.452   3.602  16.111 -0.4110 -0.4723  0.2414
13460TIP3    H161871   2.527   3.546  16.090  0.3639 -0.3696  2.4586
13460TIP3    H261872   2.381   3.541  16.131  0.4112 -0.7466  2.5835
13461TIP3   OH261873   5.922   0.566   2.251  0.4532  0.5360  0.5355
13461TIP3    H161874   5.991   0.609   2.200  0.2406  0.4392  0.1593
13461TIP3    H261875   5.954   0.477   2.264  0.7283  0.7011  0.9975
13462TIP3   OH261876   3.951   2.951  11.119 -0.0238 -1.0576 -0.4588
13462TIP3    H161877   3.956   2.998  11.035 -0.7810 -0.5105 -0.2116
13462TIP3    H261878   4.004   3.004  11.179 -2.7394  0.8758  0.4187
13463TIP3   OH261879   0.434   4.272   0.007  0.1488  0.1697  0.1004
13463TIP3    H161880   0.350   4.228  -0.011  0.3227  0.2331 -0.8887
13463TIP3    H261881   0.497   4.200   0.015  0.1891  0.1724 -0.1903
13464TIP3   OH261882   2.926   6.298   1.846 -0.0685 -0.5118  0.1328
13464TIP3    H161883   2.973   6.216   1.863  0.4229 -0.1259  0.6762
13464TIP3    H261884   2.937   6.349   1.927 -1.5634 -0.4718  0.3431
13465TIP3   OH261885   2.496   3.115  13.705  0.7686  0.1081  0.1529
13465TIP3    H161886   2.440   3.190  13.726 -0.2028 -0.9093  1.2799
13465TIP3    H261887   2.549   3.146  13.631 -0.3827  1.5206 -0.1377
13466TIP3   OH261888   6.217   2.079   0.330  0.6619  0.3396  0.0218
13466TIP3    H161889   6.299   2.031   0.340 -0.6360 -1.6973  1.9705
13466TIP3    H261890   6.194   2.068   0.237  0.6229 -2.6600  0.2784
13467TIP3   OH261891   4.022   0.627  12.699 -0.3402 -0.1230 -0.0760
13467TIP3    H161892   4.066   0.687  12.638 -2.4065  1.3762 -0.2038
13467TIP3    H261893   3.987   0.558  12.644 -1.2479  0.6383 -0.4785
13468TIP3   OH261894   3.718   2.790   0.167 -0.3347  0.0139  0.1246
13468TIP3    H161895   3.700   2.726   0.236 -1.0648  1.3600  1.2510
13468TIP3    H261896   3.653   2.771   0.099 -2.1071  0.9569  1.4658
13469TIP3   OH261897   6.404   6.740   4.921 -0.3064 -0.0653  0.1484
13469TIP3    H161898   6.434   6.669   4.865  0.4746  0.6470 -0.3584
13469TIP3    H261899   6.370   6.806   4.860 -0.0118  0.4599  0.5448
13470TIP3   OH261900   0.965   0.598  11.686 -0.2446 -0.1698 -0.9185
13470TIP3    H161901   0.970   0.562  11.774 -0.3338  0.9877 -0.4156
13470TIP3    H261902   0.937   0.525  11.631 -0.1982 -0.9005  0.0160
13471TIP3   OH261903   3.425   5.688   3.605 -0.0607 -0.1111  0.3412
13471TIP3    H161904   3.369   5.692   3.528 -0.0529 -0.6887  0.3059
13471TIP3    H261905   3.495   5.628   3.581 -1.3254 -2.2134  1.6289
13472TIP3   OH261906   6.314   1.441  16.197 -0.4633 -0.5263 -0.2843
13472TIP3    H161907   6.361   1.519  16.224  0.6344 -0.7758 -1.3472
13472TIP3    H261908   6.345   1.425  16.107 -0.0769 -2.5801  0.1630
13473TIP3   OH261909   0.954   4.016  16.825  0.3763  0.9487  0.6689
13473TIP3    H161910   0.869   3.973  16.820  0.8898 -0.0682  0.3953
13473TIP3    H261911   1.014   3.957  16.779  1.0368  2.1542 -0.0770
13474TIP3   OH261912   3.984   3.629  11.836  0.4835 -0.7684 -0.4994
13474TIP3    H161913   3.992   3.542  11.876 -0.1289 -1.4947 -1.8677
13474TIP3    H261914   3.964   3.611  11.744  1.2040  0.8298 -1.0099
13475TIP3   OH261915   6.043   1.268   0.001  0.0855 -0.7316  0.1370
13475TIP3    H161916   6.025   1.174   0.004  0.5133 -0.9098 -1.5033
13475TIP3    H261917   6.002   1.297  -0.080 -0.0276  0.5017  0.6211
13476TIP3   OH261918   0.747   5.494  11.052  0.6588  0.1269  0.2687
13476TIP3    H161919   0.699   5.532  11.125 -0.7894 -0.2818 -0.4216
13476TIP3    H261920   0.800   5.566  11.017  0.3255  0.6770  0.8860
13477TIP3   OH261921   0.467   2.701  10.577 -0.5010  0.6881 -0.0104
13477TIP3    H161922   0.389   2.685  10.630  0.3103  0.8293  1.2551
13477TIP3    H261923   0.533   2.643  10.613  1.2775  3.6465  1.9316
13478TIP3   OH261924   5.214   4.760   0.514  0.1901  0.2162  0.2793
13478TIP3    H161925   5.214   4.842   0.465 -1.7159 -1.3592 -2.6220
13478TIP3    H261926   5.298   4.719   0.492 -0.5586 -0.3820 -1.6502
13479TIP3   OH261927   5.751   4.332   4.764 -0.0930 -0.5167  0.1838
13479TIP3    H161928   5.680   4.353   4.704  0.3970  1.2559  0.1932
13479TIP3    H261929   5.710   4.275   4.830 -1.4246  0.2215  0.0250
13480TIP3   OH261930   0.358   6.322   5.966  0.6023  0.6536 -0.1874
13480TIP3    H161931   0.424   6.262   5.932  2.0895  0.2268  3.0076
13480TIP3    H261932   0.361   6.309   6.061 -3.8220  0.9967  0.2099
13481TIP3   OH261933   6.372   0.809   3.122 -0.2013  0.0117 -0.4386
13481TIP3    H161934   6.455   0.788   3.079  0.4129  0.7473  0.3654
13481TIP3    H261935   6.321   0.728   3.115  0.9109 -0.7334 -0.1671
13482TIP3   OH261936   4.377   0.635   1.584 -0.2110 -0.9389  0.9840
13482TIP3    H161937   4.283   0.642   1.598 -0.3179  0.2001 -0.1844
13482TIP3    H261938   4.416   0.688   1.655 -0.5689  0.7195 -0.0053
13483TIP3   OH261939   5.407   2.382   3.695 -0.0464 -0.4731 -0.2315
13483TIP3    H161940   5.374   2.448   3.756  3.2863  1.2412 -0.0989
13483TIP3    H261941   5.445   2.432   3.623  3.4041 -2.0748  0.2842
13484TIP3   OH261942   4.762   4.098  14.600 -0.0937  0.4266 -0.2416
13484TIP3    H161943   4.846   4.057  14.621 -0.3419  0.6868  1.4281
13484TIP3    H261944   4.706   4.025  14.575  0.6211  0.2549 -1.4210
13485TIP3   OH261945   2.563   1.593  13.923  0.1482 -0.7258 -0.0355
13485TIP3    H161946   2.534   1.504  13.902 -1.1440 -0.3839  0.2070
13485TIP3    H261947   2.621   1.617  13.850  0.7920 -1.8710  0.0629
13486TIP3   OH261948   1.788   3.168  11.804 -0.4383  0.5864  0.0556
13486TIP3    H161949   1.824   3.255  11.819  0.2547  0.3147  0.0197
13486TIP3    H261950   1.711   3.163  11.861 -0.5205  1.2363  0.0074
13487TIP3   OH261951   6.319   0.138   1.223 -0.8537  0.4248 -0.0582
13487TIP3    H161952   6.328   0.057   1.272 -2.0558  0.3151  0.0070
13487TIP3    H261953   6.342   0.115   1.133 -0.6433  0.1420  0.0700
13488TIP3   OH261954   1.805   3.511  11.702 -0.1453 -0.0226 -0.8856
13488TIP3    H161955   1.826   3.441  11.641  1.4422 -1.3179  1.0319
13488TIP3    H261956   1.889   3.544  11.732 -0.8689  0.9185  0.2346
13489TIP3   OH261957   6.681   5.894  15.784 -0.5373 -0.1196  0.3237
13489TIP3    H161958   6.638   5.960  15.729  2.3728  1.9051  0.2593
13489TIP3    H261959   6.696   5.939  15.867  0.3159 -1.1638  0.7516
13490TIP3   OH261960   1.697   2.596  11.365  0.3180  0.2792 -0.2576
13490TIP3    H161961   1.775   2.646  11.343 -0.7794  1.3359 -2.0257
13490TIP3    H261962   1.679   2.544  11.287 -2.5024  2.4933 -1.2754
13491TIP3   OH261963   2.832   5.136   1.740  0.0276 -0.0643 -0.8538
13491TIP3    H161964   2.819   5.143   1.834 -2.0199  0.3905 -1.1196
13491TIP3    H261965   2.851   5.225   1.711  2.6901 -0.5040 -0.6670
13492TIP3   OH261966   3.974   3.384  16.321  0.0512  0.2084 -0.3632
13492TIP3    H161967   4.069   3.392  16.336  0.0540  1.5560 -0.9858
13492TIP3    H261968   3.945   3.473  16.305 -1.3183 -0.2149 -0.3201
13493TIP3   OH261969   4.833   4.482   4.254  0.7720  0.7134 -0.7996
13493TIP3    H161970   4.787   4.461   4.336  0.4560 -0.7218 -1.3169
13493TIP3    H261971   4.893   4.552   4.278  0.9499  0.0811  0.7646
13494TIP3   OH261972   5.325   3.056   1.529 -0.1228  0.1698  0.3252
13494TIP3    H161973   5.304   2.984   1.590 -1.5198 -1.5827 -2.0556
13494TIP3    H261974   5.419   3.069   1.540 -0.0698 -1.0634  1.8131
13495TIP3   OH261975   0.309   5.289   5.119  0.5790 -0.2070 -0.1477
13495TIP3    H161976   0.362   5.285   5.198 -0.0474  0.5772  0.3242
13495TIP3    H261977   0.223   5.255   5.146 -0.5377  2.6781  0.3120
13496TIP3   OH261978   6.121   5.667  14.148  0.0829  0.5541  0.2854
13496TIP3    H161979   6.154   5.732  14.086  1.1439  0.5013  0.7691
13496TIP3    H261980   6.057   5.617  14.098  0.3219  1.0294 -0.5260
13497TIP3   OH261981   0.502   0.738  14.798 -0.4157  0.1922  0.3849
13497TIP3    H161982   0.435   0.742  14.729 -1.0915 -0.2221  1.0002
13497TIP3    H261983   0.464   0.680  14.864  0.6249 -0.1798  0.6766
13498TIP3   OH261984   0.619   3.003   4.246  0.0469  0.1582  0.1235
13498TIP3    H161985   0.629   2.925   4.191 -0.3310 -0.5234  0.9917
13498TIP3    H261986   0.633   3.076   4.187 -0.2821 -0.5591 -0.8659
13499TIP3   OH261987   1.772   0.105   3.526 -0.2053  0.3431  0.4850
13499TIP3    H161988   1.789   0.099   3.432  0.8121 -0.3966  0.6898
13499TIP3    H261989   1.678   0.089   3.535 -0.3105  0.4035 -0.3967
13500TIP3   OH261990   2.343   3.807   3.883 -0.5901  0.0174 -0.1871
13500TIP3    H161991   2.306   3.895   3.886 -1.3085 -0.2342 -1.1389
13500TIP3    H261992   2.433   3.817   3.915 -1.1853  0.7970  1.2913
13501TIP3   OH261993   5.403   3.790   1.330 -0.1675 -0.0418  0.5348
13501TIP3    H161994   5.391   3.809   1.423  0.1692 -1.0524  0.7975
13501TIP3    H261995   5.481   3.840   1.305 -1.1457  1.4782  0.3841
13502TIP3   OH261996   1.636   0.434  13.730  0.5356 -0.1349 -0.3874
13502TIP3    H161997   1.552   0.452  13.773  0.2764 -1.8644 -0.0943
13502TIP3    H261998   1.612   0.408  13.641  0.8538  0.5344 -0.6716
13503TIP3   OH261999   3.895   5.547  11.362 -0.4166  0.0481 -0.2134
13503TIP3    H162000   3.850   5.563  11.279  0.2109  0.4015 -0.4931
13503TIP3    H262001   3.983   5.581  11.348  0.6313 -2.5481 -0.4070
13504TIP3   OH262002   4.909   1.521   0.073  0.2324 -0.0865  0.0812
13504TIP3    H162003   4.853   1.467   0.129 -1.5087 -1.1159 -2.4565
13504TIP3    H262004   4.978   1.462   0.043  0.8372  0.3113  0.6602
13505TIP3   OH262005   5.731   5.939  13.976 -0.2415  0.5042 -0.2549
13505TIP3    H162006   5.819   5.928  13.942 -0.5824  0.1268 -1.0397
13505TIP3    H262007   5.696   5.850  13.984 -1.6781  0.7021 -3.0551
13506TIP3   OH262008   2.397   5.497   1.817  0.4497  0.1882  0.1860
13506TIP3    H162009   2.337   5.448   1.873 -0.5866 -1.0926 -1.9178
13506TIP3    H262010   2.340   5.557   1.768  1.1980  0.6354 -0.1444
13507TIP3   OH262011   0.508   6.518   5.547 -0.0357 -0.2726 -0.6888
13507TIP3    H162012   0.515   6.606   5.584 -1.0048 -0.4577 -0.0216
13507TIP3    H262013   0.414   6.506   5.530  0.1191 -1.0642 -1.0416
13508TIP3   OH262014   0.026   6.320  13.438 -0.8058  0.0144 -0.5755
13508TIP3    H162015   0.061   6.348  13.353 -0.2093 -0.4566 -0.4963
13508TIP3    H262016   0.074   6.374  13.501 -0.0954 -0.7462 -0.4568
13509TIP3   OH262017   0.253   0.317  10.748 -0.3927  0.1166 -0.4228
13509TIP3    H162018   0.165   0.349  10.727 -1.4547 -0.8287  2.1308
13509TIP3    H262019   0.253   0.226  10.718  0.1336  0.4149 -1.3762
13510TIP3   OH262020   3.490   1.101   1.517  0.2633 -0.3657 -0.1196
13510TIP3    H162021   3.524   1.183   1.553  0.5498 -0.4248 -0.2540
13510TIP3    H262022   3.564   1.041   1.518  0.0003 -0.6964  0.1861
13511TIP3   OH262023   1.451   1.017  16.674 -0.1257  0.1106  0.1906
13511TIP3    H162024   1.420   0.936  16.633  1.8773 -0.8461  0.4292
13511TIP3    H262025   1.491   1.066  16.602  1.4240 -0.5658  0.5497
13512TIP3   OH262026   5.448   3.175   3.455  0.1530 -0.0328  0.6688
13512TIP3    H162027   5.406   3.213   3.532  1.4093 -0.0338  1.3850
13512TIP3    H262028   5.393   3.202   3.382 -0.2820  1.1939  1.4129
13513TIP3   OH262029   3.671   2.322   2.514  0.3411 -0.6039 -0.0925
13513TIP3    H162030   3.593   2.378   2.511 -0.1860 -1.3394 -0.6061
13513TIP3    H262031   3.639   2.236   2.487  1.3742 -0.8850 -0.4440
13514TIP3   OH262032   6.273   3.960   3.151 -0.7010  0.1787 -0.3366
13514TIP3    H162033   6.204   3.920   3.204 -0.0395  0.1314  0.5054
13514TIP3    H262034   6.226   4.005   3.081 -1.5012 -1.3704 -0.8376
13515TIP3   OH262035   5.247   0.725   0.688  0.1407  0.4458  0.0372
13515TIP3    H162036   5.305   0.790   0.650 -0.1702  1.9887  2.0211
13515TIP3    H262037   5.182   0.776   0.737 -2.4613 -1.2185 -1.4190
13516TIP3   OH262038   1.075   0.876   3.016 -0.6151  0.5842 -0.1769
13516TIP3    H162039   1.019   0.940   2.972  1.0885  0.9913 -1.8240
13516TIP3    H262040   1.114   0.824   2.946  0.9323  0.1668  0.9234
13517TIP3   OH262041   6.656   4.803  14.542  0.0862  0.2683  0.1085
13517TIP3    H162042   6.610   4.815  14.460 -1.1092 -2.2327  0.3331
13517TIP3    H262043   6.605   4.854  14.606  0.9508  2.1117 -0.5989
13518TIP3   OH262044   4.183   1.433  15.012  0.4210  0.0855  0.0317
13518TIP3    H162045   4.249   1.403  15.075  1.1056 -0.6786 -1.0148
13518TIP3    H262046   4.203   1.386  14.932 -0.4908  0.9711 -0.7495
13519TIP3   OH262047   2.124   6.671  12.170 -0.1958  0.3724 -0.4507
13519TIP3    H162048   2.113   6.655  12.077 -2.0144  0.2443 -0.2574
13519TIP3    H262049   2.207   6.628  12.193 -0.7227 -1.3756 -1.6199
13520TIP3   OH262050   6.709   2.068  17.148  0.0745  0.0919 -0.3545
13520TIP3    H162051   6.697   2.090  17.240  1.5616  0.2781 -0.1829
13520TIP3    H262052   6.761   2.140  17.113  0.6137 -0.6012 -1.0242
13521TIP3   OH262053   6.262   4.141   3.452  0.3267 -0.0268  0.6704
13521TIP3    H162054   6.313   4.174   3.377  2.0015 -0.5617  1.5185
13521TIP3    H262055   6.281   4.202   3.523  1.5343 -1.4002  1.5854
13522TIP3   OH262056   6.644   4.786   2.249 -0.2056 -0.2683  0.0892
13522TIP3    H162057   6.578   4.795   2.318 -2.6005  1.2110 -2.1795
13522TIP3    H262058   6.694   4.867   2.254 -0.6067 -0.0039 -0.0991
13523TIP3   OH262059   4.153   5.171  13.257 -0.1389  0.1375 -0.1732
13523TIP3    H162060   4.147   5.198  13.349  0.2886  2.0152 -0.6544
13523TIP3    H262061   4.112   5.242  13.209  1.0227 -0.0813 -1.5546
13524TIP3   OH262062   1.984   3.244  16.589  0.0917  0.0470  0.3740
13524TIP3    H162063   1.895   3.240  16.556 -0.2150  1.3314  0.9647
13524TIP3    H262064   1.977   3.215  16.680  0.3312 -0.1283  0.3382
13525TIP3   OH262065   3.487   0.317   3.928 -0.4539  0.4464  0.4422
13525TIP3    H162066   3.429   0.360   3.865 -0.4299  0.3854  0.3775
13525TIP3    H262067   3.482   0.370   4.007  0.7419  1.4390 -0.1115
13526TIP3   OH262068   1.821   3.911  11.896 -0.8175  0.2763  0.2665
13526TIP3    H162069   1.856   3.995  11.924 -1.0970  1.1687 -1.8365
13526TIP3    H262070   1.876   3.886  11.822 -0.5513 -1.5725  1.0417
13527TIP3   OH262071   3.623   4.840  13.760 -0.1918  0.0026 -0.6989
13527TIP3    H162072   3.562   4.895  13.710 -0.7407  0.5724  0.5467
13527TIP3    H262073   3.681   4.903  13.804  0.4196 -0.4947 -0.7838
13528TIP3   OH262074   4.876   4.917   5.156 -0.4327  0.2786 -0.1206
13528TIP3    H162075   4.834   4.836   5.128  0.9110 -0.8011  0.8612
13528TIP3    H262076   4.946   4.931   5.093  0.4875 -0.3422  0.7381
13529TIP3   OH262077   3.933   6.143  10.851 -0.1791  0.9774  0.6342
13529TIP3    H162078   3.895   6.229  10.870 -3.1467  0.4564 -1.9566
13529TIP3    H262079   3.998   6.160  10.782 -1.0208  1.1609 -0.1353
13530TIP3   OH262080   2.600   3.094  12.162  0.4753 -0.1030 -0.1566
13530TIP3    H162081   2.635   3.165  12.216  1.3767  0.7110 -1.7351
13530TIP3    H262082   2.508   3.117  12.150  0.5196  0.2614  0.1695
13531TIP3   OH262083   5.362   6.439   4.475  0.2250 -0.3984 -0.2019
13531TIP3    H162084   5.294   6.498   4.443 -1.4400 -2.2720 -0.3201
13531TIP3    H262085   5.331   6.352   4.453  3.0245 -1.3360 -0.8415
13532TIP3   OH262086   5.007   5.587  12.524 -0.0209 -0.0215  0.3754
13532TIP3    H162087   5.020   5.590  12.430  2.2158 -1.3157  0.5925
13532TIP3    H262088   5.066   5.654  12.559 -0.2397 -0.1039  0.9218
13533TIP3   OH262089   5.052   6.750  12.541 -0.3721 -0.1087 -0.2541
13533TIP3    H162090   5.132   6.749  12.488  0.5802  1.0416  1.0930
13533TIP3    H262091   4.981   6.740  12.477  0.7332  0.9398 -1.7246
13534TIP3   OH262092   4.160   3.397  13.257  0.0652 -0.3534 -0.1846
13534TIP3    H162093   4.084   3.362  13.305 -1.2887  0.6080 -1.5444
13534TIP3    H262094   4.212   3.441  13.324 -1.2024  0.0003  0.6081
13535TIP3   OH262095   2.287   1.190  16.100  0.0733  0.0443 -0.4254
13535TIP3    H162096   2.312   1.253  16.168 -3.6730  2.6315 -1.1375
13535TIP3    H262097   2.331   1.221  16.022  0.1544  0.3336 -0.2678
13536TIP3   OH262098   3.632   1.048  10.708  0.5889  0.2372 -0.9520
13536TIP3    H162099   3.597   0.960  10.694  0.9445 -0.0388 -0.1747
13536TIP3    H262100   3.559   1.106  10.687  0.4012 -0.2330 -1.6219
13537TIP3   OH262101   4.190   5.957   3.832 -0.6324  0.0475 -0.1451
13537TIP3    H162102   4.273   5.930   3.793 -0.7369 -0.7545  0.1499
13537TIP3    H262103   4.213   6.028   3.891 -0.0874 -0.4044  0.2028
13538TIP3   OH262104   4.911   2.301   2.967 -0.2651  0.1333 -0.2056
13538TIP3    H162105   4.868   2.357   3.032 -2.7116  0.0074 -1.5826
13538TIP3    H262106   4.907   2.213   3.004  1.2391  0.4360  0.8015
13539TIP3   OH262107   4.180   0.692  15.743 -0.4661  0.8648  0.0963
13539TIP3    H162108   4.111   0.676  15.808  0.2279 -0.5602  0.5259
13539TIP3    H262109   4.135   0.738  15.672 -1.3105  2.1551  1.4199
13540TIP3   OH262110   6.415   5.894   5.250  0.4804 -0.0497  0.2313
13540TIP3    H162111   6.351   5.877   5.319  0.3524 -0.9702 -0.1043
13540TIP3    H262112   6.492   5.843   5.276  0.3714 -0.5353 -0.3940
13541TIP3   OH262113   6.367   0.747  15.327 -0.3951  0.2494 -0.6875
13541TIP3    H162114   6.391   0.659  15.296  2.1025  0.5763  0.0961
13541TIP3    H262115   6.327   0.789  15.252 -1.6940 -1.5552 -1.0681
13542TIP3   OH262116   4.017   3.509  15.314  0.5179  0.1514 -0.1667
13542TIP3    H162117   4.111   3.497  15.301  0.4870 -1.0477  0.5906
13542TIP3    H262118   3.977   3.432  15.273 -0.1800  0.8830 -0.9019
13543TIP3   OH262119   0.096   3.287  12.717  0.3066 -0.4432 -0.5248
13543TIP3    H162120   0.123   3.378  12.732  1.2417 -0.4690 -1.8622
13543TIP3    H262121   0.000   3.291  12.712  0.3971  0.7910 -2.2898
13544TIP3   OH262122   5.685   5.682  14.796  0.2873 -0.3663 -0.3178
13544TIP3    H162123   5.628   5.753  14.826  0.1373 -0.6055 -0.0190
13544TIP3    H262124   5.682   5.687  14.701  0.5171  0.2138 -0.2967
13545TIP3   OH262125   4.579   1.596   1.854  0.1261  0.3411  0.1340
13545TIP3    H162126   4.590   1.641   1.770  0.8519  0.5674  0.3388
13545TIP3    H262127   4.524   1.655   1.906 -0.7508 -0.0347 -0.3479
13546TIP3   OH262128   1.371   1.277  15.826 -0.6781  0.1145 -0.2160
13546TIP3    H162129   1.300   1.218  15.853 -1.5117  0.9281 -0.5946
13546TIP3    H262130   1.408   1.235  15.749  1.0833 -1.7280  1.4965
13547TIP3   OH262131   4.853   5.631   6.566  0.2146  0.1051 -0.0832
13547TIP3    H162132   4.942   5.655   6.590 -0.4302  2.6885  0.0077
13547TIP3    H262133   4.846   5.539   6.591  2.4365  0.1887  1.1119
13548TIP3   OH262134   6.710   2.440   1.486  0.5798  0.2374  0.7356
13548TIP3    H162135   6.659   2.394   1.419  0.4991  1.0843  0.1870
13548TIP3    H262136   6.649   2.505   1.522  1.2145  1.1991  0.1384
13549TIP3   OH262137   6.766   2.044  16.189  0.2701 -0.3024  0.2202
13549TIP3    H162138   6.774   1.956  16.225  0.0567 -0.0035  1.0241
13549TIP3    H262139   6.783   2.102  16.264  1.8597  0.3608 -0.5925
13550TIP3   OH262140   2.975   6.040   6.115 -0.1579 -0.1410  0.2520
13550TIP3    H162141   2.986   5.961   6.168  2.4785  0.1045  0.2021
13550TIP3    H262142   3.045   6.035   6.050 -0.7700  1.6018 -0.6041
13551TIP3   OH262143   0.123   3.409  15.192 -0.5662  0.5992 -0.4368
13551TIP3    H162144   0.104   3.461  15.114 -1.7470  0.3493 -0.3312
13551TIP3    H262145   0.136   3.473  15.261 -0.9705  0.7940 -0.5367
13552TIP3   OH262146   2.955   4.426  13.599 -0.2728  0.0787 -0.5059
13552TIP3    H162147   2.963   4.338  13.635  0.6762 -0.1126 -1.1488
13552TIP3    H262148   2.888   4.468  13.653 -1.5345 -1.3652 -0.8828
13553TIP3   OH262149   2.954   0.147  13.397 -0.3768  0.6016  0.2722
13553TIP3    H162150   2.894   0.164  13.470  0.4011  1.3259  0.7592
13553TIP3    H262151   2.987   0.233  13.372  2.3219  0.0721  1.6354
13554TIP3   OH262152   4.547   6.558   1.786 -0.0081 -0.9612  0.3468
13554TIP3    H162153   4.593   6.614   1.723  1.0596  1.1211  2.7839
13554TIP3    H262154   4.525   6.616   1.858 -1.1832 -3.1991  1.9188
13555TIP3   OH262155   1.335   2.126  13.924 -0.0242 -0.9841  0.3736
13555TIP3    H162156   1.359   2.193  13.988 -1.0660 -0.0732 -0.1422
13555TIP3    H262157   1.260   2.164  13.877 -0.1931 -2.2278 -0.4084
13556TIP3   OH262158   2.993   0.139   3.730  0.0171 -0.0878  0.3747
13556TIP3    H162159   2.926   0.188   3.683  0.0106  0.5212  1.0158
13556TIP3    H262160   3.040   0.204   3.781  0.4804 -0.6453  0.6733
13557TIP3   OH262161   1.188   4.581  14.959  1.0434  0.3656  0.1495
13557TIP3    H162162   1.204   4.490  14.934  0.8374 -0.2712  2.1313
13557TIP3    H262163   1.276   4.619  14.968  1.2562 -0.4428  1.9164
13558TIP3   OH262164   5.967   3.584   5.121  0.3471 -0.2497 -0.2719
13558TIP3    H162165   5.873   3.574   5.112  0.2599 -0.7856  1.0258
13558TIP3    H262166   6.003   3.561   5.035 -0.7383  0.6708 -0.9948
13559TIP3   OH262167   6.610   1.781  14.452  0.0209  0.2305  0.2492
13559TIP3    H162168   6.529   1.787  14.502 -0.8586 -2.3573 -0.6861
13559TIP3    H262169   6.580   1.765  14.362  1.5908  1.8365 -0.6247
13560TIP3   OH262170   6.446   4.535  11.508 -0.6636 -0.3983 -0.3917
13560TIP3    H162171   6.400   4.458  11.474 -1.5705  0.0489 -0.2096
13560TIP3    H262172   6.405   4.609  11.464  1.1521 -0.0723 -1.6469
13561TIP3   OH262173   4.093   3.179   1.954  0.0580 -0.5072  0.6409
13561TIP3    H162174   4.077   3.169   1.860 -0.3193  0.0276  0.6405
13561TIP3    H262175   4.091   3.090   1.989  1.1218 -0.7982  0.0009
13562TIP3   OH262176   0.324   6.028   0.158  0.3213 -0.2975 -0.1178
13562TIP3    H162177   0.282   6.093   0.103  1.7248 -0.1969 -1.1138
13562TIP3    H262178   0.357   6.077   0.233 -2.1062 -0.5205  1.2102
13563TIP3   OH262179   2.626   0.915   6.018 -0.0910  0.1200  0.8219
13563TIP3    H162180   2.712   0.922   5.977 -1.0907  0.6796 -1.3441
13563TIP3    H262181   2.574   0.984   5.976 -1.8320 -0.7545  1.4466
13564TIP3   OH262182   2.654   2.906  15.938  0.5085  0.2143 -0.4077
13564TIP3    H162183   2.588   2.868  15.997 -0.0207 -0.7789 -1.5748
13564TIP3    H262184   2.711   2.957  15.995  0.3157 -1.1026  1.0285
13565TIP3   OH262185   1.481   6.478   0.092 -0.2061  0.0574 -0.1856
13565TIP3    H162186   1.394   6.480   0.051 -0.3891  1.6339  0.2246
13565TIP3    H262187   1.490   6.564   0.133 -0.1039 -1.4182  3.2303
13566TIP3   OH262188   3.908   0.941   1.094  0.6426  0.0956  0.4876
13566TIP3    H162189   3.938   0.982   1.013  2.3682 -0.5009  0.7792
13566TIP3    H262190   3.978   0.880   1.118  1.1848  1.6969  3.4926
13567TIP3   OH262191   2.633   4.323  13.384 -0.1781  0.0638 -0.4227
13567TIP3    H162192   2.544   4.357  13.389 -0.0244  0.7244 -1.7361
13567TIP3    H262193   2.635   4.272  13.303  0.6837  0.2287 -0.5186
13568TIP3   OH262194   0.433   3.391  15.634  0.2119  0.0180  0.0668
13568TIP3    H162195   0.387   3.363  15.713  1.8803  0.1809  1.1464
13568TIP3    H262196   0.524   3.366  15.648  0.7643  1.0734 -1.3206
13569TIP3   OH262197   1.950   0.633   6.927  0.4057 -0.5935 -0.3053
13569TIP3    H162198   1.998   0.642   6.845 -1.4176  2.4031 -1.2042
13569TIP3    H262199   1.867   0.678   6.911 -1.7782 -3.4685  1.8962
13570TIP3   OH262200   1.570   1.343  13.581 -0.2325  0.0091 -0.0786
13570TIP3    H162201   1.529   1.429  13.587 -2.7362 -1.1386  0.1343
13570TIP3    H262202   1.579   1.328  13.486 -2.9539 -0.8516 -0.2635
13571TIP3   OH262203   1.187   3.046   5.114 -0.0732 -0.1308  0.0022
13571TIP3    H162204   1.244   2.989   5.166 -0.2194 -0.6117 -0.3538
13571TIP3    H262205   1.152   2.988   5.046  0.9672  0.7238 -1.3058
13572TIP3   OH262206   0.206   3.705  14.589  0.7148 -0.1313  0.2879
13572TIP3    H162207   0.282   3.761  14.582  1.5983 -1.4385 -1.0665
13572TIP3    H262208   0.235   3.620  14.556 -1.6073 -0.3932 -1.3146
13573TIP3   OH262209   0.699   2.009   2.859 -0.4081  0.2671  0.2122
13573TIP3    H162210   0.710   1.976   2.948  1.7091  0.6767  0.1589
13573TIP3    H262211   0.736   1.941   2.803 -2.3121 -0.2852 -0.4624
13574TIP3   OH262212   4.671   2.373  15.336  0.8378 -0.1066  0.0192
13574TIP3    H162213   4.594   2.391  15.389  1.4830  0.7893  0.6814
13574TIP3    H262214   4.726   2.317  15.390  1.6375  1.0592  0.4750
13575TIP3   OH262215   4.652   4.761   5.962  0.0882  0.0137  0.5833
13575TIP3    H162216   4.655   4.843   6.012 -2.3396  0.7601 -0.3234
13575TIP3    H262217   4.567   4.722   5.986  0.1099 -0.9813 -0.8615
13576TIP3   OH262218   4.976   2.706   0.687 -0.3048 -0.3002 -0.6064
13576TIP3    H162219   4.928   2.667   0.614 -0.6530 -1.5079  0.2259
13576TIP3    H262220   5.061   2.730   0.651 -0.8522  0.1149 -1.6514
13577TIP3   OH262221   1.298   2.320  16.916  0.0817  0.8068  0.4848
13577TIP3    H162222   1.338   2.380  16.978  1.4035  2.2499 -1.6437
13577TIP3    H262223   1.371   2.273  16.876 -0.3883  2.1573 -2.1579
13578TIP3   OH262224   2.913   3.873   6.530  0.7771  0.7683 -0.2706
13578TIP3    H162225   2.863   3.849   6.608 -0.9143  0.2291 -1.4799
13578TIP3    H262226   3.004   3.870   6.559  0.1703  1.6630  1.9741
13579TIP3   OH262227   5.570   0.831  15.323  0.0626 -0.2280 -0.4182
13579TIP3    H162228   5.538   0.744  15.348 -0.8557 -0.1507 -1.2745
13579TIP3    H262229   5.498   0.890  15.342  0.8697  0.4519  0.6536
13580TIP3   OH262230   5.730   6.717   0.497  0.0475 -0.3700  0.7556
13580TIP3    H162231   5.754   6.626   0.515  0.0848 -0.7900 -1.1651
13580TIP3    H262232   5.788   6.743   0.426 -2.0394  0.1189 -0.8584
13581TIP3   OH262233   1.609   1.992   5.475 -0.1779 -0.4031  0.1859
13581TIP3    H162234   1.520   1.957   5.482 -0.1112 -0.6812 -0.3371
13581TIP3    H262235   1.642   1.958   5.392  0.4262 -0.3138  0.3874
13582TIP3   OH262236   1.272   4.541  11.353  0.1053 -0.6012  0.5609
13582TIP3    H162237   1.325   4.609  11.312  0.4889 -1.1192  0.1851
13582TIP3    H262238   1.240   4.581  11.434  1.1181 -0.2976  0.8283
13583TIP3   OH262239   4.977   1.316  16.146  0.6343 -0.2111 -0.5905
13583TIP3    H162240   4.968   1.331  16.052  1.5089  0.9531 -0.5063
13583TIP3    H262241   4.887   1.304  16.177  0.2472  0.4247 -1.4179
13584TIP3   OH262242   2.445   5.015   4.881  0.3637 -0.2642  0.4250
13584TIP3    H162243   2.534   4.984   4.867  0.5652  0.2565  0.5093
13584TIP3    H262244   2.446   5.105   4.848 -0.0517 -0.1567  0.6953
13585TIP3   OH262245   5.112   5.166  14.288 -0.4106  0.5209 -0.2084
13585TIP3    H162246   5.086   5.083  14.249  0.7255 -0.3205  0.7161
13585TIP3    H262247   5.046   5.229  14.259 -0.8135 -0.5132 -1.6400
13586TIP3   OH262248   4.406   1.627  13.167  0.4528  0.2558  0.0576
13586TIP3    H162249   4.324   1.673  13.186  1.3310  1.1125  1.9748
13586TIP3    H262250   4.441   1.603  13.253  1.0720 -2.2083 -0.8051
13587TIP3   OH262251   0.599   0.635   2.648 -0.0774 -0.3048  0.0785
13587TIP3    H162252   0.508   0.647   2.622  0.3058  0.0366 -1.1812
13587TIP3    H262253   0.605   0.542   2.673 -0.5279 -0.6089 -0.8957
13588TIP3   OH262254   6.145   3.470   1.371  0.3675 -0.4355 -0.5176
13588TIP3    H162255   6.212   3.404   1.355  1.8940  0.9520 -0.2020
13588TIP3    H262256   6.190   3.537   1.423 -1.1704  0.7311 -0.6193
13589TIP3   OH262257   0.766   6.387  15.062  0.3917  0.3464 -0.0770
13589TIP3    H162258   0.766   6.336  15.143  0.6303  0.7183  0.1643
13589TIP3    H262259   0.755   6.478  15.092  0.1618  0.4533 -0.4837
13590TIP3   OH262260   6.739   1.796  11.644 -0.3621 -0.8043  0.8646
13590TIP3    H162261   6.766   1.788  11.552 -1.0465  0.1826  0.5540
13590TIP3    H262262   6.681   1.722  11.659 -1.0486 -0.4332  0.1766
13591TIP3   OH262263   3.915   4.402  13.522 -0.1457  0.1178  0.0800
13591TIP3    H162264   3.833   4.406  13.471 -0.4870  2.1759  0.7228
13591TIP3    H262265   3.963   4.480  13.496  1.0469 -0.3842  0.7128
13592TIP3   OH262266   0.319   2.276   1.669  0.3435 -0.0818  0.1729
13592TIP3    H162267   0.319   2.307   1.579  0.7046 -0.1078  0.1640
13592TIP3    H262268   0.226   2.266   1.691  0.2572 -0.2232 -0.2445
13593TIP3   OH262269   4.694   5.087  15.140 -0.3026  0.1563 -0.5559
13593TIP3    H162270   4.706   5.173  15.102  2.0085  0.6775  1.1309
13593TIP3    H262271   4.761   5.081  15.209 -1.6006 -2.2529  0.6427
13594TIP3   OH262272   6.345   2.832   1.647  0.1947 -0.1667  0.4432
13594TIP3    H162273   6.261   2.786   1.642  0.1795 -0.2210  1.1614
13594TIP3    H262274   6.341   2.880   1.729  0.9821 -0.3880  0.6146
13595TIP3   OH262275   4.886   6.270  12.622 -0.5008  0.1822 -0.5620
13595TIP3    H162276   4.859   6.278  12.531 -1.2679  1.7535 -0.2390
13595TIP3    H262277   4.856   6.351  12.663  3.2386  1.3815  0.2452
13596TIP3   OH262278   3.083   5.067   0.719 -0.6704 -0.1633  0.6422
13596TIP3    H162279   3.117   5.040   0.805 -1.7658  0.6878  1.3754
13596TIP3    H262280   3.098   5.162   0.717 -1.0629 -0.1125  0.0821
13597TIP3   OH262281   2.261   5.587  14.010 -0.3321 -0.7145 -0.1034
13597TIP3    H162282   2.317   5.643  14.065 -1.0512  0.2324 -0.3177
13597TIP3    H262283   2.322   5.527  13.967  0.4793  0.0256 -0.0110
13598TIP3   OH262284   0.474   6.613   1.287  0.2422  0.4837  0.3497
13598TIP3    H162285   0.469   6.529   1.242 -2.0956  0.4113  0.6522
13598TIP3    H262286   0.561   6.646   1.266  1.0505 -1.7863 -0.1480
13599TIP3   OH262287   5.755   2.657  11.918  0.3628 -0.2912 -0.4507
13599TIP3    H162288   5.840   2.693  11.942  0.0877  0.0824 -0.0006
13599TIP3    H262289   5.698   2.734  11.912  0.0448 -0.5453 -0.6733
13600TIP3   OH262290   3.836   1.056   6.403  0.2500  0.1752  0.5292
13600TIP3    H162291   3.814   1.097   6.319  1.8985  1.9191  0.8739
13600TIP3    H262292   3.758   1.006   6.427 -0.8131  0.8599 -1.2962
13601TIP3   OH262293   5.506   3.943   0.119 -0.2197  0.2516  0.1932
13601TIP3    H162294   5.504   3.848   0.129 -1.3881  0.2709  0.2789
13601TIP3    H262295   5.434   3.975   0.174 -0.4805  1.1005 -0.6017
13602TIP3   OH262296   0.295   2.247  14.717 -0.7282 -0.2098 -0.3167
13602TIP3    H162297   0.385   2.274  14.700 -0.9667  0.3273 -0.7431
13602TIP3    H262298   0.302   2.180  14.785  0.0248 -0.4515 -0.6279
13603TIP3   OH262299   2.818   0.822   2.725 -0.2948 -0.1502  0.0471
13603TIP3    H162300   2.848   0.907   2.695  0.0430  0.6054  2.3298
13603TIP3    H262301   2.740   0.804   2.674  0.0856  1.1501 -1.0296
13604TIP3   OH262302   3.031   2.113  15.056  0.3456 -0.2623  0.2326
13604TIP3    H162303   3.099   2.173  15.026  1.2950 -0.7616  1.3181
13604TIP3    H262304   2.970   2.107  14.982  0.6476  1.3985 -0.1831
13605TIP3   OH262305   0.153   0.989  14.784  0.0003 -0.1285 -0.0462
13605TIP3    H162306   0.216   0.964  14.717  0.2711  1.1062 -0.2600
13605TIP3    H262307   0.067   0.970  14.745  0.1958 -1.1532 -0.0145
13606TIP3   OH262308   4.859   2.721   1.759 -0.2906  0.0956 -0.6291
13606TIP3    H162309   4.856   2.794   1.820  0.6053 -0.3190 -0.0640
13606TIP3    H262310   4.793   2.742   1.693 -0.2141  1.2956 -0.3516
13607TIP3   OH262311   6.003   3.125  11.469  0.7218  0.2886  0.0813
13607TIP3    H162312   5.923   3.176  11.456 -0.6991 -1.4499  1.5787
13607TIP3    H262313   6.040   3.117  11.381  0.6775  3.2358 -0.3166
13608TIP3   OH262314   1.587   3.108   3.190 -0.2806  0.0637  0.0732
13608TIP3    H162315   1.509   3.100   3.135  0.3586  3.1179 -1.4717
13608TIP3    H262316   1.581   3.195   3.228  1.8581 -0.0469  0.8024
13609TIP3   OH262317   3.104   4.772  10.471  0.2871 -0.0937 -0.8071
13609TIP3    H162318   3.057   4.818  10.540  0.7282  2.1549 -1.9271
13609TIP3    H262319   3.086   4.679  10.488 -1.6884  0.5145  0.7962
13610TIP3   OH262320   3.130   0.796  13.618 -0.3642 -0.7684  0.1919
13610TIP3    H162321   3.101   0.742  13.692 -0.2321 -0.6562  0.3256
13610TIP3    H262322   3.138   0.884  13.653  0.4948 -0.8638  0.2547
13611TIP3   OH262323   1.251   3.282  12.111 -0.4988 -0.0367 -0.2353
13611TIP3    H162324   1.304   3.236  12.177 -0.5890  1.6774  1.0819
13611TIP3    H262325   1.162   3.250  12.125 -0.8706  1.7378  1.8578
13612TIP3   OH262326   6.763   0.817  17.469 -0.0515  0.8428  0.2236
13612TIP3    H162327   6.772   0.739  17.523  0.4729  0.3630 -0.5372
13612TIP3    H262328   6.826   0.879  17.505  1.4957 -0.0563 -0.8136
13613TIP3   OH262329   6.337   1.430  13.722 -0.3905 -0.5692 -0.2742
13613TIP3    H162330   6.349   1.410  13.630 -1.0719 -0.6178 -0.3578
13613TIP3    H262331   6.242   1.431  13.735 -0.2980 -1.1760  0.5623
13614TIP3   OH262332   2.835   4.137   5.030 -0.0935  0.4738 -0.4365
13614TIP3    H162333   2.893   4.063   5.049 -0.6767  0.1061 -0.0637
13614TIP3    H262334   2.760   4.098   4.986 -0.0524  0.9547 -0.9484
13615TIP3   OH262335   1.961   2.972  11.684  0.1386 -0.1447  0.0287
13615TIP3    H162336   1.966   2.963  11.780  0.5803  0.4455  0.0668
13615TIP3    H262337   1.893   3.037  11.670 -0.1282 -0.4466 -0.0707
13616TIP3   OH262338   5.905   3.469  14.794 -0.2022 -0.3466 -0.2605
13616TIP3    H162339   5.985   3.521  14.787  0.6640 -1.7905 -1.9314
13616TIP3    H262340   5.846   3.507  14.728 -0.0722 -0.5996 -0.5283
13617TIP3   OH262341   3.937   6.249   0.651 -0.4135  0.2678  0.5990
13617TIP3    H162342   3.958   6.341   0.638 -0.2314  0.1026 -0.4257
13617TIP3    H262343   4.011   6.202   0.612  0.3059 -0.3258  2.5636
13618TIP3   OH262344   5.202   0.381   5.641  0.1552 -0.4724 -0.4097
13618TIP3    H162345   5.272   0.331   5.682 -0.3422 -1.0234 -0.2191
13618TIP3    H262346   5.185   0.453   5.702 -0.3304 -1.0813  0.1870
13619TIP3   OH262347   1.336   5.659  11.604 -0.0814 -0.7077  0.1103
13619TIP3    H162348   1.331   5.678  11.510 -0.5000 -1.5593 -0.0524
13619TIP3    H262349   1.329   5.744  11.647  0.2617 -0.2949 -0.6339
13620TIP3   OH262350   3.784   4.208   5.591  0.0573  0.7776 -0.6388
13620TIP3    H162351   3.815   4.193   5.502  0.8861 -0.9834 -0.1020
13620TIP3    H262352   3.859   4.186   5.646 -0.3716  2.0219  0.5171
13621TIP3   OH262353   2.882   0.186  10.706 -0.4898 -0.1266 -0.3100
13621TIP3    H162354   2.822   0.260  10.693  2.1568  1.9453 -1.6907
13621TIP3    H262355   2.859   0.125  10.636 -0.8110  0.7846 -1.0302
13622TIP3   OH262356   2.237   3.977  15.941  0.1824 -0.7709 -0.8579
13622TIP3    H162357   2.213   3.953  16.030  0.6735 -0.2820 -0.5890
13622TIP3    H262358   2.278   3.898  15.905  2.1225 -0.2695  0.1395
13623TIP3   OH262359   2.803   2.502   2.896  0.4146 -1.0000 -0.5954
13623TIP3    H162360   2.814   2.483   2.803 -2.5994  1.2344 -1.6021
13623TIP3    H262361   2.725   2.453   2.921 -2.6510  3.0402 -1.1540
13624TIP3   OH262362   4.054   0.019  11.651 -0.1648 -0.2262 -0.3407
13624TIP3    H162363   4.006  -0.064  11.650  1.1370 -1.0541  1.3243
13624TIP3    H262364   4.131   0.001  11.704 -0.9219  2.6271  1.9444
13625TIP3   OH262365   0.369   6.714   3.047  0.0611  0.2054  0.2127
13625TIP3    H162366   0.442   6.653   3.034 -1.3537 -1.4300 -0.4456
13625TIP3    H262367   0.361   6.759   2.963  0.6210  0.7853  0.4570
13626TIP3   OH262368   3.476   1.337   0.303  0.4196  0.0510 -0.1216
13626TIP3    H162369   3.558   1.327   0.256  0.2055  0.5285 -0.6088
13626TIP3    H262370   3.418   1.271   0.265  0.5671 -0.2695  0.2052
13627TIP3   OH262371   2.201   0.553  12.455 -0.1535  0.5773  0.6417
13627TIP3    H162372   2.148   0.614  12.403 -0.3822  0.4034  0.6698
13627TIP3    H262373   2.139   0.486  12.483  0.0788  0.3845  0.6924
13628TIP3   OH262374   4.874   2.880   4.742  0.5055 -0.2007  0.4856
13628TIP3    H162375   4.811   2.844   4.680 -0.4657  1.1740  0.6326
13628TIP3    H262376   4.856   2.833   4.824 -0.4504  0.2846  0.5685
13629TIP3   OH262377   3.875   2.385   3.612 -0.5550  0.5151  0.4589
13629TIP3    H162378   3.893   2.479   3.611  0.0231  0.4048  0.2015
13629TIP3    H262379   3.952   2.345   3.571 -0.3983 -0.1423  1.3576
13630TIP3   OH262380   2.778   6.401  11.716 -0.1512  0.3852 -0.1032
13630TIP3    H162381   2.817   6.314  11.710  0.8727  0.7714  0.7271
13630TIP3    H262382   2.688   6.389  11.683 -0.2954 -1.1569  0.7563
13631TIP3   OH262383   2.487   1.818   0.819  0.7080 -0.4558 -0.1783
13631TIP3    H162384   2.510   1.911   0.815 -0.7801 -0.0314  0.6203
13631TIP3    H262385   2.511   1.791   0.908  0.9767 -0.7998 -0.3520
13632TIP3   OH262386   5.161   3.186  17.117  0.9110 -0.1677 -0.8003
13632TIP3    H162387   5.091   3.190  17.051 -1.2735  5.1136  1.2905
13632TIP3    H262388   5.235   3.231  17.076  1.4220 -1.4146 -1.2991
13633TIP3   OH262389   6.083   1.373   4.219  0.0735  0.1599 -0.9515
13633TIP3    H162390   6.175   1.356   4.198  0.4130  0.9289 -0.1379
13633TIP3    H262391   6.084   1.458   4.261 -0.7764 -0.6253  0.7467
13634TIP3   OH262392   2.897   0.277   2.873 -0.1966  0.3132 -0.1177
13634TIP3    H162393   2.968   0.342   2.868  0.1890 -0.1603 -0.8865
13634TIP3    H262394   2.942   0.194   2.891 -0.6109  0.1154  0.0131
13635TIP3   OH262395   0.669   5.963   5.238 -0.1119 -0.1485 -0.4395
13635TIP3    H162396   0.621   5.884   5.211 -0.0752 -0.1708 -0.4399
13635TIP3    H262397   0.728   5.981   5.165  0.8640 -0.9185  0.1289
13636TIP3   OH262398   6.487   2.388   3.351 -0.1558  0.2787  0.1462
13636TIP3    H162399   6.511   2.479   3.365 -1.7834  0.4752  2.1762
13636TIP3    H262400   6.500   2.373   3.257  2.1840  1.9294  0.1261
13637TIP3   OH262401   2.173   2.469   6.200 -0.3965  0.4260  0.5170
13637TIP3    H162402   2.190   2.405   6.130  1.5537 -0.8953  2.1003
13637TIP3    H262403   2.141   2.546   6.154  0.2852 -0.5785 -1.7953
13638TIP3   OH262404   6.450   1.707  15.939  0.1713  0.0572  0.0155
13638TIP3    H162405   6.500   1.676  15.863  0.5530  0.2449  0.1852
13638TIP3    H262406   6.359   1.687  15.918  0.3821 -1.0075  0.0297
13639TIP3   OH262407   6.574   6.612  16.391 -0.2633 -0.5649  0.1108
13639TIP3    H162408   6.514   6.606  16.465 -0.9563 -0.8615 -0.4595
13639TIP3    H262409   6.654   6.568  16.421  0.0726  0.7880  1.2553
13640TIP3   OH262410   0.818   4.542   4.926  0.0211  0.3416  0.2318
13640TIP3    H162411   0.725   4.559   4.935 -0.0353 -0.0717  0.4395
13640TIP3    H262412   0.846   4.510   5.012  0.2726  0.0849  0.0571
13641TIP3   OH262413   2.053   3.267  14.458  0.3303 -0.2017 -0.0887
13641TIP3    H162414   2.043   3.360  14.479  0.5273 -0.2213  0.1003
13641TIP3    H262415   2.087   3.266  14.369  1.4992 -0.0578  0.3408
13642TIP3   OH262416   6.583   3.816  16.266  0.5473 -0.2703 -0.0519
13642TIP3    H162417   6.578   3.746  16.201  0.4859 -0.6231  0.3270
13642TIP3    H262418   6.669   3.804  16.307  0.9149  0.4340 -0.5970
13643TIP3   OH262419   6.297   6.295   1.218  0.2589  0.2718 -0.4513
13643TIP3    H162420   6.345   6.254   1.290 -0.8818 -0.2869  0.0143
13643TIP3    H262421   6.363   6.309   1.150  1.2142  0.1736  0.4340
13644TIP3   OH262422   0.711   5.716   0.529  0.3385  0.8243  0.2784
13644TIP3    H162423   0.693   5.802   0.490 -1.2838  0.0617 -0.8241
13644TIP3    H262424   0.692   5.654   0.458  1.5489 -0.4420  1.0241
13645TIP3   OH262425   4.095   2.780   2.960 -0.3267 -0.4506 -1.1869
13645TIP3    H162426   4.004   2.805   2.976  0.3195  1.1227  0.2328
13645TIP3    H262427   4.112   2.810   2.871 -0.8295  0.4224 -1.0043
13646TIP3   OH262428   2.799   1.777   5.969 -0.6092  0.4363 -0.5613
13646TIP3    H162429   2.821   1.689   6.000 -0.4730  1.2547  1.8872
13646TIP3    H262430   2.881   1.810   5.933 -0.3270  0.0228 -0.3136
13647TIP3   OH262431   0.500   5.086   3.001 -0.1480 -0.3426  0.2683
13647TIP3    H162432   0.420   5.115   2.957  0.1633 -0.8377 -0.6565
13647TIP3    H262433   0.570   5.125   2.949  0.2142 -0.3851  0.7306
13648TIP3   OH262434   1.906   0.715  14.615 -0.5278  0.2153 -0.1412
13648TIP3    H162435   1.891   0.636  14.564 -0.0967 -0.2801  0.4815
13648TIP3    H262436   1.820   0.737  14.651 -0.6749  0.1135 -0.4255
13649TIP3   OH262437   1.094   6.031  13.853 -0.0649 -0.2076  0.7232
13649TIP3    H162438   1.045   6.106  13.885 -0.6826 -1.2401  2.3174
13649TIP3    H262439   1.095   6.041  13.758  0.6538  2.2721  0.9188
13650TIP3   OH262440   2.364   2.381  16.151  0.6108 -0.1002  0.0114
13650TIP3    H162441   2.335   2.301  16.108  0.0886 -0.7896  1.5542
13650TIP3    H262442   2.375   2.356  16.243 -1.5049  2.0223  0.9675
13651TIP3   OH262443   2.015   3.967  11.404 -0.3779 -0.3487 -0.7657
13651TIP3    H162444   1.958   3.890  11.408 -1.9587  0.8094  0.6404
13651TIP3    H262445   1.955   4.040  11.384  0.3317  1.1028  1.8992
13652TIP3   OH262446   6.030   6.041   1.285 -0.5957 -0.0562 -0.2152
13652TIP3    H162447   6.015   6.131   1.314 -0.6159 -0.2837  0.5011
13652TIP3    H262448   6.070   6.050   1.199 -1.0861  0.6286 -0.3814
13653TIP3   OH262449   1.615   1.675  11.053  0.4023  0.1814 -0.3375
13653TIP3    H162450   1.648   1.758  11.086  0.2475 -0.1351  0.6435
13653TIP3    H262451   1.693   1.625  11.030  0.6371 -0.3247  1.3879
13654TIP3   OH262452   4.614   3.710  16.670 -0.4304  0.7890  0.3290
13654TIP3    H162453   4.525   3.679  16.682 -0.9868  1.8427 -0.8134
13654TIP3    H262454   4.604   3.794  16.625  1.1038  1.3706  1.0068
13655TIP3   OH262455   5.332   3.967  11.454  0.0860 -0.1905 -0.3313
13655TIP3    H162456   5.261   4.003  11.400 -0.4852 -1.1208 -0.2250
13655TIP3    H262457   5.287   3.920  11.524  0.8284  0.7376  0.7799
13656TIP3   OH262458   4.752   5.285   4.995  0.6442 -0.2239 -0.7647
13656TIP3    H162459   4.689   5.236   4.941 -0.9565  0.7155  0.1581
13656TIP3    H262460   4.708   5.294   5.079  1.4218  1.7181 -0.5380
13657TIP3   OH262461   2.191   2.945  14.465 -0.5860 -0.1742  0.3837
13657TIP3    H162462   2.213   2.861  14.505  2.2003 -0.3633 -1.2103
13657TIP3    H262463   2.247   3.008  14.510 -2.0554  0.7239  1.0087
13658TIP3   OH262464   3.340   0.323   2.828 -1.1593 -0.1410 -0.3483
13658TIP3    H162465   3.265   0.336   2.771 -0.7676 -2.0699 -1.3871
13658TIP3    H262466   3.302   0.297   2.912 -1.6926  1.2789 -0.1304
13659TIP3   OH262467   2.555   5.277  17.235 -0.1092  0.4301 -0.0758
13659TIP3    H162468   2.582   5.187  17.217 -1.7085 -0.2890  0.9026
13659TIP3    H262469   2.483   5.268  17.297 -0.0768  2.4146  0.3044
13660TIP3   OH262470   5.311   4.957   0.755 -0.4042  0.0505  0.2578
13660TIP3    H162471   5.283   4.875   0.715 -3.5778  0.5571  1.2061
13660TIP3    H262472   5.345   4.931   0.841  0.5516 -0.4142 -0.2377
13661TIP3   OH262473   5.686   6.531   1.149 -0.1482 -0.2668  0.1418
13661TIP3    H162474   5.724   6.447   1.174 -0.2328 -0.2585  0.2997
13661TIP3    H262475   5.625   6.509   1.079 -2.6688 -0.8387  2.3333
13662TIP3   OH262476   6.162   6.112  12.021  0.6187  0.4996  0.0770
13662TIP3    H162477   6.227   6.054  12.063  0.3958  0.5950  0.5666
13662TIP3    H262478   6.191   6.200  12.043  0.1706  0.5372  0.5414
13663TIP3   OH262479   3.594   5.106  16.220  0.4417 -0.5054  0.2748
13663TIP3    H162480   3.539   5.031  16.194  0.1711 -0.0211 -0.5934
13663TIP3    H262481   3.533   5.167  16.260 -0.0647  0.8134 -2.2735
13664TIP3   OH262482   2.234   5.671  13.116  0.4566  0.2025  0.1365
13664TIP3    H162483   2.183   5.716  13.183  0.2312  0.7599 -0.4008
13664TIP3    H262484   2.317   5.649  13.160  0.1148  0.0936  0.7446
13665TIP3   OH262485   1.222   5.120  13.109 -0.5019  0.9600  0.1934
13665TIP3    H162486   1.139   5.133  13.063 -0.6496  1.7323  0.6529
13665TIP3    H262487   1.245   5.207  13.141  0.6774  0.8145 -0.2367
13666TIP3   OH262488   3.269   0.080  14.952 -0.0695 -0.6080  0.1976
13666TIP3    H162489   3.255  -0.007  14.914 -1.5934  0.3874 -1.7211
13666TIP3    H262490   3.214   0.080  15.030  0.4353 -1.5578  0.5714
13667TIP3   OH262491   5.771   0.055  14.419 -0.1378  0.0568 -0.0833
13667TIP3    H162492   5.758   0.130  14.477 -1.0809 -1.3144  1.5421
13667TIP3    H262493   5.866   0.040  14.421  0.0795  1.2788 -0.5503
13668TIP3   OH262494   4.396   1.759   0.003 -0.0075  0.0525 -0.5101
13668TIP3    H162495   4.439   1.816  -0.061 -0.1669  0.2090 -0.4794
13668TIP3    H262496   4.328   1.814   0.042  0.6373  0.2308  0.4019
13669TIP3   OH262497   2.315   1.179  17.009 -0.0496  0.4163 -0.0730
13669TIP3    H162498   2.271   1.164  17.093  0.4456 -1.1067 -0.0524
13669TIP3    H262499   2.407   1.191  17.031 -0.0025  0.5781 -0.3493
13670TIP3   OH262500   1.645   3.176  12.573  0.0313  0.8606  0.0316
13670TIP3    H162501   1.553   3.163  12.594  0.0364  0.4582 -0.1904
13670TIP3    H262502   1.692   3.114  12.629  0.0752  0.1138 -0.8178
13671TIP3   OH262503   4.726   3.364   0.986  0.4078  1.0186 -0.3867
13671TIP3    H162504   4.756   3.329   1.070  0.7837  0.5830 -0.7000
13671TIP3    H262505   4.644   3.318   0.969  1.0866  0.0022 -0.9759
13672TIP3   OH262506   5.005   3.625   0.324 -0.4910  0.3205 -0.3616
13672TIP3    H162507   4.911   3.611   0.321 -0.3991 -0.4722  0.2095
13672TIP3    H262508   5.027   3.623   0.418  0.1442  0.1126 -0.5074
13673TIP3   OH262509   6.594   3.466   4.989  0.0501  0.5185 -0.0123
13673TIP3    H162510   6.550   3.432   5.067  1.6509 -1.4971  0.0967
13673TIP3    H262511   6.555   3.417   4.917  0.3476  0.5383 -0.1874
13674TIP3   OH262512   4.696   4.911  17.397 -0.7494  0.1143  0.3445
13674TIP3    H162513   4.613   4.957  17.391 -1.9630 -2.1505 -2.2440
13674TIP3    H262514   4.681   4.827  17.354  2.8573 -0.4205 -0.2540
13675TIP3   OH262515   0.983   5.099   5.878 -0.8853 -0.7311 -0.8020
13675TIP3    H162516   0.943   5.097   5.964 -0.1925 -1.3373 -0.4885
13675TIP3    H262517   0.969   5.189   5.847  0.5112  0.0733  0.7405
13676TIP3   OH262518   6.005   3.054   4.635 -0.2871 -0.0504  0.4857
13676TIP3    H162519   5.919   3.011   4.628 -0.2556 -0.1326  0.6018
13676TIP3    H262520   6.001   3.125   4.572 -0.9595  0.8393  1.4989
13677TIP3   OH262521   6.693   1.913  16.697 -0.4888  0.0988  0.1605
13677TIP3    H162522   6.755   1.917  16.770 -0.0387 -1.8732 -0.0543
13677TIP3    H262523   6.672   2.004  16.678  0.1424  0.6892  2.0981
13678TIP3   OH262524   4.331   1.254  13.264  0.0772  0.3821 -0.5732
13678TIP3    H162525   4.369   1.331  13.307  1.2279  0.7956 -2.2131
13678TIP3    H262526   4.250   1.287  13.224  1.2262  1.1902 -2.4244
13679TIP3   OH262527   2.128   2.646   1.475  0.1499  0.0192  0.2615
13679TIP3    H162528   2.054   2.657   1.415  1.0008 -2.1797 -1.3037
13679TIP3    H262529   2.177   2.728   1.468  0.5030 -0.3427 -2.5343
13680TIP3   OH262530   3.234   6.052  16.981 -0.2077  0.2802  0.0389
13680TIP3    H162531   3.194   6.125  17.029 -0.1146  0.5813 -0.3400
13680TIP3    H262532   3.315   6.089  16.945  0.6463 -0.4227  1.1380
13681TIP3   OH262533   0.017   0.027  16.634 -0.1278  0.2521  0.6624
13681TIP3    H162534   0.066  -0.052  16.657 -1.9607 -1.2323 -0.2732
13681TIP3    H262535   0.028   0.035  16.539 -2.8267 -1.0345  0.1452
13682TIP3   OH262536   4.964   6.012  17.151  0.1367  0.1143 -0.3119
13682TIP3    H162537   5.049   6.001  17.109 -0.5596 -1.8380 -1.3332
13682TIP3    H262538   4.908   6.050  17.083 -0.1770  0.0204 -0.1084
13683TIP3   OH262539   4.604   4.030  17.503 -0.4046  0.2184 -0.3001
13683TIP3    H162540   4.521   3.990  17.529  1.5729 -3.4055  1.2552
13683TIP3    H262541   4.636   3.974  17.431  0.2494  2.2291 -1.6658
13684TIP3   OH262542   1.923   6.595  12.941  0.0037 -0.5469  0.6608
13684TIP3    H162543   1.981   6.664  12.909 -0.1860 -0.3221  0.7955
13684TIP3    H262544   1.886   6.631  13.022 -0.3708 -0.6665  0.5410
13685TIP3   OH262545   5.079   1.482   4.337 -0.3812 -0.4118  0.2441
13685TIP3    H162546   5.165   1.439   4.331 -0.0857 -0.1375  2.0658
13685TIP3    H262547   5.038   1.463   4.253  0.9755 -1.6046 -0.2005
13686TIP3   OH262548   5.780   4.861   6.034 -0.2911 -0.5120 -0.3696
13686TIP3    H162549   5.801   4.770   6.058 -0.3775 -0.5837 -0.5615
13686TIP3    H262550   5.782   4.861   5.938  0.9913 -0.0086 -0.3598
13687TIP3   OH262551   6.028   6.309   1.260 -0.0955 -0.1746 -0.2830
13687TIP3    H162552   6.023   6.404   1.244  1.1407 -0.5286 -3.4589
13687TIP3    H262553   6.122   6.290   1.257 -0.4117 -1.6972 -1.2995
13688TIP3   OH262554   3.027   3.868   2.086 -0.1990 -0.1952 -0.5702
13688TIP3    H162555   2.996   3.890   1.998 -1.3856 -1.5587 -0.5322
13688TIP3    H262556   2.966   3.802   2.117 -0.2117  0.7405  1.5699
13689TIP3   OH262557   1.521   4.042  12.610 -0.2137 -0.6267 -0.0279
13689TIP3    H162558   1.490   4.125  12.573  0.1955 -0.5307 -0.1546
13689TIP3    H262559   1.442   3.987  12.614 -0.0922 -0.9839 -1.9585
13690TIP3   OH262560   5.863   0.282  16.986 -0.0478  0.3790  0.3846
13690TIP3    H162561   5.886   0.265  16.895 -0.8063  1.5548 -0.0406
13690TIP3    H262562   5.773   0.251  16.994 -0.5386  1.7267  0.2922
13691TIP3   OH262563   0.501   4.101  14.372 -0.3001  0.3751 -0.2823
13691TIP3    H162564   0.557   4.041  14.323  0.0527 -0.7725  1.4747
13691TIP3    H262565   0.548   4.184  14.370  0.3133  0.0257 -0.8243
13692TIP3   OH262566   1.302   6.467  16.182 -0.1173  0.7256 -0.5985
13692TIP3    H162567   1.289   6.388  16.235  1.6008  0.8539  0.0718
13692TIP3    H262568   1.318   6.434  16.093 -0.4313  0.3788 -0.5301
13693TIP3   OH262569   3.688   5.236   5.732 -0.4735  0.3122  0.4147
13693TIP3    H162570   3.692   5.275   5.644 -0.0914 -1.0835 -0.2256
13693TIP3    H262571   3.777   5.206   5.749 -1.0725 -1.8067  0.1032
13694TIP3   OH262572   4.714   6.198   3.583  0.1534  0.2802 -0.6204
13694TIP3    H162573   4.679   6.242   3.660  2.1481  0.4069  0.2852
13694TIP3    H262574   4.702   6.105   3.601 -0.9508  0.3364 -0.9796
13695TIP3   OH262575   6.148   1.761  14.465  0.1198 -0.8021 -0.0946
13695TIP3    H162576   6.118   1.831  14.524  1.5460  0.8758 -1.2601
13695TIP3    H262577   6.234   1.736  14.499  1.5128  1.0149 -1.9763
13696TIP3   OH262578   3.278   4.912   4.446  0.3083 -0.1601 -0.2008
13696TIP3    H162579   3.186   4.922   4.422  0.1606  0.6258  0.6360
13696TIP3    H262580   3.295   4.818   4.437  0.4924  0.0800 -4.0944
13697TIP3   OH262581   0.143   3.295  16.108  0.4022 -0.3205  0.4472
13697TIP3    H162582   0.162   3.249  16.189  3.7278 -0.5832 -0.3615
13697TIP3    H262583   0.112   3.381  16.136  1.3998 -0.4315  2.0166
13698TIP3   OH262584   1.623   1.654   4.871 -0.1949  0.0990  0.5897
13698TIP3    H162585   1.659   1.633   4.957  0.9570 -0.6981 -0.0627
13698TIP3    H262586   1.694   1.699   4.826 -0.6555  0.1546 -0.0927
13699TIP3   OH262587   0.213   0.022  11.738  0.1599 -0.2123  0.3251
13699TIP3    H162588   0.197   0.096  11.680 -0.7633 -0.3481  0.3913
13699TIP3    H262589   0.136  -0.034  11.728  0.7495 -1.0682  0.4284
13700TIP3   OH262590   4.305   1.165  11.257 -0.5467  0.5382  0.1788
13700TIP3    H162591   4.354   1.109  11.317 -1.2643  0.2033  0.4632
13700TIP3    H262592   4.243   1.105  11.214 -0.5362  0.9081 -0.3598
13701TIP3   OH262593   3.567   4.313   0.905  0.1850  0.1853 -0.7003
13701TIP3    H162594   3.605   4.303   0.818  2.3284  2.0056 -0.0530
13701TIP3    H262595   3.524   4.399   0.902 -0.5078 -0.1446 -0.2328
13702TIP3   OH262596   4.223   0.077   2.558 -0.1285  0.0788 -0.0531
13702TIP3    H162597   4.150   0.034   2.603  0.1051 -0.6089 -0.3189
13702TIP3    H262598   4.210   0.056   2.465 -0.0275  0.6157 -0.1951
13703TIP3   OH262599   0.892   1.859  12.348  0.4329  0.8227 -0.1578
13703TIP3    H162600   0.854   1.798  12.285 -1.0868  3.4264 -1.9492
13703TIP3    H262601   0.907   1.806  12.426  1.0404 -2.2267 -2.1617
13704TIP3   OH262602   5.559   6.553  12.280  0.0179 -0.4924  0.6992
13704TIP3    H162603   5.566   6.638  12.324  0.8171 -0.2910  0.1921
13704TIP3    H262604   5.558   6.574  12.187  3.3095 -1.1721  0.4111
13705TIP3   OH262605   1.762   0.685   4.673 -0.0799 -0.0942 -0.0610
13705TIP3    H162606   1.844   0.677   4.626  0.7092  1.8677  0.8582
13705TIP3    H262607   1.711   0.608   4.647  1.3857 -0.5073 -1.9070
13706TIP3   OH262608   2.514   4.240   0.183  0.5199  0.4244 -0.3866
13706TIP3    H162609   2.484   4.288   0.105  1.2291  0.3693 -0.7096
13706TIP3    H262610   2.558   4.163   0.147 -1.9325 -1.3251  0.1618
13707TIP3   OH262611   3.204   3.417  11.224 -0.2634  0.2566 -0.5660
13707TIP3    H162612   3.277   3.479  11.229 -0.0744 -0.0469  0.7943
13707TIP3    H262613   3.231   3.355  11.156  0.4559  0.5245 -0.5398
13708TIP3   OH262614   3.377   4.911  12.349 -0.2792 -0.1210 -0.0520
13708TIP3    H162615   3.404   4.996  12.384 -1.1827  1.6985 -3.3714
13708TIP3    H262616   3.283   4.908  12.364 -0.2217 -0.6659  0.2212
13709TIP3   OH262617   5.330   1.655  13.561 -0.5838  0.6034 -0.2353
13709TIP3    H162618   5.279   1.717  13.508 -0.6234  0.8399  0.0738
13709TIP3    H262619   5.405   1.706  13.591  0.4012 -0.0135 -1.5221
13710TIP3   OH262620   0.755   2.635   0.596 -0.5409  0.0744 -0.3587
13710TIP3    H162621   0.727   2.567   0.656  0.5148 -0.3310 -0.2933
13710TIP3    H262622   0.846   2.653   0.621 -0.8333  1.6091 -0.2876
13711TIP3   OH262623   3.270   3.430  16.839  0.4730 -0.0875  0.2786
13711TIP3    H162624   3.284   3.525  16.842  2.0411 -0.2827  0.1797
13711TIP3    H262625   3.199   3.418  16.776  1.5551  0.9109 -1.1944
13712TIP3   OH262626   5.783   1.160   3.487 -0.3179 -0.0969 -0.2766
13712TIP3    H162627   5.729   1.198   3.417  1.8136  0.1087 -1.8980
13712TIP3    H262628   5.831   1.090   3.444  0.0408 -0.9030  1.3566
13713TIP3   OH262629   3.644   1.723   6.134  0.6092 -0.7174  0.0611
13713TIP3    H162630   3.640   1.627   6.134 -0.1454 -0.7109  1.2836
13713TIP3    H262631   3.633   1.747   6.226 -0.1547  0.5696 -0.3412
13714TIP3   OH262632   6.702   5.522  11.149  0.1364 -0.3422 -0.0064
13714TIP3    H162633   6.683   5.615  11.143 -2.8631 -0.9715 -2.0824
13714TIP3    H262634   6.630   5.486  11.200  1.1800 -1.5930  0.6527
13715TIP3   OH262635   1.197   1.952   3.318 -0.4931 -0.0919  0.0272
13715TIP3    H162636   1.145   1.968   3.239 -2.0326 -1.4953  0.7195
13715TIP3    H262637   1.260   1.885   3.291  0.8749  1.4171 -0.7331
13716TIP3   OH262638   2.652   1.734  16.545 -0.4247 -0.5236  0.0083
13716TIP3    H162639   2.706   1.806  16.513  0.7688 -1.1360  0.5970
13716TIP3    H262640   2.570   1.743  16.497 -0.8423  2.0315  1.0084
13717TIP3   OH262641   6.214   0.332  11.867 -0.0089  0.2835 -0.0546
13717TIP3    H162642   6.188   0.325  11.959  1.1160  0.2266  0.2772
13717TIP3    H262643   6.282   0.400  11.867  0.6927 -0.4041 -0.6786
13718TIP3   OH262644   1.369   2.142  13.110 -0.3181  0.2680  0.2317
13718TIP3    H162645   1.461   2.168  13.104 -0.7273  1.8826  0.3964
13718TIP3    H262646   1.365   2.057  13.066  1.3834 -0.2124  0.9183
13719TIP3   OH262647   2.728   1.733   4.218 -0.6087  0.0227  0.1301
13719TIP3    H162648   2.785   1.702   4.288 -0.1886  2.3704  0.8840
13719TIP3    H262649   2.785   1.739   4.141 -0.5839 -0.5362  0.0975
13720TIP3   OH262650   5.039   1.642  16.679  0.4494 -0.8174  0.0215
13720TIP3    H162651   5.037   1.580  16.752 -0.9869 -0.3748  0.3782
13720TIP3    H262652   5.043   1.586  16.601  0.7649 -1.3219  0.3937
13721TIP3   OH262653   5.010   4.864  14.915 -0.0242 -0.5571 -0.2061
13721TIP3    H162654   5.005   4.862  14.819  2.6392 -0.3820 -0.4032
13721TIP3    H262655   4.971   4.948  14.939  0.6652  0.0864 -1.2630
13722TIP3   OH262656   2.185   1.040   5.074 -0.3935 -0.0795 -0.3685
13722TIP3    H162657   2.213   1.062   5.162 -0.0218 -0.6981 -0.3226
13722TIP3    H262658   2.114   0.977   5.086  0.4241 -1.0521 -0.5064
13723TIP3   OH262659   4.165   1.800   1.247 -0.0350 -0.1278 -0.1900
13723TIP3    H162660   4.236   1.864   1.243 -1.2319  1.3111  0.3635
13723TIP3    H262661   4.086   1.851   1.228 -1.1296 -1.2833  1.0188
13724TIP3   OH262662   1.261   1.836   4.031 -0.7155 -0.6037  0.1087
13724TIP3    H162663   1.293   1.831   4.122 -0.6285 -0.1057  0.1072
13724TIP3    H262664   1.338   1.857   3.980 -1.2109  1.7647  0.2395
13725TIP3   OH262665   1.828   5.530  11.233  0.2748 -0.1834  0.4602
13725TIP3    H162666   1.745   5.485  11.249 -0.2199 -0.2906 -1.9864
13725TIP3    H262667   1.869   5.481  11.161  1.6519  0.8924  0.4552
13726TIP3   OH262668   2.593   1.502  14.860  0.0123 -0.0370 -0.1284
13726TIP3    H162669   2.645   1.482  14.782 -0.2895  1.3279 -0.6944
13726TIP3    H262670   2.656   1.538  14.922 -0.0637  0.5785 -0.4076
13727TIP3   OH262671   3.418   5.607  12.107 -0.2067  0.0146  0.2107
13727TIP3    H162672   3.434   5.667  12.035  0.0679 -2.0275 -1.5039
13727TIP3    H262673   3.323   5.606  12.117 -0.1455  2.7513  2.1450
13728TIP3   OH262674   5.269   5.752   1.285 -0.4732 -0.1141 -0.0524
13728TIP3    H162675   5.349   5.797   1.312 -0.2911  0.3364 -1.3108
13728TIP3    H262676   5.215   5.750   1.365  0.2824  0.6709  0.4945
13729TIP3   OH262677   1.836   6.462  16.829  0.5683 -0.5972 -0.2568
13729TIP3    H162678   1.916   6.486  16.877  0.6765  0.3903 -0.8946
13729TIP3    H262679   1.772   6.528  16.855  0.2691 -0.7760 -0.5362
13730TIP3   OH262680   2.038   3.113   3.617  0.0522 -0.2218  0.1713
13730TIP3    H162681   2.091   3.141   3.691 -0.0524  1.0332 -0.2097
13730TIP3    H262682   1.948   3.114   3.650 -0.0586  0.9104 -0.1050
13731TIP3   OH262683   3.476   2.354   5.780  0.2733  0.5171 -0.3116
13731TIP3    H162684   3.455   2.420   5.713  0.7953  0.6032 -0.3988
13731TIP3    H262685   3.572   2.353   5.783  0.2568  0.5646  0.4897
13732TIP3   OH262686   4.105   5.021   1.094  0.2053  0.4159  0.1074
13732TIP3    H162687   4.019   5.005   1.132  0.3172 -0.8765 -0.1570
13732TIP3    H262688   4.167   4.996   1.162  0.4021  1.8779  0.5110
13733TIP3   OH262689   5.231   6.015   0.823 -0.1865 -0.3147 -0.0686
13733TIP3    H162690   5.193   5.986   0.906  1.9011 -0.4678  0.9166
13733TIP3    H262691   5.164   6.070   0.784 -1.4705 -0.7206  1.4284
13734TIP3   OH262692   2.932   0.493  13.164 -0.7018  0.0785  0.2965
13734TIP3    H162693   3.014   0.493  13.213 -0.0985  1.2892 -0.6513
13734TIP3    H262694   2.912   0.585  13.150 -1.5337 -0.2115 -0.5997
13735TIP3   OH262695   2.884   0.928  11.764  1.2727 -0.3772 -0.2439
13735TIP3    H162696   2.844   1.013  11.744  0.6328 -0.4470  0.6981
13735TIP3    H262697   2.876   0.919  11.859  2.0547 -1.1426 -0.2375
13736TIP3   OH262698   6.675   6.377  10.721  0.1225 -0.0207 -0.7781
13736TIP3    H162699   6.770   6.374  10.731  0.3631  3.2367 -1.0088
13736TIP3    H262700   6.641   6.327  10.794  1.9984 -0.8926 -0.4482
13737TIP3   OH262701   1.554   6.035   5.204 -0.9406  0.3397 -0.4575
13737TIP3    H162702   1.524   6.023   5.294 -1.4023  0.2556 -0.6224
13737TIP3    H262703   1.647   6.059   5.213 -0.6417 -0.9256 -0.0251
13738TIP3   OH262704   2.585   1.587   2.011 -0.2456 -0.1564 -0.5325
13738TIP3    H162705   2.535   1.518   2.054 -2.0351  1.9222  0.9535
13738TIP3    H262706   2.521   1.656   1.996  1.5020  1.2750 -1.7983
13739TIP3   OH262707   4.801   2.139  12.252 -0.4210  0.1921  0.0665
13739TIP3    H162708   4.804   2.201  12.325 -0.1914 -0.5159  0.6744
13739TIP3    H262709   4.862   2.069  12.277 -0.9183 -0.4411 -0.4383
13740TIP3   OH262710   4.047   1.510  13.859  0.1188 -0.2305 -0.1091
13740TIP3    H162711   4.060   1.576  13.928 -0.7484  0.7680 -0.8753
13740TIP3    H262712   3.960   1.528  13.825  0.8531 -0.1416 -2.0660
13741TIP3   OH262713   5.732   5.045   4.188  0.0796  0.4493  0.2442
13741TIP3    H162714   5.808   5.074   4.138  0.3110  0.3816  0.5579
13741TIP3    H262715   5.677   5.000   4.123  1.0526 -0.9100  0.3317
13742TIP3   OH262716   0.805   5.942   5.529 -0.1708  0.0059 -0.3213
13742TIP3    H162717   0.752   5.923   5.452 -0.5254  0.7475 -0.2666
13742TIP3    H262718   0.869   6.006   5.498 -0.8166  0.9150  0.1811
13743TIP3   OH262719   6.475   4.659  11.122  0.6543  0.3626  0.3445
13743TIP3    H162720   6.383   4.635  11.132  0.3697  1.2076 -0.1378
13743TIP3    H262721   6.473   4.747  11.085  1.6511  1.2937  2.3477
13744TIP3   OH262722   2.111   4.082   6.281 -0.3424 -0.2414 -0.2731
13744TIP3    H162723   2.129   4.098   6.188 -3.1517  0.2002 -0.8220
13744TIP3    H262724   2.170   4.009   6.304  1.4698  0.5845 -1.9469
13745TIP3   OH262725   5.581   3.343  12.858 -0.6617 -0.0712 -0.2937
13745TIP3    H162726   5.602   3.430  12.892  0.4576  0.2855 -1.7888
13745TIP3    H262727   5.514   3.357  12.792 -2.2874 -0.6709  1.1736
13746TIP3   OH262728   1.137   2.311  12.815  0.1770  0.2978  0.1248
13746TIP3    H162729   1.232   2.327  12.811  0.1219  0.8139  0.8249
13746TIP3    H262730   1.107   2.326  12.725  0.9094 -0.8689 -0.3341
13747TIP3   OH262731   3.175   1.940   2.320 -0.4489 -0.6410  0.6342
13747TIP3    H162732   3.094   1.932   2.371 -1.1781 -2.9978 -0.7332
13747TIP3    H262733   3.145   1.945   2.229  0.9276 -0.2812  0.1793
13748TIP3   OH262734   5.075   5.988   4.435  0.3721  0.3089 -0.2279
13748TIP3    H162735   5.109   6.029   4.356  0.6578  0.1836 -0.1752
13748TIP3    H262736   5.097   5.895   4.425  0.6162  0.3291  0.1001
13749TIP3   OH262737   6.429   4.825   0.912  0.3349 -0.3639 -0.0997
13749TIP3    H162738   6.436   4.883   0.836 -2.2787  0.9918  0.5665
13749TIP3    H262739   6.426   4.737   0.875 -0.3977  0.2371 -1.5386
13750TIP3   OH262740   6.272   4.527   2.832  0.4198 -0.2165  0.2370
13750TIP3    H162741   6.211   4.518   2.759  1.4270  0.3381 -0.6911
13750TIP3    H262742   6.281   4.438   2.866  0.4841 -0.6060 -0.7682
13751TIP3   OH262743   3.120   4.783  16.117  0.1762 -0.1936 -0.1191
13751TIP3    H162744   3.164   4.790  16.032 -0.1862  1.5158 -0.2031
13751TIP3    H262745   3.139   4.866  16.160 -1.0652 -0.3585  0.7769
13752TIP3   OH262746   2.402   5.255   1.257  0.1508 -0.5788 -0.2375
13752TIP3    H162747   2.356   5.226   1.336  2.3627 -1.6762  0.7552
13752TIP3    H262748   2.430   5.345   1.277 -0.8206 -0.2010 -0.5260
13753TIP3   OH262749   3.912   3.628   0.495  0.3696 -0.1116 -0.2282
13753TIP3    H162750   3.994   3.595   0.533  0.5652 -1.3904 -1.6482
13753TIP3    H262751   3.940   3.686   0.425  0.0966 -1.1936 -1.2575
13754TIP3   OH262752   1.776   2.642  12.087  0.1777 -0.5006 -0.1668
13754TIP3    H162753   1.839   2.570  12.089  2.8959  1.7119 -0.8372
13754TIP3    H262754   1.784   2.678  11.999 -1.4050  0.4479  0.0337
13755TIP3   OH262755   5.473   5.841  14.870 -0.3645  0.5084 -0.3679
13755TIP3    H162756   5.490   5.858  14.963  1.4434 -2.2235 -0.0548
13755TIP3    H262757   5.416   5.763  14.871 -1.8337  1.5159 -1.5994
13756TIP3   OH262758   6.196   5.597   5.369 -0.1004  0.0637  0.0705
13756TIP3    H162759   6.135   5.532   5.402  0.2475 -0.9314 -1.1697
13756TIP3    H262760   6.150   5.681   5.380 -0.3243 -0.2866  2.2119
13757TIP3   OH262761   5.730   3.270  13.090  0.7602  0.0306  0.3799
13757TIP3    H162762   5.740   3.177  13.111  1.8588  0.0002 -0.2205
13757TIP3    H262763   5.646   3.276  13.045  0.8648 -0.7373  0.0746
13758TIP3   OH262764   3.736   2.966   0.872  0.4304 -0.0028  0.0432
13758TIP3    H162765   3.767   3.022   0.943  1.3903 -0.2926 -0.1276
13758TIP3    H262766   3.697   2.891   0.916 -1.1345  0.9155  0.2773
13759TIP3   OH262767   3.629   5.843  12.877 -0.4313 -0.2668 -0.1075
13759TIP3    H162768   3.689   5.771  12.895  0.0549 -0.1622 -1.2875
13759TIP3    H262769   3.558   5.803  12.826  0.7693  0.4140 -2.4095
13760TIP3   OH262770   0.057   1.531   6.171  0.0467 -0.0983 -0.5563
13760TIP3    H162771   0.038   1.497   6.258 -0.8686 -1.0906 -1.1239
13760TIP3    H262772   0.109   1.610   6.187  0.6836 -0.7657  0.8529
13761TIP3   OH262773   4.145   4.087  17.159  0.5339  0.8936 -0.5953
13761TIP3    H162774   4.236   4.060  17.170  0.3051  0.6386  1.0447
13761TIP3    H262775   4.095   4.005  17.157  0.3588  1.0221 -1.7795
13762TIP3   OH262776   5.495   6.360   4.199  0.1430 -0.6612  0.1026
13762TIP3    H162777   5.582   6.397   4.187 -0.0296 -0.3249 -0.1106
13762TIP3    H262778   5.476   6.314   4.117 -0.5095  0.5656 -0.4635
13763TIP3   OH262779   2.332   2.217  16.380 -0.3293 -0.5970 -0.2148
13763TIP3    H162780   2.306   2.217  16.473 -0.5755  3.6745 -0.0857
13763TIP3    H262781   2.249   2.214  16.333 -0.4630  1.0827 -0.1321
13764TIP3   OH262782   4.651   2.928   4.990 -0.1177  0.3659 -0.0443
13764TIP3    H162783   4.712   2.992   5.026 -0.1223  0.2204  0.2199
13764TIP3    H262784   4.565   2.957   5.020 -0.0729 -0.0471  0.4997
13765TIP3   OH262785   5.868   3.171   0.261  0.3218  0.1809 -0.0015
13765TIP3    H162786   5.954   3.200   0.292 -0.0502  1.0715  0.2406
13765TIP3    H262787   5.807   3.236   0.297 -0.5226 -0.7738  0.3285
13766TIP3   OH262788   4.977   5.153  12.165  0.3806  0.0440 -0.1129
13766TIP3    H162789   4.884   5.150  12.188  0.2423 -0.1266 -0.6912
13766TIP3    H262790   5.013   5.072  12.201  0.1859 -0.1751 -0.4155
13767TIP3   OH262791   1.865   6.755   4.123 -0.0989  0.1012 -0.0230
13767TIP3    H162792   1.783   6.706   4.134 -1.1917  1.9630  0.5249
13767TIP3    H262793   1.845   6.820   4.056  0.7757  0.9216  0.4852
13768TIP3   OH262794   4.517   2.257  15.126  0.4004 -0.1257  0.2401
13768TIP3    H162795   4.606   2.276  15.155  0.2366  0.0443  0.6344
13768TIP3    H262796   4.461   2.303  15.188  0.0390 -0.1041 -0.1013
13769TIP3   OH262797   6.249   5.749  16.570 -0.3454  0.1475 -0.1807
13769TIP3    H162798   6.177   5.714  16.518 -0.4428  3.1932 -2.3832
13769TIP3    H262799   6.326   5.741  16.513  0.5256 -0.5345  1.0383
13770TIP3   OH262800   0.153   6.279  14.629  0.5988 -0.7057 -0.0886
13770TIP3    H162801   0.239   6.237  14.629  1.0527 -0.0327 -3.5319
13770TIP3    H262802   0.108   6.244  14.552 -0.6889  1.8211 -0.5951
13771TIP3   OH262803   3.729   1.150   1.221 -0.2178  0.1217  0.5479
13771TIP3    H162804   3.701   1.234   1.186  0.5318 -0.0293 -0.4489
13771TIP3    H262805   3.817   1.136   1.185 -0.3657 -1.1329  0.6059
13772TIP3   OH262806   1.844   1.041  12.696 -0.5235 -0.3288 -0.3092
13772TIP3    H162807   1.903   1.112  12.719 -0.9455  0.1119 -0.5533
13772TIP3    H262808   1.759   1.068  12.731 -0.2625 -1.7554  1.5884
13773TIP3   OH262809   5.332   3.225   6.440  0.1236  0.4135 -0.0372
13773TIP3    H162810   5.350   3.149   6.496 -0.5785  0.1498 -0.1649
13773TIP3    H262811   5.411   3.278   6.447  0.4828 -0.1538  0.3370
13774TIP3   OH262812   1.435   0.422   5.087 -0.4438  0.2770  0.2636
13774TIP3    H162813   1.500   0.387   5.026 -0.7399 -0.2529  0.2485
13774TIP3    H262814   1.487   0.465   5.155  0.0835 -2.2613  1.5909
13775TIP3   OH262815   3.791   5.222   1.167  0.0222  0.6965  0.6228
13775TIP3    H162816   3.698   5.206   1.147 -0.1707  2.1127  0.3139
13775TIP3    H262817   3.837   5.154   1.118 -0.7793  0.8509 -0.3792
13776TIP3   OH262818   0.570   4.164   3.336 -0.7524 -0.0166 -0.0212
13776TIP3    H162819   0.603   4.139   3.422 -0.6975 -0.2513 -0.1103
13776TIP3    H262820   0.632   4.126   3.274 -0.3194  0.8525 -0.1425
13777TIP3   OH262821   2.357   2.477  11.515 -0.6602 -0.3857 -0.9396
13777TIP3    H162822   2.279   2.479  11.460  2.0497  1.4895 -5.2675
13777TIP3    H262823   2.379   2.384  11.521 -1.8151 -0.7469 -1.8605
13778TIP3   OH262824   2.162   3.615   4.372  0.3879  0.0135 -0.2259
13778TIP3    H162825   2.177   3.629   4.466  0.7947 -1.5362 -0.0261
13778TIP3    H262826   2.249   3.624   4.333  0.1178  1.3263 -0.5807
13779TIP3   OH262827   1.334   3.888  14.827  0.6616  0.0828  0.0501
13779TIP3    H162828   1.256   3.839  14.803  1.7547 -0.7782 -1.9538
13779TIP3    H262829   1.391   3.824  14.868  0.3355  0.7239  1.5752
13780TIP3   OH262830   2.274   3.524   3.807  0.4457 -0.0324 -0.4633
13780TIP3    H162831   2.281   3.618   3.821  0.8372  0.0981 -1.4214
13780TIP3    H262832   2.364   3.493   3.805  0.3470 -0.3108 -0.8170
13781TIP3   OH262833   2.541   0.579  14.415 -0.4480  0.3426  0.1286
13781TIP3    H162834   2.570   0.488  14.406  0.3432  0.5779  0.1740
13781TIP3    H262835   2.470   0.588  14.352 -0.6936 -0.3737  0.2939
13782TIP3   OH262836   3.749   1.819  16.650  0.0810  0.4594 -0.2946
13782TIP3    H162837   3.725   1.770  16.729  1.1840  1.3596  0.6490
13782TIP3    H262838   3.709   1.770  16.578  0.4851 -1.3790  0.6604
13783TIP3   OH262839   3.798   5.252  15.545 -0.5874  0.2617 -0.5190
13783TIP3    H162840   3.741   5.181  15.514  0.2782 -0.2273 -1.0352
13783TIP3    H262841   3.792   5.249  15.640  0.1057 -1.0925 -0.4964
13784TIP3   OH262842   6.018   5.975   4.524  0.0403 -0.1853 -0.4535
13784TIP3    H162843   6.044   6.063   4.549  3.1525 -0.4534 -2.1666
13784TIP3    H262844   5.974   5.985   4.440 -2.4622 -0.0839  0.7766
13785TIP3   OH262845   1.987   6.251  14.319  0.9826  0.6898 -0.0175
13785TIP3    H162846   2.043   6.324  14.345  1.7973 -0.4462  1.6026
13785TIP3    H262847   1.939   6.228  14.399  0.5124 -0.3557 -0.5814
13786TIP3   OH262848   1.242   2.822   5.250 -0.4935 -0.5254 -0.2746
13786TIP3    H162849   1.270   2.753   5.189 -0.4292 -1.7827  1.1145
13786TIP3    H262850   1.176   2.780   5.305 -0.1393  0.3820  0.8974
13787TIP3   OH262851   6.135   1.518   5.816  0.6597  0.3844 -0.2095
13787TIP3    H162852   6.134   1.594   5.874 -2.9727  1.7566 -1.7333
13787TIP3    H262853   6.162   1.554   5.731  2.9331 -0.9723 -0.1375
13788TIP3   OH262854   5.601   2.294   5.598 -0.3047 -0.0123  0.0501
13788TIP3    H162855   5.543   2.243   5.654 -0.6227  0.2704 -0.0165
13788TIP3    H262856   5.550   2.371   5.574 -0.5882 -0.6375 -1.5164
13789TIP3   OH262857   4.782   3.785   0.101  0.5761  0.5985  0.0498
13789TIP3    H162858   4.769   3.759   0.010 -0.1615 -0.3550  0.4075
13789TIP3    H262859   4.766   3.705   0.151  1.2494  1.0431  1.0002
13790TIP3   OH262860   3.359   4.027  11.822 -0.1618  0.3359 -0.1268
13790TIP3    H162861   3.443   4.035  11.776 -1.4409  1.6457 -2.4373
13790TIP3    H262862   3.374   3.961  11.890  1.9543 -1.5430 -2.2649
13791TIP3   OH262863   5.407   5.359  17.113  0.1131 -0.2372  0.2556
13791TIP3    H162864   5.313   5.340  17.123 -0.0633  0.6867  0.4390
13791TIP3    H262865   5.440   5.287  17.060 -0.1925 -1.9714  2.2556
13792TIP3   OH262866   3.105   0.751  11.923  0.0783  0.5933  0.2326
13792TIP3    H162867   3.189   0.719  11.958  0.5803 -0.0338 -1.4480
13792TIP3    H262868   3.130   0.812  11.853 -0.8898  1.5638  0.7034
13793TIP3   OH262869   3.796   4.925  14.584  0.0379 -0.0497 -0.0792
13793TIP3    H162870   3.888   4.909  14.604  0.2534  2.7333  1.5693
13793TIP3    H262871   3.748   4.861  14.637  0.9467  0.5905  1.5489
13794TIP3   OH262872   5.332   5.280   5.313 -0.0455 -0.1949 -0.4315
13794TIP3    H162873   5.391   5.302   5.385  0.1310  1.2275 -0.9710
13794TIP3    H262874   5.383   5.222   5.257  1.1996  1.6461 -1.3082
13795TIP3   OH262875   2.796   2.584  17.485 -0.0452 -0.2071 -0.0925
13795TIP3    H162876   2.798   2.610  17.393 -1.8546 -2.2380 -0.7917
13795TIP3    H262877   2.734   2.645  17.526  0.2630  0.2917 -0.3610
13796TIP3   OH262878   6.658   1.482  16.622  0.2476 -0.1905  0.1936
13796TIP3    H162879   6.580   1.460  16.571  0.2590 -0.6651  0.3782
13796TIP3    H262880   6.710   1.537  16.564 -1.0236  1.6031  0.6548
13797TIP3   OH262881   3.277   6.224   5.127  0.6476 -0.0226 -0.2666
13797TIP3    H162882   3.260   6.141   5.170 -1.8081  0.3592 -0.3438
13797TIP3    H262883   3.372   6.236   5.133  0.7079 -1.2928  2.5399
13798TIP3   OH262884   1.147   2.280  12.498  0.2578 -0.3827 -0.5863
13798TIP3    H162885   1.158   2.271  12.403 -0.4810 -1.3762 -0.6089
13798TIP3    H262886   1.056   2.308  12.509  0.6329  0.7030 -0.2030
13799TIP3   OH262887   3.293   1.753   4.517 -0.2443  0.1182 -0.5994
13799TIP3    H162888   3.217   1.735   4.573  0.2276  0.9880  0.3460
13799TIP3    H262889   3.295   1.849   4.510  1.4689  0.1817  0.3923
13800TIP3   OH262890   0.636   2.282   6.106  0.0956  0.1234  0.0650
13800TIP3    H162891   0.687   2.324   6.176  0.1604  1.2131 -0.6276
13800TIP3    H262892   0.560   2.339   6.093 -1.5035 -1.5928  1.2471
13801TIP3   OH262893   2.689   5.557   3.703 -0.2302 -0.1738 -0.2885
13801TIP3    H162894   2.616   5.535   3.762 -1.7023 -2.3543 -2.6932
13801TIP3    H262895   2.764   5.510   3.739 -1.2877 -2.1359 -0.4680
13802TIP3   OH262896   5.507   0.023  14.390  0.3358  0.7473 -0.0527
13802TIP3    H162897   5.494   0.090  14.458 -0.3933 -1.8775  2.5872
13802TIP3    H262898   5.602   0.020  14.379  0.3538  2.9490 -1.1336
13803TIP3   OH262899   5.606   5.103   0.548 -0.0440  0.0623 -0.2863
13803TIP3    H162900   5.679   5.164   0.557  0.2105 -0.1347 -0.9668
13803TIP3    H262901   5.536   5.142   0.602  0.6484  0.0911  0.6256
13804TIP3   OH262902   1.428   4.448  15.482  0.2681  0.1156 -0.4457
13804TIP3    H162903   1.418   4.361  15.520  0.7728  0.6763  1.0204
13804TIP3    H262904   1.490   4.493  15.540 -2.3028  2.4827  0.6575
13805TIP3   OH262905   4.144   0.285   4.651  0.9100  0.1181  0.0064
13805TIP3    H162906   4.124   0.351   4.717  1.6890 -2.2614  2.8301
13805TIP3    H262907   4.064   0.277   4.600  0.3261  2.1357  0.4940
13806TIP3   OH262908   0.810   3.708  12.533 -0.5442 -0.1203  0.0549
13806TIP3    H162909   0.739   3.643  12.528 -0.7048  0.0929 -0.4463
13806TIP3    H262910   0.888   3.656  12.553 -0.9082 -0.3132  1.0457
13807TIP3   OH262911   4.364   2.570   4.483 -0.4151  0.4739  0.0503
13807TIP3    H162912   4.337   2.656   4.514 -0.6772  0.6186 -0.5531
13807TIP3    H262913   4.459   2.574   4.480 -0.4586  1.0522 -0.8108
13808TIP3   OH262914   5.376   3.743   4.121 -0.2489 -0.2197  0.0455
13808TIP3    H162915   5.397   3.665   4.071  1.7465 -0.1660  0.7012
13808TIP3    H262916   5.460   3.788   4.133 -1.0278  1.0076  1.3404
13809TIP3   OH262917   3.806   0.537  15.616  0.3430 -0.6960 -0.2400
13809TIP3    H162918   3.805   0.441  15.611 -1.4488 -0.9471  2.5370
13809TIP3    H262919   3.895   0.561  15.593  0.1131 -2.7084 -4.0262
13810TIP3   OH262920   2.561   3.740  13.700  0.1338 -0.4212  0.6133
13810TIP3    H162921   2.500   3.737  13.626  1.3763 -1.6222 -0.4042
13810TIP3    H262922   2.520   3.684  13.767  0.0792 -1.1962 -0.0540
13811TIP3   OH262923   2.740   1.417  15.637 -0.3896 -0.9774  0.2088
13811TIP3    H162924   2.700   1.494  15.594  0.7355 -0.0506  0.7703
13811TIP3    H262925   2.755   1.356  15.565  0.1924 -0.0083 -0.5233
13812TIP3   OH262926   3.559   3.108  16.219  1.1017 -0.2595  0.2226
13812TIP3    H162927   3.613   3.186  16.204  0.7191  0.0525  0.4239
13812TIP3    H262928   3.577   3.084  16.309  0.0710  0.5249  0.6623
13813TIP3   OH262929   5.293   6.590   4.161 -0.2809 -0.6527  1.1735
13813TIP3    H162930   5.359   6.659   4.167 -0.0343 -0.3854 -2.3520
13813TIP3    H262931   5.340   6.510   4.184  0.6975 -0.1875  0.8533
13814TIP3   OH262932   4.976   4.190  16.671 -0.1786 -0.2401  0.7171
13814TIP3    H162933   5.029   4.270  16.673 -1.1264  0.4158  0.5031
13814TIP3    H262934   4.896   4.214  16.718  0.0374 -1.4609  1.7497
13815TIP3   OH262935   2.081   2.897  16.689  0.8402 -0.2176  0.0237
13815TIP3    H162936   2.113   2.897  16.779  1.9545  0.7706 -0.3380
13815TIP3    H262937   1.986   2.889  16.697  0.9793 -0.8607  1.2470
13816TIP3   OH262938   0.778   0.048  16.691 -0.2261  0.2803  0.3324
13816TIP3    H162939   0.725   0.126  16.674  0.0864  0.5432  0.5613
13816TIP3    H262940   0.860   0.064  16.645  0.2808  0.6015  1.3103
13817TIP3   OH262941   2.046   2.619  13.469  0.7050  0.2562  0.0902
13817TIP3    H162942   1.958   2.657  13.468  1.4665  2.1509  1.3310
13817TIP3    H262943   2.037   2.540  13.416 -1.6654  0.5555 -0.0912
13818TIP3   OH262944   4.899   0.315  15.361 -0.0979  0.3147  0.0270
13818TIP3    H162945   4.832   0.357  15.308 -0.2426  1.2202  0.8778
13818TIP3    H262946   4.865   0.320  15.451 -0.3784 -2.1811  0.1117
13819TIP3   OH262947   4.197   3.089   3.162 -0.0671  0.1570 -0.2807
13819TIP3    H162948   4.285   3.108   3.196 -0.4679 -0.4008  1.1415
13819TIP3    H262949   4.198   3.122   3.072  1.9936 -0.9419 -0.7110
13820TIP3   OH262950   0.297   1.442  15.091 -0.0657  0.5227 -0.0221
13820TIP3    H162951   0.369   1.380  15.102 -0.0671  0.6393  0.6580
13820TIP3    H262952   0.217   1.390  15.104 -0.1152  0.3725 -0.8719
13821TIP3   OH262953   6.641   6.759  17.364  0.3677  0.2899  0.6102
13821TIP3    H162954   6.576   6.743  17.432 -0.2394 -0.7506 -0.1796
13821TIP3    H262955   6.606   6.716  17.286  1.3985  0.8082 -0.1740
13822TIP3   OH262956   5.896   6.192  16.754 -0.0624 -0.2531 -0.1776
13822TIP3    H162957   5.980   6.207  16.799 -1.1860 -0.4686  2.1510
13822TIP3    H262958   5.902   6.101  16.723  0.1695 -0.6383  0.9544
13823TIP3   OH262959   4.418   0.358   4.801 -0.7502  0.2806 -0.1848
13823TIP3    H162960   4.481   0.352   4.729 -1.1061 -0.0423 -0.4723
13823TIP3    H262961   4.371   0.275   4.799  0.1221 -0.2833  1.2679
13824TIP3   OH262962   6.035   2.692   5.557 -0.4790 -0.8554 -0.4196
13824TIP3    H162963   5.986   2.721   5.633  1.4334 -0.5492  0.7594
13824TIP3    H262964   6.121   2.666   5.591 -0.3213 -2.9668 -2.1411
13825TIP3   OH262965   3.723   5.369   0.903  0.0671  0.2397  0.1755
13825TIP3    H162966   3.713   5.362   0.808  1.4694 -0.0566  0.0322
13825TIP3    H262967   3.704   5.281   0.936  1.9713 -0.3072 -0.0899
13826TIP3   OH262968   4.977   4.515   2.049 -0.9832 -0.0499 -0.2981
13826TIP3    H162969   4.892   4.558   2.047 -0.6049  0.8080  0.8530
13826TIP3    H262970   4.957   4.421   2.045 -1.9774  0.1404 -0.0365
13827TIP3   OH262971   1.156   1.790   5.160  0.4984  0.3549 -0.4868
13827TIP3    H162972   1.075   1.748   5.187  0.1008  1.5095  0.1820
13827TIP3    H262973   1.200   1.724   5.106 -1.9654  0.5382 -2.9275
13828TIP3   OH262974   4.675   4.570  13.894  0.2305 -1.0072  0.2147
13828TIP3    H162975   4.580   4.574  13.888  0.2991  0.6156 -0.1315
13828TIP3    H262976   4.704   4.540  13.808  0.1930  3.0105 -1.4276
13829TIP3   OH262977   3.456   1.498   0.753 -0.1653  0.0766  0.4008
13829TIP3    H162978   3.460   1.440   0.829 -0.3617  0.1583  0.4744
13829TIP3    H262979   3.375   1.472   0.707  0.3558 -0.5020 -0.2074
13830TIP3   OH262980   0.884   3.301   2.088 -0.3206 -0.3634  0.0877
13830TIP3    H162981   0.915   3.264   2.005 -1.4848 -0.9213 -0.1159
13830TIP3    H262982   0.930   3.385   2.095  1.9974 -1.5803  0.3190
13831TIP3   OH262983   0.054   2.175  15.591 -0.2514  0.0294 -0.5956
13831TIP3    H162984  -0.028   2.170  15.641  0.3757  0.5155  0.5081
13831TIP3    H262985   0.046   2.257  15.542 -0.3460  0.1568 -0.3666
13832TIP3   OH262986   2.147   1.089  11.504 -0.7516 -0.0183  0.2801
13832TIP3    H162987   2.088   1.051  11.569  0.9537 -0.7842  1.4564
13832TIP3    H262988   2.091   1.146  11.452 -2.5728 -0.8838  1.1666
13833TIP3   OH262989   6.719   5.958  11.115  0.3486 -0.3473 -0.0254
13833TIP3    H162990   6.673   6.022  11.061 -1.2602 -1.5957 -0.2417
13833TIP3    H262991   6.650   5.900  11.147  1.1187  0.6056  3.8633
13834TIP3   OH262992   5.143   6.531  13.886  0.0529 -0.3594 -0.0238
13834TIP3    H162993   5.084   6.578  13.945 -0.6451  1.5378 -2.0866
13834TIP3    H262994   5.231   6.555  13.916 -0.2598 -0.5904  1.1023
13835TIP3   OH262995   2.956   4.664  12.173  0.1629  0.1892 -0.2083
13835TIP3    H162996   2.976   4.571  12.176  0.6832  0.3076  2.4012
13835TIP3    H262997   2.862   4.668  12.192 -0.6034  0.1103 -3.4722
13836TIP3   OH262998   0.600   3.824  15.829  0.7017  0.1346  0.4592
13836TIP3    H162999   0.550   3.896  15.789  0.9605  1.5757  2.5343
13836TIP3    H263000   0.618   3.764  15.757 -1.4988  1.0081 -0.9261
13837TIP3   OH263001   6.194   4.726  17.079 -0.0386  0.4976  0.2641
13837TIP3    H163002   6.287   4.704  17.075 -0.2843 -1.2294  2.1840
13837TIP3    H263003   6.192   4.821  17.071  1.9002  0.5849  0.2825
13838TIP3   OH263004   2.149   5.627  14.345  0.6465 -0.2887  0.2291
13838TIP3    H163005   2.196   5.698  14.302  0.4782 -0.3396 -0.0463
13838TIP3    H263006   2.068   5.618  14.295  0.2303 -0.0373  0.8531
13839TIP3   OH263007   4.727   0.204  11.262 -0.2701  0.3003  0.0947
13839TIP3    H163008   4.775   0.188  11.343  1.4660 -0.0715 -0.9254
13839TIP3    H263009   4.779   0.270  11.216  0.6196 -1.7258 -2.0614
13840TIP3   OH263010   0.103   4.980  16.123  0.1618 -0.0285  0.3241
13840TIP3    H163011   0.153   4.946  16.049 -1.8264  1.2115 -1.7135
13840TIP3    H263012   0.161   5.044  16.164  0.8713  0.2225 -1.0060
13841TIP3   OH263013   4.640   4.731   3.301  0.4998  0.8488  0.1871
13841TIP3    H163014   4.706   4.662   3.289  0.1607  0.7661 -1.4185
13841TIP3    H263015   4.645   4.752   3.394  0.4671 -1.4880  0.8014
13842TIP3   OH263016   0.367   6.633   4.891  0.0729 -0.7133 -0.2108
13842TIP3    H163017   0.370   6.723   4.925 -1.2640 -0.2872 -1.1353
13842TIP3    H263018   0.442   6.628   4.832 -0.5483  0.2558 -1.1336
13843TIP3   OH263019   6.595   1.772   2.314 -0.1844  0.2424 -1.0263
13843TIP3    H163020   6.651   1.787   2.391  0.1268 -0.3745 -1.1217
13843TIP3    H263021   6.657   1.757   2.242 -0.4730  0.1638 -1.2610
13844TIP3   OH263022   0.518   6.437   0.076 -0.1761  0.6434  0.2635
13844TIP3    H163023   0.612   6.425   0.065  0.0069  1.0082  1.3272
13844TIP3    H263024   0.494   6.501   0.009  0.5948  1.6436  0.9235
13845TIP3   OH263025   0.958   0.746  14.255 -0.0434 -0.0177 -0.6680
13845TIP3    H163026   0.891   0.694  14.300 -0.2033 -0.9045 -1.8671
13845TIP3    H263027   1.013   0.779  14.325 -0.6745 -0.7946  0.2278
13846TIP3   OH263028   5.048   2.736  12.191 -0.2504  0.2853 -0.1262
13846TIP3    H163029   5.124   2.790  12.215  1.0503 -1.5304  0.1541
13846TIP3    H263030   5.013   2.776  12.113  0.6984  1.4867  0.0377
13847TIP3   OH263031   4.499   4.195  10.695 -0.3011  0.2628 -0.3443
13847TIP3    H163032   4.582   4.233  10.723  0.3137  0.7229 -2.5749
13847TIP3    H263033   4.511   4.101  10.704  0.7988  0.2809 -1.4553
13848TIP3   OH263034   3.159   1.974   2.901 -0.1009  0.0942 -0.3033
13848TIP3    H163035   3.175   1.907   2.835 -2.1881 -2.5937  1.6742
13848TIP3    H263036   3.215   1.949   2.975 -0.3622  0.9729  0.2070
13849TIP3   OH263037   4.442   5.297  15.421 -1.1617  0.4076  0.4711
13849TIP3    H163038   4.436   5.228  15.355 -1.4129  0.2920  0.6172
13849TIP3    H263039   4.422   5.378  15.374  0.0595  0.5066  0.0810
13850TIP3   OH263040   4.969   3.900   2.066 -0.0411 -0.5415 -0.5171
13850TIP3    H163041   5.051   3.859   2.095 -0.2645 -0.3686  0.4026
13850TIP3    H263042   4.966   3.884   1.972  1.3589 -0.0135 -0.6727
13851TIP3   OH263043   3.232   0.903   5.719 -0.5749  0.2765 -0.7097
13851TIP3    H163044   3.146   0.914   5.760 -1.1030  0.1746 -1.7447
13851TIP3    H263045   3.286   0.863   5.787 -1.0173  1.3944  0.3344
13852TIP3   OH263046   3.641   1.348   3.459 -0.0425  0.5830  0.4587
13852TIP3    H163047   3.615   1.355   3.550  0.0687 -1.7254  0.7208
13852TIP3    H263048   3.585   1.279   3.423  0.5815  0.7723 -0.9587
13853TIP3   OH263049   3.468   2.468  12.247 -0.0341 -0.3671 -0.1645
13853TIP3    H163050   3.513   2.394  12.207 -1.6807 -1.6948  0.3194
13853TIP3    H263051   3.538   2.521  12.284  1.3060 -0.7827 -1.9655
13854TIP3   OH263052   2.446   2.753   2.151  0.5422  0.0457 -0.0969
13854TIP3    H163053   2.442   2.831   2.095 -2.4239 -0.0206 -0.1378
13854TIP3    H263054   2.396   2.777   2.229  3.0424 -0.4968  1.8146
13855TIP3   OH263055   5.140   0.189  16.315  0.2332 -0.4537 -0.2263
13855TIP3    H163056   5.145   0.122  16.383 -1.7274 -0.7992 -0.3667
13855TIP3    H263057   5.137   0.272  16.364 -1.1735 -0.7022  0.1582
13856TIP3   OH263058   0.848   5.736  14.742  0.0300 -0.2818  0.0566
13856TIP3    H163059   0.777   5.678  14.768  0.0390  0.7266  2.6367
13856TIP3    H263060   0.919   5.677  14.715 -0.6515 -1.4020  0.6648
13857TIP3   OH263061   0.104   0.439   5.543  0.0015  0.2574  0.1252
13857TIP3    H163062   0.082   0.444   5.450  1.8553 -0.7784 -0.4258
13857TIP3    H263063   0.090   0.528   5.575  0.7928  1.0241 -1.5217
13858TIP3   OH263064   1.254   1.083   3.525  0.2351  0.4707  0.2193
13858TIP3    H163065   1.162   1.065   3.508  0.2074  1.0394 -0.2486
13858TIP3    H263066   1.299   1.002   3.500 -0.1262  0.2176  0.3825
13859TIP3   OH263067   4.536   3.468   3.105 -0.1111  0.1931 -0.5507
13859TIP3    H163068   4.608   3.510   3.152  0.5062 -1.4324  0.0357
13859TIP3    H263069   4.568   3.459   3.015 -1.1290  2.9210 -1.3029
13860TIP3   OH263070   5.618   5.313   3.278  0.3899  0.7559 -0.2735
13860TIP3    H163071   5.615   5.370   3.201  0.4458  0.8937 -0.1723
13860TIP3    H263072   5.605   5.225   3.243  1.0259  0.7557 -0.5050
13861TIP3   OH263073   2.897   2.144  16.840 -0.2871 -0.1730 -0.3871
13861TIP3    H163074   2.973   2.200  16.825  0.6250 -1.6019 -1.2554
13861TIP3    H263075   2.892   2.136  16.936 -1.0148  2.1115 -0.1791
13862TIP3   OH263076   0.188   1.073  15.644 -0.2240 -0.1951 -0.0426
13862TIP3    H163077   0.158   1.155  15.685 -0.4483 -1.1158  1.7262
13862TIP3    H263078   0.110   1.039  15.599 -0.2733  0.2768 -0.3205
13863TIP3   OH263079   0.799   3.920   2.359 -0.2254 -0.2398  0.3510
13863TIP3    H163080   0.754   3.876   2.432 -2.2443  1.3691  0.1595
13863TIP3    H263081   0.737   3.914   2.286  1.4652 -1.1906 -1.0803
13864TIP3   OH263082   0.214   4.453   3.405 -0.6609  0.2323  0.4522
13864TIP3    H163083   0.174   4.455   3.492  0.5466 -2.4592  1.1415
13864TIP3    H263084   0.303   4.484   3.419 -0.1680 -1.1075  0.3963
13865TIP3   OH263085   5.433   0.615   1.761  0.3943  0.1254  0.1859
13865TIP3    H163086   5.458   0.707   1.754  0.9445 -0.0068  0.3391
13865TIP3    H263087   5.340   0.613   1.738  0.3465  0.7370  0.3156
13866TIP3   OH263088   3.848   2.595  13.428  0.0961  0.6949 -0.9673
13866TIP3    H163089   3.761   2.631  13.410 -0.8229 -2.4412 -4.0162
13866TIP3    H263090   3.833   2.533  13.500  0.1333  1.1975 -0.5235
13867TIP3   OH263091   6.377   4.500  16.649  0.7187  0.4861 -0.4898
13867TIP3    H163092   6.375   4.469  16.740  1.6700  1.1277 -0.2362
13867TIP3    H263093   6.370   4.595  16.656  1.2305  0.5662 -1.0675
13868TIP3   OH263094   1.643   3.720  10.543  0.3634  0.4817  0.4718
13868TIP3    H163095   1.618   3.798  10.494  0.1224  1.1496  1.6062
13868TIP3    H263096   1.561   3.673  10.558  0.4203  0.3335  0.3112
13869TIP3   OH263097   4.741   1.572  12.892 -0.2225 -0.1857  0.3390
13869TIP3    H163098   4.656   1.615  12.903 -0.1839 -0.4550  2.0072
13869TIP3    H263099   4.798   1.640  12.855 -1.0304  0.1252 -0.3717
13870TIP3   OH263100   0.132   5.272  13.001 -0.6008  0.0565 -0.8780
13870TIP3    H163101   0.151   5.365  12.990 -0.2161  0.1162  0.1969
13870TIP3    H263102   0.110   5.262  13.093  1.4783 -1.2611 -0.4469
13871TIP3   OH263103   5.886   3.119  17.524 -0.2912  0.7493  0.0488
13871TIP3    H163104   5.891   3.117  17.619 -0.6121 -0.1966  0.0600
13871TIP3    H263105   5.804   3.165  17.505 -0.3072  0.7947  0.2334
13872TIP3   OH263106   0.198   5.255   3.570  0.2964  0.4986 -0.2243
13872TIP3    H163107   0.254   5.245   3.493  0.7800  0.3008  0.1456
13872TIP3    H263108   0.257   5.243   3.644 -0.1753  0.6291  0.1788
13873TIP3   OH263109   4.521   6.498  15.734  0.0773 -0.6831  0.1835
13873TIP3    H163110   4.550   6.587  15.752  0.5097 -0.7662 -0.0918
13873TIP3    H263111   4.465   6.506  15.656 -0.0598 -0.6215  0.2886
13874TIP3   OH263112   5.098   3.528   4.263  0.0315 -0.4540 -0.5758
13874TIP3    H163113   5.190   3.523   4.289 -0.2166 -1.9460  0.1640
13874TIP3    H263114   5.089   3.614   4.221  2.2143 -1.0754 -2.5215
13875TIP3   OH263115   3.238   1.711   2.460  0.1907 -0.4082  0.4797
13875TIP3    H163116   3.167   1.659   2.421 -1.5034  1.7401  0.5552
13875TIP3    H263117   3.247   1.787   2.402  0.3675  0.8461  2.0829
13876TIP3   OH263118   5.609   4.335   2.549  0.1309 -0.1684 -0.4195
13876TIP3    H163119   5.616   4.431   2.548  0.1493 -0.0861 -3.5951
13876TIP3    H263120   5.643   4.308   2.464 -1.4756 -2.8751 -0.3084
13877TIP3   OH263121   4.281   5.209  16.732  0.5002  0.4884  0.1989
13877TIP3    H163122   4.186   5.206  16.735  0.3148  2.0405 -1.9359
13877TIP3    H263123   4.308   5.117  16.734 -1.1360 -0.0528 -0.7148
13878TIP3   OH263124   5.757   3.725   2.334  0.7596  0.1581  0.1962
13878TIP3    H163125   5.726   3.647   2.288 -0.0111  1.9570 -2.5888
13878TIP3    H263126   5.842   3.699   2.371  0.2261 -2.1420 -0.0485
13879TIP3   OH263127   0.978   4.917  15.497  0.8820 -0.1748 -0.5341
13879TIP3    H163128   0.890   4.892  15.469  1.1076  0.3345 -1.7555
13879TIP3    H263129   1.015   4.963  15.422  1.4712  1.3876  0.6655
13880TIP3   OH263130   3.654   5.501  11.016 -0.0181  0.6498  0.0990
13880TIP3    H163131   3.586   5.545  10.965 -0.0004  0.2469 -0.2824
13880TIP3    H263132   3.672   5.421  10.967 -0.6355 -0.2003  1.2153
13881TIP3   OH263133   3.292   4.381   4.660 -0.2545  0.2327 -0.2374
13881TIP3    H163134   3.264   4.428   4.739  0.2229 -0.6215  0.4511
13881TIP3    H263135   3.213   4.336   4.630 -0.6784  1.3143 -0.8121
13882TIP3   OH263136   4.191   5.122   0.358 -0.3716  0.7080 -0.5300
13882TIP3    H163137   4.104   5.095   0.329 -0.1774 -0.4790 -0.0577
13882TIP3    H263138   4.196   5.094   0.449  0.4070  1.0256 -0.4682
13883TIP3   OH263139   4.066   3.739   0.293 -0.4815 -0.1940  0.3700
13883TIP3    H163140   4.050   3.827   0.260  0.6655  0.6934  2.0036
13883TIP3    H263141   4.161   3.727   0.284 -0.5848 -1.1558  0.4297
13884TIP3   OH263142   6.032   1.443   6.155  0.4099  0.1232  0.6999
13884TIP3    H163143   5.975   1.472   6.227  2.8455  0.8758  2.4433
13884TIP3    H263144   6.030   1.516   6.093 -0.7627 -0.0194  0.5344
13885TIP3   OH263145   5.163   1.392   0.089  0.1089 -0.3539 -0.6036
13885TIP3    H163146   5.201   1.446   0.158  1.0846  0.0936 -1.4744
13885TIP3    H263147   5.224   1.319   0.079 -0.9295 -1.3708  0.1987
13886TIP3   OH263148   0.031   6.527  14.398 -0.1307  0.2328  0.2947
13886TIP3    H163149   0.005   6.563  14.313  2.3726  2.5673  0.3823
13886TIP3    H263150   0.033   6.602  14.456  1.5193 -0.7110  1.5472
13887TIP3   OH263151   5.258   4.971  16.485 -0.2981 -0.6483  0.1175
13887TIP3    H163152   5.335   4.977  16.542  0.6477 -2.6427 -0.8725
13887TIP3    H263153   5.187   4.942  16.544  0.0981 -0.4525  0.7041
13888TIP3   OH263154   4.567   1.808  16.366 -0.6817  0.2663 -0.0021
13888TIP3    H163155   4.658   1.812  16.395 -0.0859 -2.3267 -1.1865
13888TIP3    H263156   4.517   1.843  16.439  1.0866 -1.1907  2.0522
13889TIP3   OH263157   3.607   3.315   2.810  0.1150  0.2814  0.1267
13889TIP3    H163158   3.653   3.287   2.889 -1.1971 -0.7943  0.5704
13889TIP3    H263159   3.622   3.409   2.805  4.3705 -0.2724 -1.1506
13890TIP3   OH263160   5.690   6.006   4.611 -0.0390  0.0131 -0.1882
13890TIP3    H163161   5.660   5.921   4.578  0.0699 -0.7529  1.5712
13890TIP3    H263162   5.616   6.038   4.662  0.9636 -0.4301  1.6008
13891TIP3   OH263163   5.297   1.425  11.252  0.2586  0.3593 -0.3200
13891TIP3    H163164   5.346   1.507  11.240 -0.9025  1.0340 -0.6892
13891TIP3    H263165   5.300   1.383  11.166 -0.0798  0.5736 -0.4418
13892TIP3   OH263166   6.636   0.914  11.051 -0.6706 -0.1346 -0.1416
13892TIP3    H163167   6.691   0.883  10.979 -1.0353 -0.7320 -0.1761
13892TIP3    H263168   6.586   0.837  11.077 -0.5962  0.0930  0.7071
13893TIP3   OH263169   2.845   0.162  14.144 -0.6085  0.5838  0.0165
13893TIP3    H163170   2.921   0.189  14.092  0.5033 -0.4524  1.0456
13893TIP3    H263171   2.803   0.094  14.091  0.6731 -0.6631  0.5524
13894TIP3   OH263172   4.547   5.466   5.985 -0.2965  0.4335 -0.1891
13894TIP3    H163173   4.504   5.542   6.023 -1.0811  0.7000 -1.5631
13894TIP3    H263174   4.531   5.395   6.048 -0.7884  1.0613  0.4024
13895TIP3   OH263175   3.895   0.906  17.299  0.1046  0.1814  0.0548
13895TIP3    H163176   3.865   0.948  17.218 -2.9424 -1.8417 -0.0361
13895TIP3    H263177   3.944   0.829  17.269  0.7902  0.5407  0.2097
13896TIP3   OH263178   1.022   6.619  11.085 -0.7172  0.2099 -0.4336
13896TIP3    H163179   1.046   6.712  11.088 -0.8835  0.2538 -0.4314
13896TIP3    H263180   1.043   6.592  10.996  1.6602 -0.3930  0.2509
13897TIP3   OH263181   4.274   0.071   4.768 -0.4433  0.6874 -0.2957
13897TIP3    H163182   4.226  -0.007   4.742 -0.5681  0.8705 -0.6237
13897TIP3    H263183   4.213   0.143   4.751 -1.0003  0.7358  1.6305
13898TIP3   OH263184   6.516   1.673   3.937 -0.2200 -0.0551  0.4714
13898TIP3    H163185   6.518   1.765   3.913 -0.3690 -0.0066  0.6480
13898TIP3    H263186   6.485   1.672   4.028  1.3781 -0.1479  1.0513
13899TIP3   OH263187   0.378   6.050  13.750  0.3468  0.2035  0.6593
13899TIP3    H163188   0.285   6.032  13.738  0.1697  0.6619  1.2822
13899TIP3    H263189   0.417   5.965  13.774  0.1216 -0.0221  0.2262
13900TIP3   OH263190   6.283   4.263  13.244  0.0179  0.5505  0.2778
13900TIP3    H163191   6.240   4.290  13.163  0.3666 -0.1206 -0.1381
13900TIP3    H263192   6.374   4.248  13.218  0.2366  0.7988  0.8967
13901TIP3   OH263193   1.620   0.629   0.044 -0.2336  0.0939  0.5744
13901TIP3    H163194   1.649   0.686  -0.027 -1.0276  1.1283  1.0403
13901TIP3    H263195   1.563   0.685   0.098 -1.9546 -1.4270  0.4444
13902TIP3   OH263196   0.010   1.520  13.516 -0.0984  0.1426 -0.5846
13902TIP3    H163197  -0.056   1.484  13.457 -1.2928  2.0858 -0.5243
13902TIP3    H263198  -0.040   1.562  13.585  1.2445  0.6172  0.1396
13903TIP3   OH263199   1.456   1.256  10.984  0.4332  0.5654 -0.4988
13903TIP3    H163200   1.467   1.229  10.892  1.4870 -0.5134 -0.0886
13903TIP3    H263201   1.538   1.301  11.006  0.6963 -0.2293  0.2296
13904TIP3   OH263202   4.722   4.072   5.976 -0.2370  0.5062 -0.1239
13904TIP3    H163203   4.699   4.044   5.888 -1.8673 -1.7510  0.9190
13904TIP3    H263204   4.674   4.154   5.989 -0.7629  0.3491 -0.9929
13905TIP3   OH263205   1.348   2.023  16.403 -0.2149  0.2391  0.3239
13905TIP3    H163206   1.285   2.035  16.331  0.3838  0.5888 -0.1482
13905TIP3    H263207   1.429   1.997  16.360  0.1885  0.5762  0.8684
13906TIP3   OH263208   4.077   2.348   5.408 -0.1351  0.4081  0.2142
13906TIP3    H163209   4.001   2.308   5.367 -1.2005  1.4977  1.0476
13906TIP3    H263210   4.147   2.283   5.399 -1.2453 -0.7495 -0.2619
13907TIP3   OH263211   6.433   0.556   3.625  0.0273 -0.3961 -0.1555
13907TIP3    H163212   6.354   0.510   3.655  0.2000 -1.0251 -0.6386
13907TIP3    H263213   6.414   0.581   3.535  0.1016  0.1041 -0.0328
13908TIP3   OH263214   1.570   1.553   4.494 -0.0360  0.3302 -0.3080
13908TIP3    H163215   1.665   1.543   4.493  0.0613  1.1975 -0.5626
13908TIP3    H263216   1.537   1.465   4.509  0.8611  0.4064  2.5681
13909TIP3   OH263217   2.570   1.011  11.909 -0.2196 -0.4772 -0.2360
13909TIP3    H163218   2.607   1.050  11.830 -0.8329  0.5457 -0.0245
13909TIP3    H263219   2.646   0.975  11.955  0.0403 -2.1135 -1.8177
13910TIP3   OH263220   4.574   0.629  12.181  0.2983 -0.0062 -0.4697
13910TIP3    H163221   4.584   0.534  12.188  4.1408  0.1350 -1.7182
13910TIP3    H263222   4.619   0.652  12.100  2.2165  3.1155  1.2872
13911TIP3   OH263223   4.153   2.902   0.312  0.3267  0.4182 -0.5418
13911TIP3    H163224   4.063   2.869   0.301  0.6091 -0.0975 -1.4987
13911TIP3    H263225   4.161   2.922   0.405 -1.0267  1.1944 -0.5733
13912TIP3   OH263226   3.418   4.151  17.385  1.1422 -0.3962 -0.4049
13912TIP3    H163227   3.498   4.149  17.332  1.1210 -0.7022 -0.4263
13912TIP3    H263228   3.405   4.243  17.406  2.7408 -0.5568  1.5054
13913TIP3   OH263229   2.198   5.792   3.754  0.2066 -0.4134 -0.4492
13913TIP3    H163230   2.265   5.743   3.707  0.5308  0.1573 -0.5852
13913TIP3    H263231   2.242   5.826   3.832 -0.7901 -2.9802  1.3641
13914TIP3   OH263232   1.125   0.295  14.883 -0.8728  0.4574 -0.4471
13914TIP3    H163233   1.107   0.308  14.790 -0.0092  0.6890 -0.5923
13914TIP3    H263234   1.081   0.213  14.905 -2.2568  1.0974 -0.7087
13915TIP3   OH263235   5.190   0.415  13.280 -0.4617 -0.3439 -0.2618
13915TIP3    H163236   5.237   0.390  13.200 -0.4954  0.0743 -0.4159
13915TIP3    H263237   5.240   0.488  13.316 -0.9742  0.0939 -0.4168
13916TIP3   OH263238   6.165   0.687   2.832  0.2584 -0.5607  0.1481
13916TIP3    H163239   6.184   0.598   2.861  0.7270 -0.9413 -1.2536
13916TIP3    H263240   6.115   0.676   2.751  0.9683  0.4414 -0.4416
13917TIP3   OH263241   0.374   4.134   4.153 -0.1721 -0.7592  0.2947
13917TIP3    H163242   0.357   4.040   4.146 -1.5248 -0.5262  0.2274
13917TIP3    H263243   0.411   4.158   4.068 -2.5151 -0.7320 -0.7915
13918TIP3   OH263244   4.587   6.305  13.800 -0.0618  0.0122 -0.3320
13918TIP3    H163245   4.667   6.255  13.783 -0.0473  0.1879 -0.7877
13918TIP3    H263246   4.598   6.385  13.748 -0.6061 -0.0313 -0.5088
13919TIP3   OH263247   5.026   3.605   1.940 -0.1289  0.0168 -0.3695
13919TIP3    H163248   5.092   3.559   1.993  0.3153 -1.3459 -2.0140
13919TIP3    H263249   5.001   3.541   1.873 -4.0679 -0.0084  0.8582
13920TIP3   OH263250   0.082   3.717   3.412 -0.0778  0.1161  0.4666
13920TIP3    H163251  -0.001   3.750   3.380  0.8911  0.7390 -1.5443
13920TIP3    H263252   0.073   3.622   3.408  0.0598  0.1497 -1.9903
13921TIP3   OH263253   5.512   5.248   1.793 -0.1920  0.0700 -0.4702
13921TIP3    H163254   5.481   5.336   1.813  1.2386  0.5490 -0.2504
13921TIP3    H263255   5.563   5.222   1.870 -1.2429 -1.2738 -0.2089
13922TIP3   OH263256   4.781   0.724   5.378  0.5254  0.0881 -0.0348
13922TIP3    H163257   4.810   0.646   5.425 -0.9823  1.0313  2.6281
13922TIP3    H263258   4.697   0.699   5.339  0.6444  0.0199 -0.2513
13923TIP3   OH263259   6.274   5.740  15.300  0.4143 -0.2986 -0.0575
13923TIP3    H163260   6.222   5.819  15.310  2.4636  1.2199 -0.5920
13923TIP3    H263261   6.239   5.697  15.222 -0.9086 -0.0891  0.4046
13924TIP3   OH263262   0.094   5.658  16.858 -0.0434 -0.0054  0.1473
13924TIP3    H163263   0.112   5.725  16.924 -0.1627 -0.2162  0.3921
13924TIP3    H263264   0.012   5.617  16.886  0.5579 -0.9596  0.5816
13925TIP3   OH263265   0.067   6.552   1.497  0.3334 -0.8228  0.4962
13925TIP3    H163266   0.109   6.636   1.478 -2.5368  0.3303 -1.6153
13925TIP3    H263267   0.046   6.556   1.590  0.4578  0.7587  0.4830
13926TIP3   OH263268   0.170   2.323   5.365  0.0228 -0.2771  0.5336
13926TIP3    H163269   0.258   2.307   5.397  0.5790 -1.3693 -1.3464
13926TIP3    H263270   0.130   2.380   5.431  2.6206  1.5649  0.7032
13927TIP3   OH263271   1.213   4.604  15.399  0.0572  0.4118 -0.1221
13927TIP3    H163272   1.297   4.557  15.405  0.4016  1.1521  1.4445
13927TIP3    H263273   1.156   4.557  15.459  0.1016  1.3678  0.6811
13928TIP3   OH263274   6.073   5.792   4.912  0.2321  0.0096 -0.1035
13928TIP3    H163275   5.994   5.754   4.952 -0.2602  0.7998 -0.2950
13928TIP3    H263276   6.039   5.862   4.856  1.0743  0.3423 -0.2035
13929TIP3   OH263277   6.088   2.902  13.475 -0.0737 -0.7278  0.0335
13929TIP3    H163278   6.040   2.836  13.425  0.0067 -0.0961 -0.9192
13929TIP3    H263279   6.021   2.952  13.521 -0.4037  0.4059 -1.6029
13930TIP3   OH263280   3.545   5.685  16.465  0.1917 -0.1210  0.0436
13930TIP3    H163281   3.579   5.728  16.544 -1.8183  0.3912  0.7058
13930TIP3    H263282   3.594   5.604  16.459  1.8581  0.7988  0.6005
13931TIP3   OH263283   5.604   1.170   5.980  0.0789 -0.0330 -0.8834
13931TIP3    H163284   5.676   1.223   5.945  0.6939 -0.9754 -1.0700
13931TIP3    H263285   5.598   1.095   5.921 -0.5505 -0.3647 -0.4151
13932TIP3   OH263286   5.245   6.172   4.862 -0.2315  0.7039 -0.7260
13932TIP3    H163287   5.327   6.125   4.846  0.9714  2.5136 -0.2286
13932TIP3    H263288   5.176   6.107   4.845  1.3113 -1.2609  0.0533
13933TIP3   OH263289   2.868   3.379  16.483  0.2330  0.3213  0.0601
13933TIP3    H163290   2.824   3.412  16.561 -0.1371  1.5055 -0.6061
13933TIP3    H263291   2.840   3.439  16.413 -0.3283 -1.3481 -1.2121
13934TIP3   OH263292   2.282   2.147  16.935 -0.0371 -0.1899  0.1829
13934TIP3    H163293   2.301   2.158  17.028  1.0431 -1.9609  0.2135
13934TIP3    H263294   2.349   2.087  16.904  1.2133  2.2776 -2.3332
13935TIP3   OH263295   0.079   5.084   4.919 -0.0502 -0.4180  0.0330
13935TIP3    H163296   0.154   5.142   4.908  0.4546 -1.2051 -0.8236
13935TIP3    H263297   0.114   5.009   4.967 -0.8221  0.1876  1.6334
13936TIP3   OH263298   6.350   5.549  17.278 -0.0871  0.3920  0.0409
13936TIP3    H163299   6.383   5.501  17.201  0.4855 -0.4045  0.7638
13936TIP3    H263300   6.291   5.615  17.241  0.2703  0.1057 -1.0935
13937TIP3   OH263301   1.783   3.893   2.487 -0.2198  0.0453 -0.0217
13937TIP3    H163302   1.723   3.858   2.554 -0.1722  0.6206  0.3214
13937TIP3    H263303   1.736   3.967   2.449 -0.2768 -0.3187 -0.6847
13938TIP3   OH263304   6.153   1.400  14.493 -0.0728 -0.0548 -0.2262
13938TIP3    H163305   6.190   1.479  14.532 -0.5947 -0.9589  2.3305
13938TIP3    H263306   6.067   1.428  14.461 -0.4845  0.3519  1.1473
13939TIP3   OH263307   3.162   5.434   3.183  0.4122 -0.2387 -0.2662
13939TIP3    H163308   3.182   5.475   3.268 -0.5694 -1.1949  0.4527
13939TIP3    H263309   3.082   5.477   3.154  1.0735  0.5093 -1.0168
13940TIP3   OH263310   3.450   5.166   0.239  0.2327  0.1211  0.2727
13940TIP3    H163311   3.534   5.127   0.263  0.1967  0.5419  1.1320
13940TIP3    H263312   3.425   5.218   0.316 -0.7231  0.1508 -0.0478
13941TIP3   OH263313   1.094   1.053  12.022  0.3267  0.2686  0.1922
13941TIP3    H163314   1.073   0.962  12.001 -0.5707  0.6233 -0.5533
13941TIP3    H263315   1.036   1.104  11.965  1.8270  1.3200 -0.4441
13942TIP3   OH263316   1.677   0.193  15.275 -0.0714 -0.3622 -0.1989
13942TIP3    H163317   1.723   0.117  15.312  0.1614 -0.0738  0.1074
13942TIP3    H263318   1.740   0.264  15.281 -0.3795 -0.0842 -0.2607
13943TIP3   OH263319   3.580   0.821  15.858 -0.8113  0.3243  0.1976
13943TIP3    H163320   3.630   0.778  15.928 -2.1158  1.1614  1.7249
13943TIP3    H263321   3.643   0.880  15.817  0.3610 -1.2108 -0.3451
13944TIP3   OH263322   1.597   0.447   3.032 -0.3983  0.0835 -0.1439
13944TIP3    H163323   1.654   0.479   2.961 -0.8100 -1.3009 -1.1448
13944TIP3    H263324   1.657   0.406   3.094 -0.1952 -0.4143 -0.6625
13945TIP3   OH263325   0.299   0.191   5.543  0.5626 -0.4408  0.8897
13945TIP3    H163326   0.258   0.269   5.508  2.0443  0.7432  1.6749
13945TIP3    H263327   0.384   0.187   5.500  0.3112 -1.9297  0.4779
13946TIP3   OH263328   2.124   2.331  15.551  0.0666  0.1715 -0.0674
13946TIP3    H163329   2.064   2.405  15.539  0.2121  0.3631  0.3584
13946TIP3    H263330   2.180   2.358  15.624 -0.0740 -0.4863  0.2912
13947TIP3   OH263331   3.826   2.473   3.107  0.0288 -0.2998  0.6169
13947TIP3    H163332   3.896   2.494   3.045 -0.2363  3.6579  1.3992
13947TIP3    H263333   3.746   2.501   3.063 -0.6013 -0.9324  1.3351
13948TIP3   OH263334   4.691   1.231   1.640  0.0842 -0.0072 -0.1296
13948TIP3    H163335   4.731   1.187   1.714 -0.5387  1.5582  1.2053
13948TIP3    H263336   4.710   1.324   1.654 -0.8059  0.4083 -1.4503
13949TIP3   OH263337   6.511   6.534  13.282  0.4718 -0.1996 -0.0145
13949TIP3    H163338   6.557   6.539  13.365  0.1855 -2.0698  0.2920
13949TIP3    H263339   6.554   6.599  13.226  1.0346  0.6721  1.3966
13950TIP3   OH263340   3.183   4.937  15.060 -0.7817 -0.5768  0.5149
13950TIP3    H163341   3.221   4.908  15.142 -0.2524 -0.8006  0.1933
13950TIP3    H263342   3.125   5.009  15.085 -0.1969 -0.2694  1.0185
13951TIP3   OH263343   0.491   4.452   3.368 -1.2388 -0.2254  0.3103
13951TIP3    H163344   0.489   4.408   3.453 -0.2129  0.3200  0.6383
13951TIP3    H263345   0.528   4.387   3.309  1.1211  0.4101  0.9775
13952TIP3   OH263346   2.067   2.510  15.228  0.1281 -0.4804 -0.3709
13952TIP3    H163347   2.151   2.498  15.183 -0.8040 -0.2127 -2.2936
13952TIP3    H263348   2.086   2.574  15.296  1.6121 -0.8955 -0.3513
13953TIP3   OH263349   3.566   3.114  13.254 -0.0216  0.0330  0.3370
13953TIP3    H163350   3.481   3.072  13.265  0.0048 -0.1069  0.0203
13953TIP3    H263351   3.578   3.166  13.333 -0.0764 -0.5236  0.7193
13954TIP3   OH263352   0.509   3.347  14.143  0.3586  0.0492  0.2236
13954TIP3    H163353   0.415   3.326  14.143  0.1111  1.0689 -0.4115
13954TIP3    H263354   0.552   3.262  14.153 -0.6144 -0.5805 -0.6556
13955TIP3   OH263355   4.191   5.948  11.724 -0.0501  0.7567 -0.6464
13955TIP3    H163356   4.248   5.871  11.726 -0.7946  0.1589 -1.9949
13955TIP3    H263357   4.165   5.958  11.633 -1.6432  1.3757 -0.1647
13956TIP3   OH263358   3.050   4.750  13.705  0.4937  0.2148 -0.3289
13956TIP3    H163359   3.048   4.832  13.754 -0.5368  0.3456 -0.5589
13956TIP3    H263360   2.996   4.690  13.755 -0.0681  0.1642 -0.9740
13957TIP3   OH263361   2.263   6.170  17.277  0.1663 -0.4901 -0.4422
13957TIP3    H163362   2.222   6.088  17.305  1.3950 -0.6062  1.1925
13957TIP3    H263363   2.208   6.239  17.315  0.8751 -0.6327  0.9221
13958TIP3   OH263364   2.018   4.061  17.160 -0.6745 -0.4165 -0.5018
13958TIP3    H163365   2.082   4.117  17.203  1.0903 -1.8807 -1.0853
13958TIP3    H263366   1.989   4.000  17.229 -1.5107  0.2689 -0.2292
13959TIP3   OH263367   6.111   3.395  14.215 -0.2039 -0.4392  0.1158
13959TIP3    H163368   6.043   3.329  14.201  0.4602 -0.7688 -1.8645
13959TIP3    H263369   6.193   3.347  14.205  0.3159  0.2971  0.7323
13960TIP3   OH263370   0.867   4.147   6.595 -0.1337  0.1539  0.0320
13960TIP3    H163371   0.931   4.079   6.616 -0.8316 -0.8607 -1.0360
13960TIP3    H263372   0.790   4.124   6.647 -0.0116  0.7615  0.4955
13961TIP3   OH263373   5.816   6.443   3.318  0.2901 -0.2292  0.5980
13961TIP3    H163374   5.803   6.503   3.245  1.0519  0.4699  1.0144
13961TIP3    H263375   5.743   6.381   3.312 -0.1115  0.3099 -0.2604
13962TIP3   OH263376   5.204   6.545   2.050  0.1226 -0.3374 -0.1883
13962TIP3    H163377   5.253   6.464   2.040 -0.8949 -0.7949 -2.0124
13962TIP3    H263378   5.112   6.518   2.058 -0.0806  0.5796  0.8256
13963TIP3   OH263379   2.459   1.712   5.146 -0.3503  0.3797  0.0747
13963TIP3    H163380   2.530   1.729   5.208 -0.4828 -1.2501  0.7484
13963TIP3    H263381   2.381   1.748   5.189 -0.4675 -0.8805  0.9823
13964TIP3   OH263382   0.275   3.003  15.247  0.1570 -0.2409 -0.1994
13964TIP3    H163383   0.199   2.984  15.192  0.5241  2.0472 -1.6190
13964TIP3    H263384   0.248   3.076  15.302  0.6586 -0.8085  0.8331
13965TIP3   OH263385   4.586   3.655  12.423 -0.3908  0.4510  0.0491
13965TIP3    H163386   4.588   3.638  12.329 -0.6811  1.5058 -0.1609
13965TIP3    H263387   4.622   3.743  12.433 -0.4361  0.3864  0.9218
13966TIP3   OH263388   0.670   0.879   5.154  0.3007  0.0214  0.1193
13966TIP3    H163389   0.696   0.842   5.069  0.9392 -1.5270  0.9463
13966TIP3    H263390   0.741   0.937   5.178  0.3104  0.1500 -0.2140
13967TIP3   OH263391   5.559   2.999   5.576 -0.3281 -0.2769  0.0264
13967TIP3    H163392   5.502   3.063   5.534  0.5414  0.3772 -0.2073
13967TIP3    H263393   5.615   3.052   5.633  1.1206 -0.6767 -0.9539
13968TIP3   OH263394   0.465   4.116  11.587  0.0871  0.3322 -0.3603
13968TIP3    H163395   0.428   4.186  11.534  1.8719  0.2461 -1.8213
13968TIP3    H263396   0.390   4.060  11.609 -1.0560  1.6632 -0.7506
13969TIP3   OH263397   0.896   3.281  12.651 -0.6455 -0.0366  0.0333
13969TIP3    H163398   0.802   3.275  12.668 -0.2329 -0.7787  2.5740
13969TIP3    H263399   0.936   3.244  12.730  1.7908  0.4113 -0.9173
13970TIP3   OH263400   1.895   2.781   1.368 -0.2152  0.1909 -0.0928
13970TIP3    H163401   1.976   2.791   1.319 -2.1935  0.6142 -3.5634
13970TIP3    H263402   1.864   2.870   1.383 -1.7547  0.0332 -2.0378
13971TIP3   OH263403   3.751   4.909  12.485  0.2873  0.5099  0.1692
13971TIP3    H163404   3.789   4.903  12.573 -0.3513  0.8144  0.4756
13971TIP3    H263405   3.667   4.954  12.499 -1.0153 -1.6592 -0.2349
13972TIP3   OH263406   5.882   5.029  16.289  0.1208  0.0219  0.2222
13972TIP3    H163407   5.960   4.999  16.336  0.3281 -1.7413 -1.1522
13972TIP3    H263408   5.811   5.025  16.354  0.1999 -3.3028  0.2359
13973TIP3   OH263409   5.809   5.763  12.501 -0.6985 -0.0879  0.6450
13973TIP3    H163410   5.903   5.746  12.493 -0.8475 -0.1359 -1.8383
13973TIP3    H263411   5.778   5.699  12.565  1.1565  0.9355  2.6840
13974TIP3   OH263412   0.666   3.555  12.242  0.8021 -0.5827 -0.3350
13974TIP3    H163413   0.696   3.633  12.197  1.2498 -0.7617 -0.3501
13974TIP3    H263414   0.654   3.490  12.173 -0.1494 -0.3625 -0.4009
13975TIP3   OH263415   5.190   1.564  13.252 -0.0743 -0.0695 -0.5512
13975TIP3    H163416   5.276   1.534  13.221  0.4982 -0.3559  1.2174
13975TIP3    H263417   5.207   1.649  13.292 -0.5305 -0.3210  0.1947
13976TIP3   OH263418   5.849   1.569   4.059  0.3169  0.2394  0.3089
13976TIP3    H163419   5.868   1.563   3.965  0.4292  0.7249  0.2969
13976TIP3    H263420   5.935   1.573   4.101  0.3662 -2.2374  0.6283
13977TIP3   OH263421   4.504   4.182  17.039 -0.0104  0.6496  0.4646
13977TIP3    H163422   4.578   4.219  17.088  1.4929 -0.4596 -0.8514
13977TIP3    H263423   4.477   4.106  17.091  0.3108  0.5950  0.5557
13978TIP3   OH263424   0.633   1.636  13.590  0.2899  0.2656  0.1572
13978TIP3    H163425   0.603   1.549  13.566  1.6313  0.1655 -1.3480
13978TIP3    H263426   0.707   1.653  13.530  0.1548  2.3534  0.5168
13979TIP3   OH263427   4.759   4.600  17.434  0.0017  1.1691  0.5965
13979TIP3    H163428   4.717   4.589  17.519 -1.4873 -1.0050 -0.3470
13979TIP3    H263429   4.850   4.573  17.449 -0.6234 -0.7735  1.1958
13980TIP3   OH263430   4.470   0.627   1.311 -0.2011  0.2859  0.1401
13980TIP3    H163431   4.496   0.641   1.401 -0.7688 -3.6981  1.1017
13980TIP3    H263432   4.381   0.663   1.306  0.2961  1.6624  0.7315
13981TIP3   OH263433   3.431   6.729   5.713 -0.3669  0.0395 -0.8876
13981TIP3    H163434   3.506   6.767   5.759 -0.6857  1.5063 -1.4965
13981TIP3    H263435   3.458   6.641   5.690  0.5729  0.0122  0.2712
13982TIP3   OH263436   5.634   5.676   4.344 -0.4900  0.3717  0.5911
13982TIP3    H163437   5.583   5.695   4.422 -0.3776 -0.8343  0.9828
13982TIP3    H263438   5.683   5.597   4.366  0.8396  0.9573 -0.1043
13983TIP3   OH263439   1.296   2.095  12.036 -0.8766 -0.3738  0.0125
13983TIP3    H163440   1.220   2.059  11.991 -1.4769  1.2329 -0.3264
13983TIP3    H263441   1.359   2.112  11.966 -0.2312 -1.5973  0.2789
13984TIP3   OH263442   3.634   5.827  11.962 -0.4732 -0.0710  0.0003
13984TIP3    H163443   3.722   5.817  11.999 -0.1864  1.8754 -0.0651
13984TIP3    H263444   3.639   5.782  11.878  1.0704  1.5817 -0.8574
13985TIP3   OH263445   0.747   4.056   0.970  0.3765  0.4617  0.2731
13985TIP3    H163446   0.832   4.076   1.010 -0.2562  1.6912  1.0875
13985TIP3    H263447   0.714   3.982   1.020  0.4296  0.7842  0.7942
13986TIP3   OH263448   6.199   2.570  12.938 -0.0546  0.0529 -0.2290
13986TIP3    H163449   6.129   2.505  12.935  0.1183 -0.1165 -0.6305
13986TIP3    H263450   6.176   2.632  12.868 -0.2388  0.4442  0.1740
13987TIP3   OH263451   4.099   6.159  11.854 -0.1389 -1.0003 -0.1211
13987TIP3    H163452   4.123   6.091  11.790  0.2126  1.4662 -2.7986
13987TIP3    H263453   4.168   6.154  11.920 -1.1407 -4.4192  0.9049
13988TIP3   OH263454   4.715   2.011  14.501 -0.2200  0.3596  0.5006
13988TIP3    H163455   4.735   2.074  14.571 -2.0995  2.7740 -0.9414
13988TIP3    H263456   4.785   2.023  14.437  0.0392  0.1236  0.7365
13989TIP3   OH263457   2.085   4.027  16.906  0.3479  0.5638 -0.3186
13989TIP3    H163458   2.023   4.056  16.973 -0.4725  0.2407 -0.9286
13989TIP3    H263459   2.086   3.932  16.913  0.9517  0.5752 -0.1660
13990TIP3   OH263460   0.536   4.283  17.140 -0.0372 -0.0392 -0.5693
13990TIP3    H163461   0.616   4.316  17.098  0.6255 -1.3533 -0.4073
13990TIP3    H263462   0.485   4.361  17.159  2.1046  1.0575  1.1469
13991TIP3   OH263463   4.866   0.025  11.810  0.0289  0.8223  0.2402
13991TIP3    H163464   4.898   0.068  11.889 -0.6472  2.3795 -0.2949
13991TIP3    H263465   4.904   0.077  11.738 -0.3700  0.1843 -0.4471
13992TIP3   OH263466   5.134   2.286  17.022  0.7089 -0.0816  0.2601
13992TIP3    H163467   5.139   2.215  16.958  0.3296  0.6056 -0.5564
13992TIP3    H263468   5.182   2.254  17.098  0.6696 -1.1450 -0.1536
13993TIP3   OH263469   2.522   2.452   3.440 -0.0021  0.4126  0.2656
13993TIP3    H163470   2.599   2.412   3.399  0.6862  2.3189 -0.4142
13993TIP3    H263471   2.467   2.479   3.367 -1.7353 -1.5416  0.7441
13994TIP3   OH263472   0.790   3.460  11.697  0.6924 -0.2256  0.0306
13994TIP3    H163473   0.812   3.513  11.773  0.3615 -0.6457  0.4239
13994TIP3    H263474   0.696   3.475  11.684  0.7531 -0.1288 -0.3206
13995TIP3   OH263475   0.877   4.999   5.210  0.9371  0.3125  0.1472
13995TIP3    H163476   0.865   4.973   5.301  1.0214  0.9829  0.3526
13995TIP3    H263477   0.877   4.916   5.162  0.9973 -0.0535  0.7633
13996TIP3   OH263478   1.277   4.611   3.376  0.2991  0.2395 -0.2204
13996TIP3    H163479   1.332   4.539   3.345  0.3472 -0.2407  0.9051
13996TIP3    H263480   1.233   4.644   3.298  1.8718  0.3796 -1.0977
13997TIP3   OH263481   6.617   4.774  16.716 -0.3692 -0.1532 -0.4163
13997TIP3    H163482   6.652   4.768  16.627  0.1271 -0.7334 -0.1908
13997TIP3    H263483   6.523   4.787  16.704  0.1181  4.5985 -1.1181
13998TIP3   OH263484   2.360   6.189  11.434  0.1255  0.0469  0.3187
13998TIP3    H163485   2.280   6.165  11.481 -0.6767  0.1784 -0.9499
13998TIP3    H263486   2.364   6.129  11.360  1.0173  0.2844  0.1602
13999TIP3   OH263487   1.738   4.987   2.466  0.9616  0.4427  0.0031
13999TIP3    H163488   1.743   5.075   2.504  0.9728  0.7329 -0.6522
13999TIP3    H263489   1.645   4.974   2.447  0.6479 -0.4931  1.9119
14000TIP3   OH263490   1.175   4.375  15.957 -0.3086 -0.0545  0.3679
14000TIP3    H163491   1.229   4.296  15.948  1.2377  1.1019 -1.2850
14000TIP3    H263492   1.209   4.434  15.890 -3.2334  1.0178 -0.2840
14001TIP3   OH263493   0.652   0.655   2.084 -0.4059  0.4399 -0.5028
14001TIP3    H163494   0.650   0.750   2.074  0.6632  0.5966  0.4975
14001TIP3    H263495   0.571   0.634   2.130 -0.2595  0.9756  0.0108
14002TIP3   OH263496   5.538   4.960  12.019  0.5538  0.2585  0.6016
14002TIP3    H163497   5.507   5.050  12.022  1.2237  0.4821  0.8750
14002TIP3    H263498   5.469   4.913  11.971  0.3489  0.9683  0.1840
14003TIP3   OH263499   3.229   0.093   3.144  0.3080  0.4619 -0.1996
14003TIP3    H163500   3.198   0.179   3.171 -0.8315  0.9702 -2.8094
14003TIP3    H263501   3.324   0.099   3.150  0.2198  1.6410  0.3680
14004TIP3   OH263502   0.734   3.240  12.073  0.0594 -0.8388  0.2849
14004TIP3    H163503   0.641   3.263  12.074  0.0225 -0.9809  1.6490
14004TIP3    H263504   0.765   3.260  12.161  1.5232 -0.0421 -0.3649
14005TIP3   OH263505   4.517   3.917  13.278  0.0027  0.0111  0.0850
14005TIP3    H163506   4.602   3.940  13.242 -0.1236  0.7082  0.2295
14005TIP3    H263507   4.512   3.965  13.361 -0.0072 -1.0103  0.7073
14006TIP3   OH263508   3.841   0.094   2.264 -0.2450 -0.3429  0.0782
14006TIP3    H163509   3.806   0.016   2.220  1.5332 -1.3794  0.4293
14006TIP3    H263510   3.897   0.135   2.198  0.2971 -0.4079  0.4933
14007TIP3   OH263511   4.024   1.907  14.996 -0.4957  0.0263 -0.0247
14007TIP3    H163512   3.950   1.912  15.056 -0.3254  1.0840  0.1122
14007TIP3    H263513   4.075   1.832  15.028 -0.1629  0.8435  1.4610
14008TIP3   OH263514   6.486   3.390  13.987  0.5101 -0.1531  0.8993
14008TIP3    H163515   6.504   3.395  13.893 -0.6057 -0.2923  0.6579
14008TIP3    H263516   6.412   3.329  13.994  1.7646 -1.6216  2.0459
14009TIP3   OH263517   1.842   6.660  12.659  0.2702  0.7676  0.0454
14009TIP3    H163518   1.931   6.649  12.625 -0.5858 -0.1117 -2.0535
14009TIP3    H263519   1.829   6.586  12.718  1.1675  1.3379  0.9975
14010TIP3   OH263520   4.206   3.543   3.668 -0.1183  1.1158 -0.0933
14010TIP3    H163521   4.256   3.583   3.598  0.8495  0.0122 -0.0642
14010TIP3    H263522   4.213   3.605   3.741 -0.5020  1.9125 -0.7241
14011TIP3   OH263523   3.830   3.192   5.739  0.5199 -0.3349 -0.0002
14011TIP3    H163524   3.820   3.149   5.824  0.7953 -1.3451 -0.4622
14011TIP3    H263525   3.775   3.270   5.745 -0.1817 -0.8677  0.7923
14012TIP3   OH263526   5.563   0.350  12.536 -0.0867 -0.3059 -0.3186
14012TIP3    H163527   5.599   0.343  12.624 -1.4716 -1.3749  0.1826
14012TIP3    H263528   5.493   0.415  12.544 -1.5366 -1.8250 -0.1413
14013TIP3   OH263529   6.646   4.951  11.438  0.1662 -0.4748  0.1861
14013TIP3    H163530   6.692   5.028  11.405 -0.7099 -0.5594 -1.3365
14013TIP3    H263531   6.712   4.882  11.438  1.0001  0.2674  1.6980
14014TIP3   OH263532   2.641   6.620  14.615  0.3283 -0.6369 -0.1887
14014TIP3    H163533   2.633   6.705  14.658 -1.5340 -1.2310  0.7618
14014TIP3    H263534   2.724   6.585  14.646  0.4583  0.2517  0.5154
14015TIP3   OH263535   0.244   2.657   2.729 -0.3397 -0.1136  0.5701
14015TIP3    H163536   0.177   2.723   2.742  0.1821  0.2634  1.4123
14015TIP3    H263537   0.196   2.577   2.709 -1.0472  0.0998  1.3903
14016TIP3   OH263538   1.678   4.664  11.989  0.7045  0.1953 -0.6618
14016TIP3    H163539   1.623   4.586  12.000 -0.4484  0.7748 -2.0798
14016TIP3    H263540   1.626   4.735  12.025  0.8513  0.6406 -1.3211
14017TIP3   OH263541   0.241   3.067   3.478 -0.0783  0.3585 -0.4989
14017TIP3    H163542   0.291   3.110   3.547 -0.3608  0.4431 -0.3428
14017TIP3    H263543   0.270   3.111   3.398  0.3263  0.1881 -0.4479
14018TIP3   OH263544   4.742   3.876  12.516  0.0102  0.0434  0.2479
14018TIP3    H163545   4.698   3.961  12.509  1.0900  0.6193  0.3227
14018TIP3    H263546   4.817   3.893  12.572 -1.2341 -1.5661  2.5880
14019TIP3   OH263547   1.910   4.084   3.337  0.0673 -0.7551  0.4880
14019TIP3    H163548   1.983   4.072   3.277  0.7037 -0.8077  1.2530
14019TIP3    H263549   1.910   4.178   3.357 -0.4362 -0.6566  0.0538
14020TIP3   OH263550   2.236   2.767  11.744  0.1815 -0.3086  0.7466
14020TIP3    H163551   2.201   2.779  11.656 -0.8159  0.0157  1.1720
14020TIP3    H263552   2.316   2.820  11.746 -0.5183  0.7812  0.4547
14021TIP3   OH263553   2.978   6.254  14.540 -0.4494  0.4027  0.2212
14021TIP3    H163554   3.008   6.224  14.454  0.4086 -0.5875  0.8375
14021TIP3    H263555   3.055   6.244  14.596 -1.6359 -1.3419  1.6500
14022TIP3   OH263556   0.972   0.922  17.259  0.3316  0.1469 -0.1902
14022TIP3    H163557   0.883   0.898  17.233  0.3688 -0.5891  0.3271
14022TIP3    H263558   0.995   0.858  17.327 -0.1891  2.6014  2.4907
14023TIP3   OH263559   4.113   1.833   5.808  0.1013 -0.0540  0.3384
14023TIP3    H163560   4.191   1.785   5.779 -0.1956  0.4260 -1.4002
14023TIP3    H263561   4.148   1.914   5.845  0.4546  0.6596 -1.4291
14024TIP3   OH263562   1.065   2.778   3.757  0.2332  0.2634  0.1747
14024TIP3    H163563   1.081   2.703   3.815 -0.7907  0.2336  0.4303
14024TIP3    H263564   1.132   2.842   3.783  0.7422 -0.3251  0.3532
14025TIP3   OH263565   4.157   1.426   3.729 -0.1811 -0.0082  0.4894
14025TIP3    H163566   4.178   1.392   3.642 -2.0585 -1.4916  0.5374
14025TIP3    H263567   4.169   1.520   3.722 -2.2931  0.1806 -2.0428
14026TIP3   OH263568   4.311   4.260  13.522 -0.1854  0.4005  0.3057
14026TIP3    H163569   4.222   4.226  13.532  1.1342 -2.8288  2.6742
14026TIP3    H263570   4.320   4.323  13.593 -0.7544  1.2886 -0.3864
14027TIP3   OH263571   1.916   5.547   5.168  0.0960 -0.6132 -0.1198
14027TIP3    H163572   1.941   5.633   5.201 -0.6350  0.1867 -1.5733
14027TIP3    H263573   1.824   5.537   5.192  0.0637 -0.8146 -0.3203
14028TIP3   OH263574   2.371   2.472   3.165  0.2743 -0.8008  0.0932
14028TIP3    H163575   2.415   2.422   3.096 -0.9567  0.1725 -1.4453
14028TIP3    H263576   2.370   2.562   3.133 -0.9427 -0.4479  1.0603
14029TIP3   OH263577   5.244   5.098  13.736 -0.6618 -0.1884 -0.0701
14029TIP3    H163578   5.239   5.176  13.681  0.2340 -0.1603 -0.1346
14029TIP3    H263579   5.154   5.082  13.764 -1.4461 -1.1112 -2.8307
14030TIP3   OH263580   3.034   4.933  11.396 -0.5744 -0.4229 -0.3982
14030TIP3    H163581   3.048   4.968  11.308 -0.6170  1.3438  0.2580
14030TIP3    H263582   2.939   4.937  11.408 -0.6389 -1.3235 -0.5008
14031TIP3   OH263583   5.090   3.460   5.442 -0.4009  0.2846  0.1569
14031TIP3    H163584   5.101   3.548   5.406 -2.1763  0.6821  0.4943
14031TIP3    H263585   5.013   3.467   5.498 -0.5675 -1.4955  0.1886
14032TIP3   OH263586   0.179   5.979   4.251 -0.0351  0.5239 -0.2291
14032TIP3    H163587   0.210   5.939   4.170 -1.2280 -0.3655 -0.2860
14032TIP3    H263588   0.236   6.054   4.265  2.5231 -1.3422  0.0421
14033TIP3   OH263589   5.409   4.630  11.531  0.5674  0.8781  0.7865
14033TIP3    H163590   5.357   4.554  11.558 -0.2820  1.2439  0.2365
14033TIP3    H263591   5.494   4.593  11.507  0.6708  0.3071  1.9804
14034TIP3   OH263592   5.514   2.880  10.719 -0.1776 -0.8024  0.1861
14034TIP3    H163593   5.532   2.960  10.768  1.0337 -1.9013  1.6869
14034TIP3    H263594   5.586   2.873  10.657 -0.2476 -0.7524  0.0997
14035TIP3   OH263595   1.909   6.130   0.766  0.1980 -0.1793  0.0655
14035TIP3    H163596   1.937   6.220   0.783 -0.0569 -0.2898  1.1681
14035TIP3    H263597   1.990   6.083   0.748  0.3455  0.2415 -0.4027
14036TIP3   OH263598   0.434   0.746  16.644  0.6324  0.2097 -0.2164
14036TIP3    H163599   0.416   0.818  16.584  0.8781 -0.2147 -0.8106
14036TIP3    H263600   0.453   0.671  16.587  0.9807 -0.1735  0.3865
14037TIP3   OH263601   5.212   1.200   2.863  0.0056  0.4653 -0.0452
14037TIP3    H163602   5.206   1.142   2.939 -1.5096 -0.4595 -0.8391
14037TIP3    H263603   5.285   1.166   2.812 -0.8391 -0.7468 -0.4779
14038TIP3   OH263604   5.483   4.412  14.385  0.4652 -0.1234 -0.1394
14038TIP3    H163605   5.498   4.422  14.479  0.2051 -2.2656  0.1854
14038TIP3    H263606   5.438   4.492  14.359 -0.4349  0.0448  1.7824
14039TIP3   OH263607   4.193   3.880  16.863 -0.3960 -0.4288  0.4585
14039TIP3    H163608   4.184   3.828  16.943 -1.9743  0.8666  1.2008
14039TIP3    H263609   4.287   3.891  16.851 -0.0738 -2.4613  0.9004
14040TIP3   OH263610   1.282   2.561   5.134 -0.4811  0.5356 -0.0799
14040TIP3    H163611   1.219   2.490   5.120  0.7665 -1.0700  1.8196
14040TIP3    H263612   1.353   2.542   5.073  1.0830 -1.5512  2.1824
14041TIP3   OH263613   3.219   6.184   4.816 -0.2728 -0.4052 -0.2638
14041TIP3    H163614   3.271   6.163   4.894  2.0392  0.6121 -1.4441
14041TIP3    H263615   3.223   6.105   4.763  1.5578  0.1527 -1.0627
14042TIP3   OH263616   5.616   5.156  16.205  0.6036 -0.1208 -0.4225
14042TIP3    H163617   5.536   5.188  16.247 -0.3175 -0.0714 -2.1437
14042TIP3    H263618   5.595   5.065  16.181  0.4633  0.3784 -2.2887
14043TIP3   OH263619   0.721   2.622   6.769 -0.2677  0.4308 -0.6620
14043TIP3    H163620   0.732   2.528   6.774  0.6719  0.5529 -0.3314
14043TIP3    H263621   0.629   2.637   6.792 -0.3352 -0.3728 -0.4025
14044TIP3   OH263622   5.134   4.482  15.531  0.4147 -0.0911  0.5732
14044TIP3    H163623   5.210   4.541  15.525  0.6816 -0.4616  0.2933
14044TIP3    H263624   5.068   4.522  15.475  0.3732  0.2722  0.8744
14045TIP3   OH263625   0.297   5.870   5.733  0.2385 -0.1253 -0.7466
14045TIP3    H163626   0.239   5.905   5.665 -1.7221  1.0158  1.3662
14045TIP3    H263627   0.373   5.929   5.732 -0.5372  0.8927 -0.8488
14046TIP3   OH263628   6.369   4.921   4.654 -0.4840  0.3694 -0.2633
14046TIP3    H163629   6.399   4.942   4.743 -0.7105  0.2024 -0.1494
14046TIP3    H263630   6.324   4.837   4.663 -1.3529  0.8141 -0.3639
14047TIP3   OH263631   0.999   4.098  16.283 -0.0119 -0.1890  0.4819
14047TIP3    H163632   1.042   4.036  16.225 -0.0436 -0.5728  0.8568
14047TIP3    H263633   1.039   4.082  16.369  2.0527  2.2711  0.0879
14048TIP3   OH263634   4.334   2.425   2.787  0.5527  0.8781 -0.2709
14048TIP3    H163635   4.302   2.337   2.809  0.6227  1.6272  3.3973
14048TIP3    H263636   4.264   2.464   2.734 -0.3022 -0.7079 -0.3705
14049TIP3   OH263637   1.710   2.993  15.473  0.4853  0.5002  0.2221
14049TIP3    H163638   1.708   3.088  15.463  0.4806  0.6978  1.8136
14049TIP3    H263639   1.775   2.978  15.542 -0.7402 -0.5083  1.2002
14050TIP3   OH263640   6.299   4.985   3.964  0.0113  0.1939  0.6043
14050TIP3    H163641   6.285   5.074   3.995 -0.1930  0.0785  0.8462
14050TIP3    H263642   6.315   4.934   4.043 -0.8852 -0.1737  0.5629
14051TIP3   OH263643   2.765   2.780  12.767 -0.2958 -0.1669  0.0469
14051TIP3    H163644   2.740   2.799  12.676 -0.0446  0.8835  0.1842
14051TIP3    H263645   2.732   2.856  12.817 -1.5853 -1.3278  1.0476
14052TIP3   OH263646   6.265   5.051  11.982  0.1730 -0.2722  0.4642
14052TIP3    H163647   6.230   5.140  11.991 -0.7690 -0.7322  1.6224
14052TIP3    H263648   6.283   5.023  12.072 -1.2331 -1.8933  0.2946
14053TIP3   OH263649   1.331   4.478   6.425 -0.2449 -0.0427  0.4485
14053TIP3    H163650   1.256   4.513   6.376  0.4828  2.4015  0.9710
14053TIP3    H263651   1.402   4.539   6.407  1.1723 -1.3397  1.3719
14054TIP3   OH263652   4.981   5.374  16.099  0.4759 -0.5533 -0.0676
14054TIP3    H163653   5.049   5.408  16.041  0.3746 -0.3273 -0.0547
14054TIP3    H263654   4.918   5.332  16.040 -0.0781  0.4496 -0.2049
14055TIP3   OH263655   3.395   6.104  14.278 -0.2981 -0.0403 -0.0990
14055TIP3    H163656   3.334   6.093  14.205  0.1353  2.1876 -0.8985
14055TIP3    H263657   3.482   6.105  14.237 -0.0070  0.5556  0.5014
14056TIP3   OH263658   5.528   4.093  12.772 -0.0304 -0.4857 -0.5920
14056TIP3    H163659   5.584   4.129  12.841 -2.2025  1.7483  0.1091
14056TIP3    H263660   5.589   4.044  12.715  2.3609  0.5734  0.9172
14057TIP3   OH263661   0.903   3.805  12.910 -0.2115 -0.1830 -0.1841
14057TIP3    H163662   0.865   3.737  12.854  0.5324 -0.7257 -0.0270
14057TIP3    H263663   0.997   3.795  12.901 -0.0820  0.0707  0.7569
14058TIP3   OH263664   3.658   4.101  17.230 -0.0662 -0.0515  0.6144
14058TIP3    H163665   3.661   4.054  17.146 -1.7064 -0.7934  0.9417
14058TIP3    H263666   3.732   4.162  17.225  0.3292 -0.6005 -1.0539
14059TIP3   OH263667   0.255   1.488  13.635 -0.0930 -0.2322 -0.4906
14059TIP3    H163668   0.176   1.460  13.589  0.7082 -0.7587 -1.6059
14059TIP3    H263669   0.225   1.511  13.722 -1.1913 -2.3272 -0.2416
14060TIP3   OH263670   1.839   0.802   4.205  0.5676  0.6308 -0.2807
14060TIP3    H163671   1.866   0.848   4.125 -0.3221  1.9190  0.1254
14060TIP3    H263672   1.744   0.812   4.207  0.4605 -0.4161  0.3390
14061TIP3   OH263673   1.625   1.172   0.027  0.1558  0.4438  0.1688
14061TIP3    H163674   1.696   1.230  -0.000 -1.0110  0.3188 -3.8338
14061TIP3    H263675   1.545   1.224   0.014 -0.7581 -1.1656 -1.0862
14062TIP3   OH263676   5.147   2.540   2.449  0.4242 -0.7146  0.3452
14062TIP3    H163677   5.053   2.523   2.457 -0.0810  1.2763 -0.6459
14062TIP3    H263678   5.172   2.575   2.534 -0.3690  1.2650 -0.1871
14063TIP3   OH263679   6.264   1.408  14.923  0.8579  0.2594 -0.8118
14063TIP3    H163680   6.189   1.456  14.957  1.8366  0.8537  0.6266
14063TIP3    H263681   6.267   1.429  14.830 -1.2401 -0.4732 -1.0978
14064TIP3   OH263682   6.428   4.766   2.758  0.3001 -0.0025  1.3964
14064TIP3    H163683   6.350   4.807   2.795  0.4365  0.8728  0.7502
14064TIP3    H263684   6.417   4.673   2.777 -1.7037 -0.1400 -0.0495
14065TIP3   OH263685   2.044   3.571  15.097 -0.3249  0.3803  0.0211
14065TIP3    H163686   2.103   3.495  15.099 -0.8814 -0.0529  0.6056
14065TIP3    H263687   1.960   3.535  15.068 -1.0973  0.3764  2.0646
14066TIP3   OH263688   4.591   0.398   1.181 -0.1727 -0.7109 -0.1488
14066TIP3    H163689   4.501   0.378   1.154  0.0156  0.4907 -1.8069
14066TIP3    H263690   4.581   0.465   1.249 -0.5709 -2.1551  1.2801
14067TIP3   OH263691   0.507   1.778   0.664 -0.0254  0.3337 -0.1967
14067TIP3    H163692   0.532   1.713   0.730  1.1625  0.2735 -0.6810
14067TIP3    H263693   0.438   1.734   0.613 -1.0861  0.4491  1.0806
14068TIP3   OH263694   5.657   6.222  14.180 -0.4371 -0.4671  0.5485
14068TIP3    H163695   5.644   6.130  14.158  0.8092 -0.5753  0.1954
14068TIP3    H263696   5.746   6.226  14.215 -0.4636  0.6120  0.5244
14069TIP3   OH263697   3.759   2.381   0.499  0.0250 -0.5729 -0.3173
14069TIP3    H163698   3.825   2.442   0.464 -2.3207  1.4778 -1.4539
14069TIP3    H263699   3.777   2.299   0.453 -0.0889  0.8063 -3.0152
14070TIP3   OH263700   3.414   6.488  16.600 -0.4354  0.2577  0.0108
14070TIP3    H163701   3.341   6.451  16.551 -0.0089 -0.3173 -0.1936
14070TIP3    H263702   3.388   6.579  16.617 -1.0366  0.1584 -0.3721
14071TIP3   OH263703   1.414   4.052   4.112 -0.1163 -0.2891 -0.0145
14071TIP3    H163704   1.450   4.124   4.059  0.7816 -0.9324 -0.2987
14071TIP3    H263705   1.331   4.030   4.070  0.6153 -0.8335 -1.2165
14072TIP3   OH263706   4.409   5.669  15.711  0.4229  0.2732  0.5358
14072TIP3    H163707   4.483   5.714  15.671  0.1503  0.9152  0.7384
14072TIP3    H263708   4.345   5.738  15.729 -0.5292 -0.3427 -0.2977
14073TIP3   OH263709   1.889   0.179  16.043  0.4342 -0.0437  0.7375
14073TIP3    H163710   1.857   0.089  16.049 -0.8241  0.3616  0.3254
14073TIP3    H263711   1.855   0.222  16.122 -1.4043  0.7875 -0.4520
14074TIP3   OH263712   5.741   6.390   0.903  0.3946  0.4397 -0.3195
14074TIP3    H163713   5.815   6.435   0.863  1.2322 -1.5853 -1.2372
14074TIP3    H263714   5.758   6.297   0.884 -2.4715 -0.0782 -0.7331
14075TIP3   OH263715   5.122   3.854   4.497  0.0739  0.1181  0.5339
14075TIP3    H163716   5.042   3.907   4.502 -0.5059 -0.8294  1.9472
14075TIP3    H263717   5.189   3.915   4.465 -1.5170  0.5055 -2.4542
14076TIP3   OH263718   3.436   6.230   1.136 -0.4142 -0.1436  1.0260
14076TIP3    H163719   3.451   6.237   1.042  2.0357 -1.1182  1.2867
14076TIP3    H263720   3.350   6.270   1.149 -1.2406 -0.8139 -1.7264
14077TIP3   OH263721   2.586   3.075   2.393  0.2863  0.3339  0.4317
14077TIP3    H163722   2.653   3.054   2.328 -0.5806  0.3133 -0.4854
14077TIP3    H263723   2.633   3.076   2.476  0.9463 -2.2764  0.1736
14078TIP3   OH263724   5.453   5.307   6.061 -0.0826  0.3106 -0.1669
14078TIP3    H163725   5.384   5.248   6.029  0.4905 -1.1200  1.1105
14078TIP3    H263726   5.405   5.378   6.104 -0.7855 -0.3348  0.1451
14079TIP3   OH263727   2.927   2.314  15.238  0.5093 -0.2567 -0.4346
14079TIP3    H163728   2.863   2.293  15.305 -1.2548  0.5878 -1.7706
14079TIP3    H263729   2.939   2.232  15.190  0.7656 -0.5216  0.0689
14080TIP3   OH263730   5.032   1.712  13.988  0.2771 -0.4929 -0.0611
14080TIP3    H163731   5.019   1.802  14.019 -1.9305 -0.1850 -1.6125
14080TIP3    H263732   4.944   1.683  13.963  1.4374 -1.6689 -3.2379
14081TIP3   OH263733   6.673   1.812   5.942 -0.1044 -0.4305  0.2991
14081TIP3    H163734   6.692   1.720   5.923  0.1914  0.2857 -3.7743
14081TIP3    H263735   6.719   1.861   5.874 -2.2826  2.5678  0.7609
14082TIP3   OH263736   3.009   4.249   3.726 -0.1197  0.2891  0.5009
14082TIP3    H163737   2.914   4.258   3.712  0.1585  1.0396 -1.0047
14082TIP3    H263738   3.043   4.338   3.720  0.8839 -0.1459 -0.6230
14083TIP3   OH263739   6.516   0.541  13.044 -0.2545 -0.1843  0.4519
14083TIP3    H163740   6.547   0.632  13.044 -0.8061  0.0111  1.2165
14083TIP3    H263741   6.474   0.530  12.959 -0.8494  0.5119  0.6525
14084TIP3   OH263742   5.555   2.213   5.330 -0.5983 -0.8914  0.1575
14084TIP3    H163743   5.587   2.214   5.420  0.4134 -0.1423 -0.1944
14084TIP3    H263744   5.530   2.303   5.312 -0.8728 -1.0495 -0.2917
14085TIP3   OH263745   1.812   3.321   2.586  0.2502 -0.4017  0.0480
14085TIP3    H163746   1.875   3.383   2.622  0.3295 -1.0020  0.9619
14085TIP3    H263747   1.863   3.241   2.571  0.0570 -0.3932 -0.7386
14086TIP3   OH263748   2.814   0.378   3.999 -0.7457  0.0000  0.1302
14086TIP3    H163749   2.779   0.448   4.055 -1.3291 -2.2344  2.7502
14086TIP3    H263750   2.738   0.350   3.947 -0.7262  0.6748 -0.2799
14087TIP3   OH263751   6.727   5.808  13.835  0.3361  0.3391  0.4770
14087TIP3    H163752   6.750   5.897  13.862  3.5331 -0.0435 -0.5459
14087TIP3    H263753   6.788   5.752  13.883 -1.7647 -1.4034  1.2866
14088TIP3   OH263754   2.476   1.918   1.598 -0.1518  0.0518  0.2702
14088TIP3    H163755   2.411   1.920   1.527 -0.4348  1.5846  0.5390
14088TIP3    H263756   2.436   1.863   1.666  0.0477 -1.2866 -0.6469
14089TIP3   OH263757   3.697   6.592  13.392  0.3825  0.0053 -0.1169
14089TIP3    H163758   3.728   6.675  13.355  1.1987 -0.9609 -1.7012
14089TIP3    H263759   3.603   6.604  13.402  0.4088  0.9407 -0.8414
14090TIP3   OH263760   6.146   5.680  12.169 -0.1246 -0.4005  0.5908
14090TIP3    H163761   6.092   5.654  12.243  0.2403 -0.6916  0.7598
14090TIP3    H263762   6.109   5.633  12.095 -0.9568  0.4654  0.4362
14091TIP3   OH263763   2.559   6.020  15.830 -0.0931  0.5093  0.0685
14091TIP3    H163764   2.627   6.083  15.854  1.3528 -0.4915 -1.2237
14091TIP3    H263765   2.560   5.955  15.901  0.7835  0.1483 -0.2583
14092TIP3   OH263766   6.565   3.111  17.153 -0.4169  1.3815 -0.2983
14092TIP3    H163767   6.519   3.027  17.156  2.4422 -0.3269  2.3884
14092TIP3    H263768   6.608   3.112  17.068  2.2158 -1.6944  0.7888
14093TIP3   OH263769   3.108   5.767   5.715  0.0947  0.0424 -0.2697
14093TIP3    H163770   3.178   5.708   5.745  1.7063  2.4401  1.0436
14093TIP3    H263771   3.095   5.744   5.623  0.6223 -2.3228  0.1935
14094TIP3   OH263772   1.639   0.662   1.082  0.0777  0.2096  0.5760
14094TIP3    H163773   1.556   0.672   1.037  0.3526  0.6671  0.1589
14094TIP3    H263774   1.705   0.684   1.016  0.5815 -1.2412  0.5557
14095TIP3   OH263775   4.411   5.592  12.487 -0.5370 -0.0350  0.1971
14095TIP3    H163776   4.419   5.500  12.464  1.8142  0.1587  0.0482
14095TIP3    H263777   4.405   5.593  12.582  0.8137 -0.3079  0.3017
14096TIP3   OH263778   3.857   4.946   1.171  0.4707  0.3573  0.0448
14096TIP3    H163779   3.806   4.866   1.157  0.2961  0.4437  0.1879
14096TIP3    H263780   3.830   4.977   1.257  0.9654  0.2536  0.2405
14097TIP3   OH263781   6.539   6.198  13.688  0.4406  0.0252 -0.8262
14097TIP3    H163782   6.458   6.240  13.658  0.8219  0.4348 -1.2976
14097TIP3    H263783   6.571   6.151  13.611  2.7181  3.0508 -1.9150
14098TIP3   OH263784   1.245   3.653  12.557 -0.4641  0.8220 -0.1686
14098TIP3    H163785   1.280   3.607  12.480  1.3934  1.0930  0.4707
14098TIP3    H263786   1.160   3.612  12.572  0.0234 -0.6556 -1.1473
14099TIP3   OH263787   0.895   5.607  11.868 -0.1299  0.0914  0.0927
14099TIP3    H163788   0.942   5.548  11.926 -0.0892 -1.2466 -1.2345
14099TIP3    H263789   0.837   5.656  11.925  0.9000 -0.1792  1.4175
14100TIP3   OH263790   0.144   0.342   3.523  0.4821  0.5749  0.1027
14100TIP3    H163791   0.111   0.334   3.434  0.4100  2.7109 -0.1155
14100TIP3    H263792   0.085   0.404   3.566 -0.7145 -1.8765  2.3324
14101TIP3   OH263793   5.621   1.383   2.455  0.2813  0.4794  0.3642
14101TIP3    H163794   5.586   1.404   2.542  0.1889 -1.7937  0.9235
14101TIP3    H263795   5.606   1.290   2.445  2.4590  0.2164 -1.1161
14102TIP3   OH263796   2.579   0.859  16.233 -0.7086 -0.4048 -0.0302
14102TIP3    H163797   2.649   0.856  16.299 -1.0520 -1.7467  0.3113
14102TIP3    H263798   2.500   0.877  16.284 -0.7473  0.1883 -0.2973
14103TIP3   OH263799   1.023   5.331   0.892  0.2730 -0.4416 -0.0407
14103TIP3    H163800   0.972   5.394   0.842  0.6559  0.7268  0.9946
14103TIP3    H263801   1.085   5.295   0.829  0.4908  0.7158 -0.5101
14104TIP3   OH263802   3.381   3.215   6.868  0.0456 -0.3255  0.4163
14104TIP3    H163803   3.298   3.187   6.906  0.1597  0.5250  1.3109
14104TIP3    H263804   3.357   3.281   6.803  0.0335 -0.0604  0.6945
14105TIP3   OH263805   2.650   4.081   1.881 -0.4783  0.4611 -0.5463
14105TIP3    H163806   2.639   3.988   1.900 -0.5395  0.2850 -1.4206
14105TIP3    H263807   2.575   4.123   1.923  0.0634  0.2438  0.6841
14106TIP3   OH263808   1.968   2.949  12.305  0.2141 -0.1962 -0.4919
14106TIP3    H163809   2.057   2.953  12.339  0.4613  0.0947 -1.1552
14106TIP3    H263810   1.979   2.946  12.210 -0.5162  2.0474 -0.7054
14107TIP3   OH263811   2.405   1.027  17.265  0.2993  0.5032  0.5055
14107TIP3    H163812   2.346   0.958  17.233  0.2919  0.5315  0.4579
14107TIP3    H263813   2.352   1.076  17.327  0.1048  0.8397  0.0847
14108TIP3   OH263814   1.852   0.618  17.004 -0.4111  0.1103 -0.5103
14108TIP3    H163815   1.818   0.702  16.971  0.7239  0.8144  0.0270
14108TIP3    H263816   1.808   0.606  17.088  0.6822  1.0904  0.2510
14109TIP3   OH263817   2.749   2.396  11.777  0.2031  0.0303 -0.2225
14109TIP3    H163818   2.785   2.455  11.711 -0.3498  0.0469 -0.5146
14109TIP3    H263819   2.669   2.440  11.807  0.0926 -0.3006 -0.0304
14110TIP3   OH263820   3.657   3.536  12.214  0.1754 -0.4514 -0.2513
14110TIP3    H163821   3.569   3.521  12.251 -1.2018 -1.5145 -3.5458
14110TIP3    H263822   3.643   3.601  12.145  2.1219 -0.1470 -0.4113
14111TIP3   OH263823   2.672   5.921   1.687  0.2025 -0.4320  0.6519
14111TIP3    H163824   2.674   6.017   1.684 -0.5602 -0.4174 -1.4210
14111TIP3    H263825   2.583   5.900   1.716 -1.1042 -0.3833 -2.7688
14112TIP3   OH263826   4.356   0.859  11.572 -0.2766  0.0128  0.0404
14112TIP3    H163827   4.340   0.784  11.515  1.8683 -1.0318  0.6951
14112TIP3    H263828   4.391   0.927  11.513  1.8989 -1.0477 -0.0038
14113TIP3   OH263829   1.782   2.364  17.078 -0.3102  0.0861  0.9691
14113TIP3    H163830   1.803   2.322  16.995 -1.4015  0.5370  0.4599
14113TIP3    H263831   1.768   2.291  17.139  2.4192 -0.2702  1.3152
14114TIP3   OH263832   4.189   0.564   0.453  0.2069  0.2856 -0.2468
14114TIP3    H163833   4.268   0.618   0.461  0.7702 -0.7489  1.7273
14114TIP3    H263834   4.218   0.475   0.470 -1.1439 -0.3521 -1.0616
14115TIP3   OH263835   3.746   4.213  11.657 -0.3356 -0.0820  0.0735
14115TIP3    H163836   3.745   4.234  11.750  0.6786 -1.2864  0.3773
14115TIP3    H263837   3.700   4.130  11.650 -1.2292  0.4515 -0.6435
14116TIP3   OH263838   0.057   2.191   5.758 -0.4427  0.2276  0.1850
14116TIP3    H163839   0.145   2.154   5.749 -0.4533  0.4197 -0.9275
14116TIP3    H263840   0.052   2.220   5.849  0.8338  0.6839  0.1334
14117TIP3   OH263841   0.688   0.116   3.112 -0.6814 -0.2316 -0.2411
14117TIP3    H163842   0.608   0.139   3.159  0.1315  0.1283  1.0216
14117TIP3    H263843   0.687   0.171   3.034 -1.7407 -0.3549 -0.3280
14118TIP3   OH263844   3.516   1.100   1.857 -0.1341 -0.3688 -0.1586
14118TIP3    H163845   3.484   1.017   1.821  3.8021 -2.6300  1.0052
14118TIP3    H263846   3.471   1.108   1.941 -0.6203 -1.3011 -0.3127
14119TIP3   OH263847   2.963   1.643  14.968  0.1631  0.4148 -0.0067
14119TIP3    H163848   2.947   1.603  14.882  1.3915  2.1359 -1.1120
14119TIP3    H263849   2.877   1.677  14.995 -0.3491 -0.6459 -0.2702
14120TIP3   OH263850   3.537   4.460   5.958  0.3395 -0.0564  0.2180
14120TIP3    H163851   3.533   4.554   5.976  0.6040 -0.2487  1.3481
14120TIP3    H263852   3.545   4.455   5.863 -0.3451  1.0388  0.0790
14121TIP3   OH263853   5.333   0.198  17.307 -0.3723  0.0602 -0.2650
14121TIP3    H163854   5.310   0.156  17.224 -0.7504 -1.2644  0.4773
14121TIP3    H263855   5.250   0.224  17.345 -0.3363 -0.6757  0.3562
14122TIP3   OH263856   6.533   1.261  11.998  0.2272  0.2233 -0.0891
14122TIP3    H163857   6.477   1.190  11.965  1.1103  0.2010 -1.6534
14122TIP3    H263858   6.487   1.341  11.972 -0.1206  0.2323  0.5273
14123TIP3   OH263859   5.060   4.558   5.269  0.5290 -0.8941 -0.4564
14123TIP3    H163860   5.076   4.594   5.356 -0.7606 -0.2455 -0.4599
14123TIP3    H263861   5.135   4.500   5.253  1.0248 -0.6689  0.8778
14124TIP3   OH263862   1.258   4.438   0.308  0.0099 -0.5148 -0.0998
14124TIP3    H163863   1.333   4.420   0.364 -0.7565 -1.9296  0.5246
14124TIP3    H263864   1.293   4.493   0.238  1.4987 -0.7164  0.4456
14125TIP3   OH263865   4.699   4.343   3.138  0.4571  0.3050 -0.2781
14125TIP3    H163866   4.611   4.319   3.110  0.4860  1.1314 -1.1354
14125TIP3    H263867   4.753   4.266   3.118  0.0404  0.0326 -0.3504
14126TIP3   OH263868   3.057   0.015   0.171 -0.2198  0.2059  0.5852
14126TIP3    H163869   3.105  -0.056   0.215 -0.2810 -0.4165 -0.3430
14126TIP3    H263870   2.982  -0.028   0.131 -0.2379  0.7907 -0.0132
14127TIP3   OH263871   2.181   0.097  11.954  0.1809  0.3735 -0.3263
14127TIP3    H163872   2.223   0.018  11.920  1.6876  0.7836  0.5009
14127TIP3    H263873   2.120   0.123  11.885 -0.1699 -1.3493 -0.7220
14128TIP3   OH263874   4.673   6.712   5.759  0.2552  0.0903  0.2083
14128TIP3    H163875   4.583   6.737   5.737  0.2266  0.2100  0.4522
14128TIP3    H263876   4.720   6.715   5.676  0.6215  2.4807  0.4261
14129TIP3   OH263877   3.142   1.414   6.021  0.3117 -0.6976  0.5047
14129TIP3    H163878   3.199   1.417   5.944  0.2396 -0.1696  0.4717
14129TIP3    H263879   3.201   1.422   6.096  0.3355 -0.7493  0.4916
14130TIP3   OH263880   5.551   4.175  14.699  0.4904 -0.1686  0.0350
14130TIP3    H163881   5.641   4.145  14.683  0.1781 -0.2857 -1.7197
14130TIP3    H263882   5.550   4.265  14.666 -0.0508 -0.1934 -0.0151
14131TIP3   OH263883   1.579   4.767   3.984 -0.2923 -0.8936  0.4367
14131TIP3    H163884   1.611   4.724   4.064 -1.5621  2.5588  3.0528
14131TIP3    H263885   1.484   4.758   3.989 -0.4771  0.6141  0.1922
14132TIP3   OH263886   6.168   6.537   0.703 -0.2821  0.2207  0.9224
14132TIP3    H163887   6.221   6.613   0.678  1.9210 -1.3084  0.7162
14132TIP3    H263888   6.204   6.464   0.652 -1.2489 -1.2997  2.3196
14133TIP3   OH263889   3.189   1.824  14.855 -0.3891 -0.3287 -0.4177
14133TIP3    H163890   3.280   1.814  14.882 -0.0062 -1.1071 -1.8837
14133TIP3    H263891   3.139   1.775  14.921  0.4127 -1.3510 -0.5384
14134TIP3   OH263892   3.364   3.884   1.132 -1.1602 -0.1332  0.0816
14134TIP3    H163893   3.346   3.877   1.038  0.2929  2.7380 -0.4979
14134TIP3    H263894   3.328   3.969   1.157 -1.4074 -0.7949  2.1240
14135TIP3   OH263895   1.259   4.260   3.612  0.0888 -0.6122 -0.5949
14135TIP3    H163896   1.311   4.286   3.536  0.8369 -2.6464 -0.8434
14135TIP3    H263897   1.210   4.183   3.582 -1.3325 -0.1037  0.3361
14136TIP3   OH263898   4.427   3.962  16.210  0.2564 -0.7226  0.1140
14136TIP3    H163899   4.446   3.952  16.117 -1.6533 -0.5785 -0.3350
14136TIP3    H263900   4.481   3.897  16.253  0.7000 -1.2228 -1.1494
14137TIP3   OH263901   2.422   5.839  14.420 -0.2692 -0.1089 -0.1412
14137TIP3    H163902   2.340   5.873  14.458  0.3907  1.0070  0.3404
14137TIP3    H263903   2.427   5.879  14.334 -0.9715 -1.3887 -0.8040
14138TIP3   OH263904   3.207   5.580  15.632 -0.1457 -0.0771  0.4171
14138TIP3    H163905   3.236   5.516  15.568 -2.2214 -0.9977  0.2985
14138TIP3    H263906   3.208   5.533  15.715 -1.3164 -0.2125  0.3848
14139TIP3   OH263907   4.537   6.634  15.122  0.1303  0.2889  0.0342
14139TIP3    H163908   4.487   6.688  15.183  0.4027 -0.1412  0.6508
14139TIP3    H263909   4.622   6.622  15.165  1.1541  1.8233 -1.4182
14140TIP3   OH263910   5.768   6.713   4.201 -0.2048  0.4922 -0.3723
14140TIP3    H163911   5.817   6.704   4.283  1.9951 -0.2290 -1.6787
14140TIP3    H263912   5.681   6.742   4.228  0.2065 -0.4640  2.2546
14141TIP3   OH263913   5.746   0.179   3.405  0.0132 -0.7173 -0.5278
14141TIP3    H163914   5.696   0.212   3.330 -0.3101 -0.4073 -0.1794
14141TIP3    H263915   5.736   0.246   3.472 -0.0175 -1.1760 -0.0682
14142TIP3   OH263916   0.090   4.009  14.970 -0.3554 -0.0063 -0.2193
14142TIP3    H163917   0.066   3.982  14.881 -0.2105  0.5111 -0.4183
14142TIP3    H263918   0.184   3.991  14.976 -0.5855 -1.1631  0.2447
14143TIP3   OH263919   0.435   5.560  11.010 -0.4126 -0.3526 -0.4221
14143TIP3    H163920   0.486   5.489  10.971  1.2483 -0.0075  0.9854
14143TIP3    H263921   0.443   5.632  10.949 -0.3418 -0.7212 -0.8544
14144TIP3   OH263922   6.435   5.513   4.173  0.4079 -0.4389  0.4338
14144TIP3    H163923   6.466   5.500   4.263  0.3761 -1.0067  0.3627
14144TIP3    H263924   6.347   5.549   4.184  0.8616  0.6653  0.6327
14145TIP3   OH263925   4.289   1.591  13.646 -0.1676  0.3505 -0.6624
14145TIP3    H163926   4.201   1.628  13.641 -0.4564 -0.3127 -0.5075
14145TIP3    H263927   4.287   1.533  13.721  0.3891  0.2850 -0.6937
14146TIP3   OH263928   4.154   5.670  11.342  0.9776 -0.4364  0.1296
14146TIP3    H163929   4.140   5.705  11.254  0.2372  0.5373  0.6259
14146TIP3    H263930   4.247   5.685  11.359  0.6128  1.6727  0.4777
14147TIP3   OH263931   1.210   3.287   5.634  0.5454  0.0788  0.7464
14147TIP3    H163932   1.150   3.243   5.695  0.4243 -0.8504 -0.0110
14147TIP3    H263933   1.153   3.317   5.563  1.0373 -1.4697 -0.3470
14148TIP3   OH263934   2.608   5.175  14.771 -0.2853  0.4188  0.4590
14148TIP3    H163935   2.593   5.105  14.708 -1.8526  0.7129  0.4512
14148TIP3    H263936   2.537   5.165  14.835  1.7895 -0.4661  2.7691
14149TIP3   OH263937   1.546   3.837   4.312  0.4044 -0.5889 -0.9631
14149TIP3    H163938   1.544   3.743   4.331  0.1704 -0.4216 -0.1245
14149TIP3    H263939   1.458   3.868   4.334  0.1232 -0.3584 -2.2920
14150TIP3   OH263940   1.753   2.563  16.428 -0.1525 -0.3136 -0.0764
14150TIP3    H163941   1.709   2.511  16.495 -0.8913  0.8852  0.4099
14150TIP3    H263942   1.681   2.597  16.374  0.2447  0.8439  0.1048
14151TIP3   OH263943   4.353   0.169   5.773 -0.2383 -0.1242  0.4271
14151TIP3    H163944   4.431   0.142   5.725 -0.7122 -1.1176  0.1867
14151TIP3    H263945   4.383   0.178   5.864 -0.0159 -1.2964  0.4770
14152TIP3   OH263946   1.591   5.222  14.559 -0.1498  0.3461  0.0589
14152TIP3    H163947   1.541   5.297  14.591 -0.3760  0.4954 -0.6399
14152TIP3    H263948   1.525   5.156  14.539 -0.2811  1.1924 -2.6459
14153TIP3   OH263949   1.363   6.174  16.514 -0.4431 -0.3415  0.2956
14153TIP3    H163950   1.402   6.096  16.554 -0.7497  0.3469  2.0638
14153TIP3    H263951   1.391   6.172  16.423 -0.8411 -2.7626  0.1573
14154TIP3   OH263952   2.906   2.859  11.687  0.1495 -0.2901  0.5098
14154TIP3    H163953   2.868   2.935  11.642 -1.4096  0.0955  2.3686
14154TIP3    H263954   2.980   2.895  11.736  0.1314 -0.2042  0.4741
14155TIP3   OH263955   2.118   3.252  16.028 -0.5968  0.0361 -0.3991
14155TIP3    H163956   2.066   3.173  16.013  0.0940 -0.3002 -1.1018
14155TIP3    H263957   2.065   3.323  15.993 -0.7076 -0.2733 -0.8753
14156TIP3   OH263958   4.253   5.637   1.828  0.1064  0.5450 -0.1405
14156TIP3    H163959   4.266   5.728   1.853  2.3355  0.3544 -0.4054
14156TIP3    H263960   4.317   5.588   1.880 -1.7684 -1.0639  0.8352
14157TIP3   OH263961   4.891   5.179  15.870  0.8811 -0.0518 -0.4448
14157TIP3    H163962   4.843   5.097  15.855  1.8954 -0.9798  1.0925
14157TIP3    H263963   4.976   5.151  15.904  1.1210  1.6423  0.4792
14158TIP3   OH263964   6.032   5.969   4.106  0.0278 -0.0749  0.0855
14158TIP3    H163965   6.017   5.985   4.013 -0.5574  0.2869  0.2385
14158TIP3    H263966   6.124   5.942   4.111  0.0894 -0.0119 -0.5829
14159TIP3   OH263967   6.638   3.981  16.567  0.2373  0.6001  0.1904
14159TIP3    H163968   6.725   3.960  16.601 -0.0392 -0.7983  0.1078
14159TIP3    H263969   6.597   4.033  16.636  1.1760  1.3903  0.1715
14160TIP3   OH263970   5.264   0.769  14.311 -0.4955  0.2302  0.1128
14160TIP3    H163971   5.321   0.785  14.386 -1.7546  0.4080  1.0788
14160TIP3    H263972   5.308   0.700  14.261  1.4748  1.6376 -0.2292
14161TIP3   OH263973   0.356   0.144   4.864  0.2482  0.2210  0.0767
14161TIP3    H163974   0.378   0.200   4.789  1.9578  1.9976  1.7894
14161TIP3    H263975   0.439   0.132   4.911  0.2911 -4.8731 -0.7397
14162TIP3   OH263976   4.751   4.763  11.668  0.3380  0.0364 -0.2838
14162TIP3    H163977   4.707   4.848  11.665  2.3522  1.1197 -3.3871
14162TIP3    H263978   4.778   4.746  11.578  1.7135 -3.0233  0.5589
14163TIP3   OH263979   0.940   2.795  16.821 -0.2043  0.0310 -0.0134
14163TIP3    H163980   0.919   2.847  16.898 -1.8947  0.5580 -0.8011
14163TIP3    H263981   0.877   2.723  16.822  1.3295 -1.3781  0.4003
14164TIP3   OH263982   4.287   1.464   1.603 -0.0680 -0.1489  0.3199
14164TIP3    H163983   4.193   1.468   1.624 -0.1668 -1.2022  0.1263
14164TIP3    H263984   4.290   1.474   1.508  0.1372  1.2521  0.4434
14165TIP3   OH263985   6.399   2.789  12.900 -0.2321  0.0719  0.0455
14165TIP3    H163986   6.356   2.843  12.966  1.1669  0.0874  0.9552
14165TIP3    H263987   6.349   2.707  12.900  0.4539 -0.3895  1.9824
14166TIP3   OH263988   0.009   5.323  16.387  0.2956 -0.2851 -0.1267
14166TIP3    H163989  -0.036   5.258  16.442 -1.5692  3.4051  3.2443
14166TIP3    H263990  -0.055   5.344  16.319 -0.3329  0.0441  0.5451
14167TIP3   OH263991   3.381   6.006   5.397 -0.0464 -0.3598 -0.2700
14167TIP3    H163992   3.444   6.039   5.333 -0.5683  2.1332  0.3984
14167TIP3    H263993   3.432   5.990   5.476  0.1263 -0.6386 -0.4382
14168TIP3   OH263994   3.731   3.348  11.999  0.0455 -0.0367 -0.3437
14168TIP3    H163995   3.821   3.318  12.006  0.5836  1.3039 -1.2210
14168TIP3    H263996   3.721   3.410  12.072  0.0112  0.2348 -0.5778
14169TIP3   OH263997   5.989   1.737   2.138 -0.0278 -0.1395  0.1316
14169TIP3    H163998   5.958   1.827   2.146 -0.3130 -0.1637 -0.6640
14169TIP3    H263999   6.077   1.739   2.175  1.1860  1.1497 -2.5710
14170TIP3   OH264000   3.484   0.295  11.673 -0.3791  0.1895 -0.3449
14170TIP3    H164001   3.399   0.288  11.717 -0.2797  0.6525 -0.0639
14170TIP3    H264002   3.502   0.389  11.672  1.5982 -0.0095  2.5067
14171TIP3   OH264003   0.256   2.773   0.615  0.0643  0.5621  0.7781
14171TIP3    H164004   0.226   2.788   0.705  1.0524  1.3817  0.9847
14171TIP3    H264005   0.213   2.841   0.563 -1.9372 -0.9796  0.2687
14172TIP3   OH264006   6.070   1.737  11.498 -0.0020 -0.6281  0.6616
14172TIP3    H164007   6.035   1.809  11.446 -0.6057 -1.0100  0.5221
14172TIP3    H264008   5.996   1.677  11.509  0.5103 -1.2680  0.7028
14173TIP3   OH264009   6.631   4.856   1.905  0.3555 -1.0886 -0.2507
14173TIP3    H164010   6.617   4.922   1.836  1.5849 -2.1379 -1.5763
14173TIP3    H264011   6.657   4.908   1.982  1.5411  0.0078 -1.3242
14174TIP3   OH264012   4.302   0.906   2.851 -0.0195 -0.0765 -0.2618
14174TIP3    H164013   4.206   0.910   2.852  0.0010  0.4752 -0.0268
14174TIP3    H264014   4.322   0.813   2.843 -0.5845 -0.0320 -2.8981
14175TIP3   OH264015   3.713   3.622   2.623 -0.1141  0.4142 -0.2696
14175TIP3    H164016   3.752   3.536   2.609  0.0521  0.3843  0.3510
14175TIP3    H264017   3.674   3.645   2.539 -1.8938 -1.1278  0.0907
14176TIP3   OH264018   1.632   4.605  16.835 -0.9224  0.9460  0.8591
14176TIP3    H164019   1.697   4.553  16.787 -2.1000 -2.4436  2.6242
14176TIP3    H264020   1.548   4.579  16.797 -1.5561  1.9608  1.5136
14177TIP3   OH264021   0.476   3.282  14.530 -0.1576  0.4872  0.0007
14177TIP3    H164022   0.564   3.319  14.522  0.0693  0.4171  1.7000
14177TIP3    H264023   0.475   3.243  14.618 -1.1258 -1.5755 -0.8836
14178TIP3   OH264024   3.696   1.634  16.962 -0.0705  0.1456  0.1708
14178TIP3    H164025   3.637   1.686  17.016  0.0223 -0.1340  0.5534
14178TIP3    H264026   3.640   1.597  16.893 -0.3248 -0.0274  0.4661
14179TIP3   OH264027   2.664   1.489   5.132 -0.2750 -0.0523 -0.2751
14179TIP3    H164028   2.664   1.554   5.062  1.5115 -0.1758 -0.4354
14179TIP3    H264029   2.680   1.540   5.212 -2.4520  0.1069  0.1153
14180TIP3   OH264030   5.697   4.331   2.806 -0.1473  0.0806  0.4011
14180TIP3    H164031   5.668   4.327   2.715  0.7396  3.0952 -0.1143
14180TIP3    H264032   5.615   4.332   2.857 -0.6507 -1.2996 -0.3327
14181TIP3   OH264033   1.691   2.208  13.784  0.2199 -0.1801  0.4613
14181TIP3    H164034   1.782   2.190  13.760 -0.1956 -2.4061  0.3253
14181TIP3    H264035   1.689   2.197  13.879  0.5566  2.3774  0.8313
14182TIP3   OH264036   5.158   1.630   0.733 -0.3015 -0.0853  0.0515
14182TIP3    H164037   5.083   1.689   0.729  1.2073  1.8846 -0.9929
14182TIP3    H264038   5.134   1.557   0.676 -1.6017  0.2555  0.1338
14183TIP3   OH264039   6.499   1.582   4.812  0.0958 -0.1636 -0.4205
14183TIP3    H164040   6.535   1.666   4.838 -0.5384 -0.0312  0.0651
14183TIP3    H264041   6.569   1.540   4.763  1.0274 -0.0478  0.7516
14184TIP3   OH264042   1.178   4.029  15.434  0.0997 -0.1716 -0.2434
14184TIP3    H164043   1.202   3.969  15.504 -0.7606  2.1653  2.2761
14184TIP3    H264044   1.091   4.000  15.407  0.8869 -1.7577 -1.2016
14185TIP3   OH264045   5.573   4.057   4.662 -0.0588  0.2469 -0.1721
14185TIP3    H164046   5.566   3.964   4.641 -1.4420  0.3354 -0.1626
14185TIP3    H264047   5.600   4.098   4.580 -0.6182 -0.0213 -0.4945
14186TIP3   OH264048   6.112   1.330   2.844 -0.7145  0.3597 -0.3611
14186TIP3    H164049   6.070   1.324   2.930 -0.9760  2.7069 -0.2817
14186TIP3    H264050   6.179   1.261   2.846 -3.9828 -3.1434 -0.2758
14187TIP3   OH264051   5.990   6.167   2.808 -0.6612  0.3443 -0.1716
14187TIP3    H164052   5.967   6.075   2.793 -1.3146  0.5770 -0.6930
14187TIP3    H264053   6.072   6.179   2.760  0.4731 -0.4356  1.4895
14188TIP3   OH264054   1.502   3.063   3.799 -0.1498  0.8088  0.6460
14188TIP3    H164055   1.526   3.155   3.813  3.8351  0.0245  0.2039
14188TIP3    H264056   1.562   3.014   3.855 -1.0137 -1.5761 -0.4070
14189TIP3   OH264057   2.052   1.084  12.914 -0.7348  0.0273  0.2629
14189TIP3    H164058   1.987   1.014  12.911  0.6384 -1.2660 -0.7079
14189TIP3    H264059   2.070   1.096  13.008 -0.1398 -1.7736  0.4118
14190TIP3   OH264060   0.194   5.242  11.764 -0.0763  0.3276 -0.2079
14190TIP3    H164061   0.226   5.152  11.753  0.9115  0.7785 -1.1560
14190TIP3    H264062   0.260   5.285  11.818  0.6233  1.0805 -1.6154
14191TIP3   OH264063   3.705   2.697   3.504  0.0759 -0.4462  0.8208
14191TIP3    H164064   3.615   2.725   3.518 -0.4911 -1.2226 -0.9760
14191TIP3    H264065   3.700   2.630   3.436  2.1299  0.4253 -0.3025
14192TIP3   OH264066   0.731   0.038   5.313  0.7781  1.1458 -0.7509
14192TIP3    H164067   0.719   0.032   5.408  0.5501  0.4737 -0.8183
14192TIP3    H264068   0.824   0.022   5.299  0.2379 -2.7492 -0.9182
14193TIP3   OH264069   1.440   2.644  12.963  0.0198  0.3968  0.0622
14193TIP3    H164070   1.378   2.606  13.026 -0.7007 -0.2561 -1.0056
14193TIP3    H264071   1.463   2.729  13.000 -0.5228  0.1001  1.1149
14194TIP3   OH264072   1.313   3.309  13.135  0.2856  0.7418 -0.3317
14194TIP3    H164073   1.289   3.373  13.068 -1.3585  1.9005  1.2684
14194TIP3    H264074   1.407   3.295  13.123  0.1833  1.4577 -2.3694
14195TIP3   OH264075   0.989   2.594  13.630  0.7431 -0.0951 -0.7289
14195TIP3    H164076   0.964   2.502  13.638 -0.5310  0.0272 -2.6260
14195TIP3    H264077   0.910   2.638  13.597  0.6547  2.1018  2.0312
14196TIP3   OH264078   3.528   4.328   2.039  0.2702  0.4979  0.2221
14196TIP3    H164079   3.618   4.321   2.072  0.2226  0.5831  0.3705
14196TIP3    H264080   3.538   4.358   1.949  0.4067  0.1663  0.1229
14197TIP3   OH264081   6.575   3.947  14.066 -0.6611 -0.6330  0.1351
14197TIP3    H164082   6.539   3.873  14.018  1.0563 -0.6014 -1.2968
14197TIP3    H264083   6.638   3.986  14.006 -0.1692  0.8686  1.5588
14198TIP3   OH264084   3.793   4.541  11.747  0.1520 -0.4031 -0.4501
14198TIP3    H164085   3.842   4.478  11.694 -2.0421 -1.1555 -1.6862
14198TIP3    H264086   3.861   4.598  11.785  2.2164 -3.2003  0.4276
14199TIP3   OH264087   0.422   2.019   2.764  0.3589  0.1830 -0.4814
14199TIP3    H164088   0.499   2.076   2.759  1.2248 -0.6137  2.1453
14199TIP3    H264089   0.458   1.930   2.768 -0.6277 -0.1850  1.1671
14200TIP3   OH264090   1.446   0.105  15.455 -0.0729 -0.4016 -0.4090
14200TIP3    H164091   1.455   0.188  15.408  0.9318 -0.0579  0.3458
14200TIP3    H264092   1.525   0.100  15.509  0.5455 -2.5031 -1.4346
14201TIP3   OH264093   1.041   4.596  13.022  0.1175 -0.2859  0.7492
14201TIP3    H164094   1.071   4.576  13.110  0.7441 -1.5293  0.2744
14201TIP3    H264095   1.050   4.691  13.015  1.8695 -0.3719  1.3876
14202TIP3   OH264096   5.348   3.239  15.108 -0.0951 -0.3219 -0.4559
14202TIP3    H164097   5.406   3.297  15.059 -1.1402  0.9136 -0.2854
14202TIP3    H264098   5.388   3.232  15.194  0.1508 -0.0155 -0.5442
14203TIP3   OH264099   5.168   6.121   3.870 -0.6907 -0.2293  0.1542
14203TIP3    H164100   5.115   6.192   3.833 -0.1479  0.4664  0.6937
14203TIP3    H264101   5.103   6.061   3.908 -1.2598 -0.8879 -1.7080
14204TIP3   OH264102   0.644   5.707   5.596 -0.4265  0.0315  0.1310
14204TIP3    H164103   0.694   5.639   5.550 -1.0414 -0.8279  0.7082
14204TIP3    H264104   0.683   5.789   5.566 -0.5274 -0.5135 -1.6065
14205TIP3   OH264105   1.991   1.333   6.091 -0.1827  0.4488  0.3011
14205TIP3    H164106   1.965   1.250   6.131  0.0111  0.5485  0.6377
14205TIP3    H264107   1.934   1.398   6.130  0.2037  0.5888  0.6328
14206TIP3   OH264108   6.398   4.276  15.029  0.0574  0.5697  0.0600
14206TIP3    H164109   6.408   4.349  14.967 -2.9386  0.1318 -1.1146
14206TIP3    H264110   6.310   4.287  15.064 -0.3477 -2.2700  0.1392
14207TIP3   OH264111   5.398   3.027   0.588 -0.0584 -0.0405  0.1690
14207TIP3    H164112   5.451   3.089   0.638 -1.0611 -0.2092  1.5145
14207TIP3    H264113   5.427   2.941   0.618  0.5255 -0.2066 -0.8390
14208TIP3   OH264114   6.489   1.699   5.145 -0.5878  0.0273  0.5484
14208TIP3    H164115   6.501   1.783   5.190  0.4656  0.6521 -0.8160
14208TIP3    H264116   6.474   1.636   5.215  1.6534  0.8234  1.8355
14209TIP3   OH264117   3.930   2.740   0.990  0.2666 -0.0364 -0.1864
14209TIP3    H164118   3.861   2.737   1.056  1.0713  0.6835  0.7222
14209TIP3    H264119   3.889   2.708   0.910 -0.4502 -2.0764  0.9201
14210TIP3   OH264120   4.013   3.756   3.452 -0.2371 -0.7580  0.1426
14210TIP3    H164121   3.940   3.710   3.494  0.4013 -1.8280  0.1325
14210TIP3    H264122   3.974   3.832   3.410 -1.1301 -0.5345  1.3435
14211TIP3   OH264123   2.287   3.356   2.274  0.4655  0.2134 -0.1338
14211TIP3    H164124   2.287   3.446   2.241  1.2873 -0.5253 -2.3466
14211TIP3    H264125   2.379   3.334   2.284  0.2829 -0.5235 -0.0353
14212TIP3   OH264126   6.076   5.356  13.804 -0.0171  0.8017 -0.4550
14212TIP3    H164127   6.065   5.420  13.733 -1.3556  0.2849 -0.7368
14212TIP3    H264128   6.085   5.272  13.759  0.6653  0.6453 -0.0467
14213TIP3   OH264129   4.264   2.720   3.158 -0.1131  0.4093  0.2451
14213TIP3    H164130   4.322   2.796   3.156 -0.3307  0.5771  0.3403
14213TIP3    H264131   4.189   2.745   3.105 -0.9022  0.8429  1.5329
14214TIP3   OH264132   6.645   1.453   4.179  0.1075  0.0271  0.2960
14214TIP3    H164133   6.661   1.530   4.234 -0.4752  0.8871 -0.7019
14214TIP3    H264134   6.690   1.381   4.224 -0.9810  0.5354  2.2808
14215TIP3   OH264135   3.951   5.652  12.847  0.1523  0.0920  0.1314
14215TIP3    H164136   4.021   5.657  12.912  1.7125  0.2649 -1.4848
14215TIP3    H264137   3.915   5.564  12.857  1.2354 -0.3379  0.3836
14216TIP3   OH264138   3.983   2.762  15.283 -0.0424 -0.3507 -0.1207
14216TIP3    H164139   4.074   2.771  15.310 -0.0550 -0.3825 -0.0687
14216TIP3    H264140   3.949   2.852  15.283  0.3727 -0.1650 -1.4871
14217TIP3   OH264141   1.882   5.828  11.890  0.4316  0.0009 -0.3705
14217TIP3    H164142   1.836   5.882  11.825 -0.3307 -1.6741 -1.2826
14217TIP3    H264143   1.911   5.751  11.841  0.5404 -0.9323  1.1062
14218TIP3   OH264144   0.495   3.100   5.388 -0.5006  0.5417 -0.2709
14218TIP3    H164145   0.542   3.131   5.311 -0.9935 -1.0735 -1.2762
14218TIP3    H264146   0.440   3.173   5.414  0.6296  1.5678 -0.6370
14219TIP3   OH264147   5.025   3.880   6.059  0.2495  0.3530  0.5071
14219TIP3    H164148   5.006   3.935   6.135  0.6920  1.6312 -0.2902
14219TIP3    H264149   5.021   3.939   5.984  1.8896 -0.4384 -0.2653
14220TIP3   OH264150   2.087   0.139  13.807 -0.5588  0.1024 -0.2483
14220TIP3    H164151   2.033   0.207  13.847  1.6940  0.5737  2.3272
14220TIP3    H264152   2.157   0.186  13.762 -0.1316 -0.4780 -0.2165
14221TIP3   OH264153   1.997   3.775   2.900 -0.1483  0.2025  0.4071
14221TIP3    H164154   1.932   3.773   2.830 -0.1431  0.5678  0.3924
14221TIP3    H264155   1.977   3.698   2.954  0.4452 -0.6298 -0.5349
14222TIP3   OH264156   5.671   6.022   1.205 -0.3496 -0.1421 -0.1484
14222TIP3    H164157   5.677   5.941   1.154 -1.0868  1.2701 -2.6297
14222TIP3    H264158   5.583   6.019   1.242 -0.7540 -0.0552 -1.0640
14223TIP3   OH264159   4.835   4.293   4.485  0.2000 -0.0104 -0.3603
14223TIP3    H164160   4.771   4.355   4.521  2.7007  2.0897  0.8038
14223TIP3    H264161   4.890   4.270   4.560  1.4463 -0.8776 -1.5104
14224TIP3   OH264162   2.219   4.553  10.767  0.2097  0.3574 -0.2118
14224TIP3    H164163   2.174   4.576  10.848 -1.5568  0.3348 -1.1332
14224TIP3    H264164   2.263   4.470  10.787 -2.0866 -0.8691  0.1223
14225TIP3   OH264165   3.900   2.127  12.587 -0.0162 -0.4066  0.1358
14225TIP3    H164166   3.905   2.047  12.640 -2.7896 -0.4733  0.4434
14225TIP3    H264167   3.855   2.099  12.507  0.3396  0.5767 -0.4237
14226TIP3   OH264168   3.010   4.686   1.250  0.3434  0.0486  0.4957
14226TIP3    H164169   2.968   4.636   1.180 -2.9108  1.6854  1.0796
14226TIP3    H264170   3.017   4.625   1.323 -1.7115 -0.1576  0.5694
14227TIP3   OH264171   2.593   4.847   0.735 -0.1629  0.5323 -0.3279
14227TIP3    H164172   2.550   4.932   0.744 -0.0559  0.5628 -0.0893
14227TIP3    H264173   2.668   4.852   0.794 -1.3312 -0.4969  1.3120
14228TIP3   OH264174   0.497   0.978   5.724 -0.0935 -0.0429  0.2286
14228TIP3    H164175   0.457   0.969   5.810  0.4086 -2.0743  0.3138
14228TIP3    H264176   0.484   1.070   5.700 -0.2029  0.5853  2.4739
14229TIP3   OH264177   0.906   3.594  14.547 -0.7389 -0.7193 -0.1264
14229TIP3    H164178   0.992   3.588  14.590 -0.0868 -3.8828 -1.5626
14229TIP3    H264179   0.902   3.684  14.515  2.3502 -0.6001 -0.4914
14230TIP3   OH264180   3.261   5.624  11.418  0.3474  0.1961  0.4897
14230TIP3    H164181   3.309   5.609  11.337  1.8834 -0.1365  1.4260
14230TIP3    H264182   3.184   5.568  11.411 -1.0995  2.2714 -1.9499
14231TIP3   OH264183   3.478   0.939  11.864  0.3201  0.0513  0.1809
14231TIP3    H164184   3.438   0.853  11.877  0.4479 -0.4954 -2.4453
14231TIP3    H264185   3.404   0.998  11.849  0.2148  0.5202  2.2913
14232TIP3   OH264186   5.776   4.456  16.303 -0.3263  0.3064 -0.3366
14232TIP3    H164187   5.781   4.369  16.263 -0.2284  0.9221 -1.7483
14232TIP3    H264188   5.867   4.480  16.319 -0.3365  0.2612 -0.2120
14233TIP3   OH264189   5.281   6.607   4.836 -0.3288  0.2221  0.3703
14233TIP3    H164190   5.253   6.699   4.832  1.2805  0.7103 -0.3235
14233TIP3    H264191   5.242   6.574   4.917 -1.8519  1.1827  0.0694
14234TIP3   OH264192   3.821   0.125  15.289  0.1479  0.7062  0.5341
14234TIP3    H164193   3.803   0.031  15.294  0.6759  0.6307  1.1311
14234TIP3    H264194   3.805   0.147  15.197  3.3437 -0.6900 -0.5219
14235TIP3   OH264195   4.662   4.262  11.094  1.1099  0.0362  0.6588
14235TIP3    H164196   4.745   4.249  11.048  0.3124 -0.4784 -0.7082
14235TIP3    H264197   4.622   4.175  11.095 -1.1558  0.9021 -2.2514
14236TIP3   OH264198   0.869   5.705  14.300  0.8155  0.6019 -0.3752
14236TIP3    H164199   0.842   5.665  14.383  1.5106 -0.6434 -0.7125
14236TIP3    H264200   0.797   5.764  14.277 -0.6462 -1.0326 -0.2196
14237TIP3   OH264201   6.345   5.836  17.436 -0.7944  0.4940  0.5257
14237TIP3    H164202   6.300   5.900  17.491 -0.0296  0.0748  1.6518
14237TIP3    H264203   6.315   5.857  17.347 -0.9177  2.1037  0.9187
14238TIP3   OH264204   4.911   5.813  11.030  0.4022  0.1376 -0.5155
14238TIP3    H164205   5.003   5.786  11.034  0.4262  0.3110  0.2428
14238TIP3    H264206   4.912   5.896  10.981  0.3886 -0.8976 -2.3861
14239TIP3   OH264207   1.852   4.334   1.404 -0.5640  0.1802 -0.1085
14239TIP3    H164208   1.856   4.375   1.317 -0.8598 -1.8700 -1.1572
14239TIP3    H264209   1.816   4.247   1.387  0.8488 -0.8646  1.8610
14240TIP3   OH264210   5.043   0.325   0.488  0.4980 -0.4080  0.3420
14240TIP3    H164211   5.033   0.246   0.541  2.1417 -2.2379 -1.8592
14240TIP3    H264212   4.966   0.324   0.431 -0.9323  1.2057  2.1123
14241TIP3   OH264213   1.856   1.158   2.612  0.2508 -0.0671  0.0448
14241TIP3    H164214   1.931   1.115   2.570  1.2978  2.2649 -0.6520
14241TIP3    H264215   1.895   1.233   2.659 -1.4056 -0.1288  1.6149
14242TIP3   OH264216   3.636   6.242   4.067 -0.6497 -0.2607  0.3924
14242TIP3    H164217   3.570   6.232   3.998 -0.5859  1.3133  0.0639
14242TIP3    H264218   3.713   6.197   4.033 -0.7033  0.2608 -0.4596
14243TIP3   OH264219   4.637   1.508   4.953  0.3800 -0.4925 -0.2241
14243TIP3    H164220   4.597   1.423   4.931  0.5818 -0.2537 -1.5868
14243TIP3    H264221   4.731   1.494   4.940  0.3214  0.2482 -1.6490
14244TIP3   OH264222   2.557   5.468  13.089 -0.1146  0.5022  0.2575
14244TIP3    H164223   2.646   5.458  13.121 -0.5606 -0.5614  1.2045
14244TIP3    H264224   2.510   5.392  13.122 -1.4175  1.1139 -0.1126
14245TIP3   OH264225   4.274   6.755   0.396  0.0639 -0.1904  0.6918
14245TIP3    H164226   4.257   6.708   0.478 -3.4825  1.2462  0.9269
14245TIP3    H264227   4.288   6.846   0.423  2.4597 -0.2337 -0.1272
14246TIP3   OH264228   3.872   4.933  16.695  0.2495  0.5076 -0.0040
14246TIP3    H164229   3.913   4.953  16.611  1.1216  1.1733  0.5620
14246TIP3    H264230   3.879   4.838  16.703 -0.5371  0.3425 -1.0154
14247TIP3   OH264231   0.217   6.531   1.074  0.0857  0.4229  0.0431
14247TIP3    H164232   0.205   6.586   1.151  2.4877  1.7960 -0.4371
14247TIP3    H264233   0.266   6.456   1.106 -0.3003  0.2134  0.1369
14248TIP3   OH264234   5.521   1.699  13.212  0.3293  0.1319 -0.5185
14248TIP3    H164235   5.603   1.676  13.255 -0.1390 -0.1120  0.2757
14248TIP3    H264236   5.480   1.762  13.271 -1.4252 -1.9709  0.6661
14249TIP3   OH264237   4.490   0.886  14.271 -0.3983 -0.0908 -0.5054
14249TIP3    H164238   4.555   0.925  14.328 -0.4364 -0.3695 -0.2724
14249TIP3    H264239   4.460   0.808  14.317  0.8850 -1.3446 -1.7141
14250TIP3   OH264240   4.490   0.637   5.934 -0.2183  0.1993  0.3977
14250TIP3    H164241   4.428   0.566   5.920  0.4251 -0.1447 -0.9103
14250TIP3    H264242   4.475   0.665   6.024 -1.0757 -1.0223  0.6610
14251TIP3   OH264243   0.296   4.846  15.593 -0.0717 -0.3529 -0.3324
14251TIP3    H164244   0.283   4.754  15.573 -1.1607 -0.0668 -1.0080
14251TIP3    H264245   0.209   4.886  15.583  0.1279  0.5366  1.0937
14252TIP3   OH264246   5.902   2.727   4.156 -0.3372  0.1829 -0.9911
14252TIP3    H164247   5.922   2.739   4.249 -1.5208 -0.1607 -0.6747
14252TIP3    H264248   5.808   2.746   4.150 -0.1500  0.7902 -2.2252
14253TIP3   OH264249   1.579   4.307   3.475  0.0106 -0.0162 -0.0123
14253TIP3    H164250   1.558   4.324   3.567 -1.6352 -1.2863 -0.0952
14253TIP3    H264251   1.653   4.247   3.478 -0.2351 -0.3076  0.5095
14254TIP3   OH264252   4.653   6.040  13.087 -0.5502 -0.3041 -0.4911
14254TIP3    H164253   4.652   6.135  13.073  1.3820 -0.1657  0.0479
14254TIP3    H264254   4.600   6.028  13.166  1.1807  0.6528  0.8838
14255TIP3   OH264255   6.638   4.505   2.151 -0.6830  0.1559  0.4056
14255TIP3    H164256   6.720   4.474   2.191 -0.4729 -0.6068 -0.5516
14255TIP3    H264257   6.631   4.596   2.178 -0.4675 -0.2662  1.9977
14256TIP3   OH264258   3.303   2.960  17.283 -0.2881 -0.4762  0.0469
14256TIP3    H164259   3.324   3.020  17.212 -0.0819 -0.0311  0.4768
14256TIP3    H264260   3.357   2.990  17.356  1.0212 -2.1548 -0.1813
14257TIP3   OH264261   4.139   2.535   5.635 -0.1060  0.4434 -0.3405
14257TIP3    H164262   4.135   2.448   5.674 -0.5840 -0.8789 -3.1475
14257TIP3    H264263   4.139   2.520   5.541 -0.4932  3.5015 -0.9364
14258TIP3   OH264264   1.971   2.250  13.647  0.8553 -0.2858  0.2196
14258TIP3    H164265   1.959   2.324  13.587 -3.7691  0.0696  1.2362
14258TIP3    H264266   1.947   2.284  13.733 -1.0438 -2.7400  0.7929
14259TIP3   OH264267   1.305   4.214   3.318  0.0857  0.1440 -0.0310
14259TIP3    H164268   1.375   4.150   3.328  0.4179  0.6316  0.8992
14259TIP3    H264269   1.350   4.295   3.296 -0.1092  0.6088  1.1971
14260TIP3   OH264270   6.677   3.426   1.673  0.2820 -0.5815 -0.0336
14260TIP3    H164271   6.754   3.378   1.704 -0.5888 -1.6093  0.5996
14260TIP3    H264272   6.611   3.411   1.740 -0.7749 -0.4935 -1.0295
14261TIP3   OH264273   1.497   4.169  13.551  1.1059 -0.0099 -0.1744
14261TIP3    H164274   1.566   4.105  13.535  0.9916  0.0668 -0.9847
14261TIP3    H264275   1.456   4.140  13.632  1.7918 -0.3135  0.0705
14262TIP3   OH264276   1.864   5.211   6.705  0.4393  0.6852 -0.5349
14262TIP3    H164277   1.830   5.297   6.680 -2.6689 -0.6285 -1.4057
14262TIP3    H264278   1.901   5.176   6.624  3.7509  1.8963  0.2928
14263TIP3   OH264279   5.330   3.153   1.288  0.2940 -0.6722 -0.8881
14263TIP3    H164280   5.415   3.196   1.274 -0.0256  0.4810  0.5713
14263TIP3    H264281   5.339   3.109   1.372 -1.1148  0.9902  0.2016
14264TIP3   OH264282   6.143   6.558   4.858 -0.0042 -0.1135 -0.1820
14264TIP3    H164283   6.135   6.521   4.946 -0.7595 -1.2958 -0.7201
14264TIP3    H264284   6.205   6.501   4.814 -1.2508 -0.8518 -1.0509
14265TIP3   OH264285   4.551   0.739   2.537  0.5222 -0.0833 -0.1535
14265TIP3    H164286   4.591   0.813   2.583  1.8659 -0.5880 -0.4572
14265TIP3    H264287   4.625   0.683   2.514 -0.4024 -1.1621 -0.5721
14266TIP3   OH264288   2.673   0.306  14.416  0.9472  0.0725  0.4288
14266TIP3    H164289   2.729   0.380  14.437  0.6333  0.3209  0.3983
14266TIP3    H264290   2.728   0.229  14.431  1.2903  0.3111  0.4092
14267TIP3   OH264291   5.877   4.153   3.906 -0.1603 -0.5037 -0.0292
14267TIP3    H164292   5.945   4.130   3.843 -0.0239  1.0970 -0.4930
14267TIP3    H264293   5.797   4.161   3.853 -0.1657  0.2715  0.0936
14268TIP3   OH264294   0.569   3.885   0.727  0.1064 -0.1241  0.6358
14268TIP3    H164295   0.614   3.930   0.799  0.5329  0.9849 -0.3034
14268TIP3    H264296   0.540   3.803   0.766  0.6418  0.2895  1.9859
14269TIP3   OH264297   4.076   0.325   3.347  0.0508  0.3625  0.2415
14269TIP3    H164298   4.014   0.281   3.289 -0.6529  1.1953  0.3580
14269TIP3    H264299   4.056   0.291   3.434  1.5722 -1.4317 -0.0304
14270TIP3   OH264300   1.693   0.450   4.520  0.0914  0.0005  0.1883
14270TIP3    H164301   1.763   0.445   4.455 -0.4297 -0.0957 -0.3759
14270TIP3    H264302   1.683   0.360   4.550 -0.5355 -0.1806 -0.5408
14271TIP3   OH264303   5.454   5.635  17.167 -0.0496 -0.0842  0.1380
14271TIP3    H164304   5.445   5.642  17.072 -0.0073 -0.3857  0.1107
14271TIP3    H264305   5.428   5.545  17.187  0.7539 -0.2761  0.3218
14272TIP3   OH264306   5.626   6.405  14.422  0.3818 -0.3485  0.4759
14272TIP3    H164307   5.594   6.338  14.360 -1.4758 -0.0582  1.0483
14272TIP3    H264308   5.672   6.468  14.367  1.6674 -1.7852 -0.1512
14273TIP3   OH264309   2.287   4.128  17.101  0.1074 -0.1603  0.6791
14273TIP3    H164310   2.274   4.220  17.076 -1.8056 -0.4947  0.2625
14273TIP3    H264311   2.240   4.078  17.034  1.1605 -1.4630  0.8782
14274TIP3   OH264312   1.300   5.862  14.059  0.0641  0.0456  0.1744
14274TIP3    H164313   1.295   5.850  13.964  0.6182 -1.2044  0.2826
14274TIP3    H264314   1.393   5.848  14.080  0.1387  1.3059  0.7939
14275TIP3   OH264315   0.190   6.660  15.120 -0.3315  0.0588  0.4850
14275TIP3    H164316   0.095   6.645  15.120 -0.2282 -0.9466 -1.4397
14275TIP3    H264317   0.227   6.584  15.164 -0.3515 -0.3494 -0.1902
14276TIP3   OH264318   4.770   5.120   0.768 -0.3451  0.1429 -0.1354
14276TIP3    H164319   4.810   5.059   0.706 -0.4181  0.7784 -0.8281
14276TIP3    H264320   4.783   5.206   0.728 -2.6127  0.3702 -0.5363
14277TIP3   OH264321   3.746   0.895   3.283  0.2899  0.1636 -0.2922
14277TIP3    H164322   3.651   0.884   3.281  0.2558  0.4632 -0.3684
14277TIP3    H264323   3.764   0.959   3.214  0.6803 -0.8337 -1.1330
14278TIP3   OH264324   4.531   5.110   5.996 -0.6191 -0.3671  0.3067
14278TIP3    H164325   4.488   5.066   5.923 -0.5005  1.0104 -0.6298
14278TIP3    H264326   4.607   5.153   5.957  0.1730 -0.6545  1.4796
14279TIP3   OH264327   4.662   0.580  11.655  0.4536  0.0775  0.0625
14279TIP3    H164328   4.631   0.505  11.705  1.6742  0.4191  1.4138
14279TIP3    H264329   4.756   0.567  11.648  0.5768  1.1040 -0.3571
14280TIP3   OH264330   6.279   2.449   0.071  0.2297 -0.1380 -0.2349
14280TIP3    H164331   6.314   2.423   0.157 -1.3265 -1.0525  0.1701
14280TIP3    H264332   6.280   2.368   0.019 -1.3258 -0.2561 -0.1545
14281TIP3   OH264333   1.154   6.150   1.258 -0.1953 -0.1283  0.4576
14281TIP3    H164334   1.220   6.118   1.197 -0.1419  3.1738 -1.3985
14281TIP3    H264335   1.185   6.120   1.344  0.8002 -3.1746 -0.8222
14282TIP3   OH264336   5.957   0.278   4.470  0.3411  0.2114 -0.4777
14282TIP3    H164337   5.978   0.195   4.513 -1.3631 -0.8015 -1.4691
14282TIP3    H264338   6.035   0.331   4.481  0.7773 -0.7822  1.9228
14283TIP3   OH264339   4.523   0.186  14.723 -0.0634  0.4616 -0.1073
14283TIP3    H164340   4.610   0.220  14.741  0.5143 -1.0850  0.1609
14283TIP3    H264341   4.476   0.194  14.806  1.1953 -2.5765  1.0011
14284TIP3   OH264342   3.801   0.760   6.336 -0.1054  0.1369  0.1977
14284TIP3    H164343   3.844   0.804   6.263 -0.0466 -0.1079  0.0832
14284TIP3    H264344   3.850   0.788   6.413  1.0096 -1.0405 -0.0427
14285TIP3   OH264345   6.125   0.705  16.491 -0.7627 -0.1948  0.2236
14285TIP3    H164346   6.192   0.769  16.467 -0.8169 -0.8362 -1.8942
14285TIP3    H264347   6.042   0.752  16.481 -0.7309 -0.1087  0.3671
14286TIP3   OH264348   6.551   0.452   3.129  0.5083  0.1448  0.3818
14286TIP3    H164349   6.529   0.361   3.147 -0.5632  0.1915 -0.5586
14286TIP3    H264350   6.492   0.503   3.185 -0.6040  0.2609 -0.8597
14287TIP3   OH264351   2.311   1.343  14.489 -0.0679  0.1579 -0.1899
14287TIP3    H164352   2.369   1.283  14.538  0.4608  0.3561 -0.5624
14287TIP3    H264353   2.336   1.331  14.398 -0.0913  0.8087 -0.2845
14288TIP3   OH264354   2.702   3.978  12.486 -0.3023 -0.1337 -0.2581
14288TIP3    H164355   2.632   3.967  12.422  0.8248  0.9711 -1.7412
14288TIP3    H264356   2.782   3.955  12.439  0.3480 -1.9378  1.5670
14289TIP3   OH264357   5.282   2.462   4.240 -0.0942 -0.2996 -0.0410
14289TIP3    H164358   5.228   2.396   4.197  0.9041 -1.1077 -0.0887
14289TIP3    H264359   5.341   2.412   4.296 -1.1361  0.6912  2.0644
14290TIP3   OH264360   1.648   3.599   5.423  0.0087 -0.3462 -0.3220
14290TIP3    H164361   1.606   3.526   5.379 -0.0372 -1.2542  1.1577
14290TIP3    H264362   1.654   3.572   5.515  0.2176  1.4021  0.2245
14291TIP3   OH264363   1.044   3.458   0.014  0.0317 -0.0419 -1.1515
14291TIP3    H164364   1.095   3.381   0.038 -1.2460 -0.2587  1.1030
14291TIP3    H264365   1.071   3.477  -0.076  3.0627 -0.9032 -0.5551
14292TIP3   OH264366   0.691   0.873  13.703 -0.7102  0.6698 -0.3108
14292TIP3    H164367   0.787   0.869  13.707 -0.7872 -0.7528  1.9492
14292TIP3    H264368   0.672   0.967  13.709  0.5408  0.8824  1.1240
14293TIP3   OH264369   3.820   1.872  14.774 -0.1147  0.3793  0.8338
14293TIP3    H164370   3.869   1.949  14.745  2.3203 -1.1562  0.5970
14293TIP3    H264371   3.878   1.830  14.838  0.4491 -3.2016 -1.7105
14294TIP3   OH264372   4.552   3.173   4.762 -0.1079  0.5263  0.2262
14294TIP3    H164373   4.643   3.173   4.792  0.5407 -2.4628 -1.3445
14294TIP3    H264374   4.501   3.199   4.838  1.7691 -2.1103  2.5995
14295TIP3   OH264375   5.528   4.594   3.542  0.0122 -0.1915 -0.3119
14295TIP3    H164376   5.462   4.637   3.487 -0.3896 -0.3816  0.0157
14295TIP3    H264377   5.576   4.666   3.583 -0.3838 -0.0507 -0.0924
14296TIP3   OH264378   1.244   3.062   0.829  0.6359  0.0528 -0.2734
14296TIP3    H164379   1.152   3.075   0.854  0.2769  0.8478 -1.8887
14296TIP3    H264380   1.277   3.150   0.812  1.6936 -0.2330  0.2244
14297TIP3   OH264381   6.523   2.909  13.573 -0.4779  0.5079 -0.2846
14297TIP3    H164382   6.485   2.826  13.546 -0.2334  0.3406 -0.1113
14297TIP3    H264383   6.616   2.891  13.586 -0.8984  0.0159  2.8544
14298TIP3   OH264384   2.634   4.472   5.471 -0.5963  0.2483  0.2954
14298TIP3    H164385   2.709   4.512   5.516 -0.2094  1.0000 -0.9745
14298TIP3    H264386   2.559   4.527   5.497 -0.5453  0.0803  0.8013
14299TIP3   OH264387   5.017   1.275   0.850  0.2668  0.0217  0.1454
14299TIP3    H164388   5.099   1.260   0.803  0.2817  2.9870 -0.9804
14299TIP3    H264389   4.954   1.217   0.808  1.2567 -0.5362 -0.6012
14300TIP3   OH264390   1.796   3.303   0.308  0.1633 -0.6754 -0.0178
14300TIP3    H164391   1.776   3.219   0.348 -1.0944 -0.8216 -0.8901
14300TIP3    H264392   1.776   3.367   0.377 -2.1060 -0.9099 -0.3572
14301TIP3   OH264393   1.470   2.417  15.952  0.4580 -0.4070 -0.9909
14301TIP3    H164394   1.376   2.429  15.959  0.5417  0.5009 -1.3390
14301TIP3    H264395   1.492   2.356  16.023 -0.3642 -0.5143 -0.8241
14302TIP3   OH264396   4.309   4.074  11.150  0.0752  0.2202 -0.1516
14302TIP3    H164397   4.339   4.146  11.206 -2.1712  1.1868 -0.0900
14302TIP3    H264398   4.390   4.034  11.117  1.4050  1.7755  1.0634
14303TIP3   OH264399   5.369   6.524  12.760  0.2067  0.1392  0.2697
14303TIP3    H164400   5.279   6.522  12.792  0.3722  0.9055  0.8100
14303TIP3    H264401   5.377   6.609  12.718  1.2968  1.0285  2.1358
14304TIP3   OH264402   2.455   4.952   1.572 -0.0416 -0.0752  0.3042
14304TIP3    H164403   2.483   4.951   1.480  1.2776 -3.0259  0.6190
14304TIP3    H264404   2.360   4.936   1.568  0.0863 -0.7046 -0.5550
14305TIP3   OH264405   4.207   5.363   4.710  0.1933 -0.1685  0.0134
14305TIP3    H164406   4.178   5.300   4.776 -1.3423  1.4832  0.9838
14305TIP3    H264407   4.189   5.319   4.626  0.9764 -1.7702  0.6352
14306TIP3   OH264408   0.136   0.638   0.990 -0.7466  0.1947  0.1448
14306TIP3    H164409   0.224   0.605   1.004 -0.6269  1.2456  2.2195
14306TIP3    H264410   0.095   0.575   0.931  1.3864 -0.2744 -0.9033
14307TIP3   OH264411   5.401   5.007   2.865 -0.7034  0.5991 -0.3146
14307TIP3    H164412   5.483   5.052   2.844 -1.0046  0.9728 -0.7147
14307TIP3    H264413   5.405   4.925   2.817 -0.7132  0.7684 -0.6029
14308TIP3   OH264414   3.036   2.918  16.330 -0.0387 -0.2867  0.1317
14308TIP3    H164415   3.005   2.997  16.376  2.9271  0.2184  1.5242
14308TIP3    H264416   2.993   2.846  16.376 -0.1239  0.3989  1.1802
14309TIP3   OH264417   1.857   2.295  16.093 -0.3637  0.8415 -0.8550
14309TIP3    H164418   1.828   2.290  16.001 -0.5804 -4.6151 -0.8007
14309TIP3    H264419   1.781   2.331  16.139 -1.7625  0.0339 -2.4060
14310TIP3   OH264420   3.901   2.647   4.970  0.4399 -0.1182  0.0758
14310TIP3    H164421   3.897   2.664   5.065 -0.0226  0.2220  0.0011
14310TIP3    H264422   3.965   2.711   4.938  0.3007  0.0348  0.1019
14311TIP3   OH264423   3.439   6.654  13.450  0.0725  0.8824 -0.0453
14311TIP3    H164424   3.397   6.571  13.430 -0.2568  0.7865  0.9733
14311TIP3    H264425   3.415   6.672  13.541  2.5154  0.6547  0.7261
14312TIP3   OH264426   4.154   1.308   2.013 -0.6974 -0.0261  0.1580
14312TIP3    H164427   4.222   1.290   2.079 -0.6074  0.7714  0.2917
14312TIP3    H264428   4.196   1.365   1.950 -1.3776  0.8818  0.5027
14313TIP3   OH264429   2.238   1.657  13.760 -0.2716  0.2084  0.0755
14313TIP3    H164430   2.230   1.745  13.794 -0.7947  0.3723 -0.4499
14313TIP3    H264431   2.165   1.609  13.799  1.2011 -0.5814  2.0449
14314TIP3   OH264432   5.049   5.772  14.931 -0.2034 -0.0122 -0.0321
14314TIP3    H164433   5.087   5.859  14.918  0.2846 -0.1924  0.1532
14314TIP3    H264434   5.125   5.713  14.935 -0.4834 -0.3269  0.7508
14315TIP3   OH264435   5.301   5.780   0.580 -0.1977 -0.1251 -0.1909
14315TIP3    H164436   5.257   5.719   0.639 -1.9207  0.7179 -0.5726
14315TIP3    H264437   5.292   5.740   0.493  0.8012 -0.4868 -0.1510
14316TIP3   OH264438   2.360   4.964   2.770  0.4494  0.7329 -0.1959
14316TIP3    H164439   2.402   4.925   2.693  0.8178 -1.6234  1.1087
14316TIP3    H264440   2.271   4.929   2.768  0.0236  1.7728 -0.2557
14317TIP3   OH264441   0.359   1.993   1.674 -0.4270  0.0937  0.9412
14317TIP3    H164442   0.392   2.083   1.682  1.1795 -0.5756  2.7494
14317TIP3    H264443   0.301   1.981   1.749 -0.2578 -0.5161  0.9826
14318TIP3   OH264444   6.372   0.691   4.595 -0.4690  0.0380 -0.1533
14318TIP3    H164445   6.406   0.776   4.623  1.0024 -0.2945 -0.8377
14318TIP3    H264446   6.284   0.711   4.561 -0.5750  1.0979  0.6918
14319TIP3   OH264447   3.636   3.759   0.371  0.0369  0.4264  0.0041
14319TIP3    H164448   3.649   3.815   0.447 -0.4178 -0.2046  0.5613
14319TIP3    H264449   3.722   3.755   0.329  0.3261  0.6651  0.5663
14320TIP3   OH264450   3.667   3.461   2.044 -0.0324 -0.3622  0.3019
14320TIP3    H164451   3.710   3.443   2.127 -0.5098  2.0139  1.1258
14320TIP3    H264452   3.580   3.421   2.052 -0.2484  0.2612  1.1523
14321TIP3   OH264453   0.903   1.777   0.727  0.8290 -0.1701  0.6410
14321TIP3    H164454   0.941   1.858   0.693 -1.7947  1.2485  0.7932
14321TIP3    H264455   0.859   1.803   0.808  0.6865 -1.9503  1.1904
14322TIP3   OH264456   1.983   2.447   3.382  0.3553  0.7064 -0.4342
14322TIP3    H164457   1.987   2.407   3.295  0.2636  0.6722 -0.4224
14322TIP3    H264458   2.003   2.376   3.442 -0.9459  0.3937 -0.3352
14323TIP3   OH264459   2.590   1.499   5.727 -0.1834  0.3236 -0.1738
14323TIP3    H164460   2.572   1.405   5.725  0.2449  0.2308  0.2126
14323TIP3    H264461   2.539   1.531   5.801 -1.3060  0.6095 -1.0523
14324TIP3   OH264462   3.303   6.150  12.352 -0.3655 -0.0280 -0.7674
14324TIP3    H164463   3.296   6.168  12.446 -1.5651  3.2601 -1.3569
14324TIP3    H264464   3.393   6.121  12.340  0.2192  0.8168  1.2065
14325TIP3   OH264465   5.737   1.620  14.088 -0.1951 -0.1264  0.3322
14325TIP3    H164466   5.684   1.572  14.025 -0.0579  0.6107 -0.3588
14325TIP3    H264467   5.681   1.628  14.165 -0.5340 -0.6319  0.1450
14326TIP3   OH264468   4.865   2.567   1.997  0.5885  0.0709  0.1766
14326TIP3    H164469   4.893   2.613   1.917 -1.1042 -0.1505 -0.5858
14326TIP3    H264470   4.890   2.476   1.982  0.8952  0.1468  0.2118
14327TIP3   OH264471   6.155   2.820   5.997  0.1889  0.2997 -0.3231
14327TIP3    H164472   6.160   2.839   5.903  1.1214  0.8406 -0.1805
14327TIP3    H264473   6.245   2.800   6.022  0.1037  1.0361  0.6208
14328TIP3   OH264474   3.863   0.107  17.081  0.3371  0.2593 -0.1809
14328TIP3    H164475   3.947   0.061  17.073 -0.4718 -1.1853 -0.6521
14328TIP3    H264476   3.857   0.161  17.002  0.0472 -0.9876 -1.0400
14329TIP3   OH264477   4.502   2.141   3.436 -0.7354 -0.3895  0.0400
14329TIP3    H164478   4.586   2.122   3.395 -0.5436  0.6501 -0.0615
14329TIP3    H264479   4.467   2.054   3.460 -0.8947 -1.0442 -2.3553
14330TIP3   OH264480   3.360   0.469  16.251 -0.2690 -0.0112 -0.0827
14330TIP3    H164481   3.290   0.483  16.186  0.0672 -0.9164 -0.6642
14330TIP3    H264482   3.313   0.443  16.331 -0.6490  0.3583 -0.1844
14331TIP3   OH264483   3.262   5.206   4.151  0.5739 -0.3267  0.5081
14331TIP3    H164484   3.327   5.137   4.157  1.9253  0.6390 -1.6440
14331TIP3    H264485   3.184   5.169   4.193  2.1784 -1.8841  2.2914
14332TIP3   OH264486   1.378   4.367  17.021 -0.1519 -0.1840 -0.3971
14332TIP3    H164487   1.338   4.409  17.097  1.4972  0.1584  0.3310
14332TIP3    H264488   1.469   4.353  17.047  0.5654  0.3168 -2.4776
14333TIP3   OH264489   5.210   0.865  15.578  0.7886 -0.3934  0.3253
14333TIP3    H164490   5.273   0.852  15.649 -0.2998  0.7728  1.5543
14333TIP3    H264491   5.131   0.898  15.621 -0.8748 -2.2540 -1.1011
14334TIP3   OH264492   3.592   6.721   3.952 -0.1315 -0.4425  0.5905
14334TIP3    H164493   3.617   6.777   4.025  0.8551  0.5505 -0.4699
14334TIP3    H264494   3.652   6.646   3.958 -0.4401 -0.6563  1.1160
14335TIP3   OH264495   3.647   5.628   2.661  0.4355  0.1531  0.3550
14335TIP3    H164496   3.719   5.691   2.661 -0.4022  1.1492  0.9228
14335TIP3    H264497   3.579   5.670   2.714 -0.4789 -0.8590  0.0126
14336TIP3   OH264498   2.708   2.960   6.647 -0.3078 -0.3777 -0.2260
14336TIP3    H164499   2.747   2.984   6.731  1.0021 -2.9820  0.0361
14336TIP3    H264500   2.614   2.961   6.662 -0.1568  0.7594  0.7611
14337TIP3   OH264501   4.977   3.339   5.732  0.3679  0.1037 -0.4299
14337TIP3    H164502   4.969   3.307   5.821  0.4690  0.5151 -0.2729
14337TIP3    H264503   5.019   3.267   5.684  1.3302  0.2916  0.0983
14338TIP3   OH264504   5.415   3.235   5.501  0.3411 -0.5323 -0.1897
14338TIP3    H164505   5.448   3.324   5.487  3.1561 -1.3494  0.7690
14338TIP3    H264506   5.372   3.238   5.586 -0.5669  0.1194 -0.6494
14339TIP3   OH264507   2.575   0.593  17.080 -0.3612 -0.4090 -0.5825
14339TIP3    H164508   2.494   0.580  17.031 -0.9285 -0.3157  0.3132
14339TIP3    H264509   2.588   0.511  17.127 -1.0145  0.2595  0.8157
14340TIP3   OH264510   5.257   3.390  12.943  0.3808  0.1991 -0.4591
14340TIP3    H164511   5.209   3.323  12.893 -1.3451 -0.1004  1.4925
14340TIP3    H264512   5.224   3.473  12.908 -2.0557  0.0103  1.1491
14341TIP3   OH264513   4.256   4.783   2.167 -0.0456 -0.1973 -0.5890
14341TIP3    H164514   4.262   4.688   2.159 -0.1730 -0.2482 -0.0925
14341TIP3    H264515   4.309   4.816   2.094 -0.9564 -0.6339 -1.4840
14342TIP3   OH264516   3.456   5.022  13.563  0.3597  0.4345 -0.1030
14342TIP3    H164517   3.401   5.085  13.609 -0.1662 -0.4470  0.5192
14342TIP3    H264518   3.536   5.070  13.543  0.0321  1.2495  0.4833
14343TIP3   OH264519   1.426   2.684  12.139 -0.4837  0.2300  0.2442
14343TIP3    H164520   1.430   2.717  12.049 -1.1426  1.7930  0.7412
14343TIP3    H264521   1.499   2.726  12.183 -0.4950 -0.0965  0.5737
14344TIP3   OH264522   0.141   5.125  15.745  0.1928 -0.6087  0.2234
14344TIP3    H164523   0.090   5.097  15.822 -0.4223  1.1803  0.5227
14344TIP3    H264524   0.101   5.079  15.672 -1.4431  0.2264  0.5507
14345TIP3   OH264525   1.535   1.738   3.689  0.1313 -0.1474  0.1329
14345TIP3    H164526   1.482   1.801   3.737 -2.0838 -0.3737 -1.8636
14345TIP3    H264527   1.547   1.665   3.751 -0.7541  0.4833  1.0725
14346TIP3   OH264528   4.316   3.736  16.389 -0.1848  0.1107 -0.3880
14346TIP3    H164529   4.410   3.749  16.377 -0.1719 -1.2466 -1.9854
14346TIP3    H264530   4.294   3.790  16.465  1.4524  2.2445 -1.3358
14347TIP3   OH264531   0.065   5.770   2.344 -0.6874  0.0070  0.2067
14347TIP3    H164532   0.051   5.790   2.251 -0.3747 -2.4627 -0.4473
14347TIP3    H264533  -0.014   5.724   2.371 -0.1017 -0.7418  0.6918
14348TIP3   OH264534   1.259   1.537   5.722  0.0191  0.1634 -0.1623
14348TIP3    H164535   1.306   1.470   5.771  0.6012 -0.6432 -1.7420
14348TIP3    H264536   1.201   1.578   5.786  3.0177  1.4153  1.9543
14349TIP3   OH264537   3.733   4.401  15.229  0.5068  0.2993  0.1225
14349TIP3    H164538   3.704   4.329  15.173  3.6898 -1.4039  0.4358
14349TIP3    H264539   3.698   4.380  15.316  1.1364 -0.7465  0.1409
14350TIP3   OH264540   6.524   6.575   5.758 -0.1946  0.7617 -0.1055
14350TIP3    H164541   6.493   6.566   5.848  1.0986 -1.9897  0.1586
14350TIP3    H264542   6.582   6.651   5.760  0.7947  0.0158  1.7277
14351TIP3   OH264543   0.935   0.286   2.563  0.1959 -0.2231  0.3728
14351TIP3    H164544   0.992   0.339   2.507 -0.7847  1.3303  0.7870
14351TIP3    H264545   0.987   0.209   2.584  0.8398 -0.5692 -2.1340
14352TIP3   OH264546   5.661   0.064   3.741 -0.3763  0.2462 -0.3122
14352TIP3    H164547   5.743   0.015   3.740  0.3108  1.3635 -1.0944
14352TIP3    H264548   5.687   0.155   3.732 -1.6759  0.6834  0.0812
14353TIP3   OH264549   6.722   2.731   4.748 -0.2275 -0.0089  0.3476
14353TIP3    H164550   6.677   2.786   4.812 -1.1455  0.0607 -0.3391
14353TIP3    H264551   6.810   2.767   4.743 -0.1184 -0.0493  1.6058
14354TIP3   OH264552   3.632   3.730  15.403 -0.4680  0.7587  0.5377
14354TIP3    H164553   3.565   3.749  15.468 -0.1811  1.7714  0.5521
14354TIP3    H264554   3.667   3.816  15.378 -0.0117  0.3291 -0.3527
14355TIP3   OH264555   6.493   1.945   3.953 -0.4734 -0.1646  0.4193
14355TIP3    H164556   6.498   1.993   4.036  1.5323  0.0457  0.2265
14355TIP3    H264557   6.484   2.013   3.887  1.2707 -0.0519  0.2382
14356TIP3   OH264558   4.576   6.730   2.250 -0.1876  0.2010 -0.2317
14356TIP3    H164559   4.590   6.652   2.304 -1.7550  1.0745  1.4950
14356TIP3    H264560   4.500   6.708   2.196 -0.2723  0.3248 -0.1620
14357TIP3   OH264561   2.078   3.232   5.777  0.1832  0.2485  0.3527
14357TIP3    H164562   2.033   3.187   5.849 -0.8076  1.8429  0.8032
14357TIP3    H264563   2.143   3.170   5.746 -0.2849 -0.9939  1.7416
14358TIP3   OH264564   6.388   5.959  13.832 -0.2451  0.6435 -0.0135
14358TIP3    H164565   6.414   5.946  13.923  1.7676  1.9157 -0.3396
14358TIP3    H264566   6.466   5.937  13.781 -0.8539  1.3491 -1.3153
14359TIP3   OH264567   3.473   4.410  17.065 -0.5323 -0.1732  0.3296
14359TIP3    H164568   3.554   4.448  17.028 -0.6006  0.6322  0.9741
14359TIP3    H264569   3.500   4.375  17.150 -0.7562 -0.3802  0.3155
14360TIP3   OH264570   0.265   0.948  17.128 -0.0315  0.9442  0.1558
14360TIP3    H164571   0.274   0.957  17.033 -1.1802  0.3935 -0.0300
14360TIP3    H264572   0.205   0.874  17.139  0.9795  0.2622  1.3482
14361TIP3   OH264573   0.232   0.630   4.201  0.0907  0.0563  0.0419
14361TIP3    H164574   0.212   0.668   4.286  1.2209  1.6945 -0.3750
14361TIP3    H264575   0.253   0.538   4.219  0.6335  0.4594  1.5626
14362TIP3   OH264576   5.572   2.533   3.513  0.4507 -0.4899 -0.0356
14362TIP3    H164577   5.591   2.485   3.433  2.9313  0.5321 -0.1443
14362TIP3    H264578   5.593   2.624   3.492 -2.5287  0.5004  0.6688
14363TIP3   OH264579   0.315   3.069  11.296 -0.5019  0.0522  0.1520
14363TIP3    H164580   0.231   3.041  11.261 -1.4027  0.9517  1.5214
14363TIP3    H264581   0.347   3.133  11.233 -0.1242 -1.3314 -1.1224
14364TIP3   OH264582   6.367   0.716  13.357  0.6532 -0.1134  0.3247
14364TIP3    H164583   6.454   0.742  13.388 -0.2849  0.7764  2.4802
14364TIP3    H264584   6.329   0.797  13.323  0.6931 -0.5181 -0.7010
14365TIP3   OH264585   2.692   3.581   6.401  0.7846 -0.1731  0.1774
14365TIP3    H164586   2.630   3.563   6.472  1.4654  2.1424  1.4716
14365TIP3    H264587   2.745   3.501   6.395 -2.1774 -2.2296 -0.9675
14366TIP3   OH264588   0.458   3.420   1.771 -0.2402  0.1481 -0.0924
14366TIP3    H164589   0.484   3.348   1.828 -0.5043  0.8926  1.0102
14366TIP3    H264590   0.539   3.447   1.728  0.2974  0.6056  1.1601
14367TIP3   OH264591   5.036   6.553  11.851 -0.1326 -0.1938  0.5609
14367TIP3    H164592   5.003   6.485  11.792 -2.5087  2.0455 -0.9365
14367TIP3    H264593   4.962   6.613  11.862  1.5678  1.7478  2.4519
14368TIP3   OH264594   5.837   0.284  13.947 -0.0192  0.0956 -0.1140
14368TIP3    H164595   5.887   0.353  13.904 -2.2565  0.8497 -1.7383
14368TIP3    H264596   5.867   0.203  13.907  0.4265  0.4475 -0.5041
14369TIP3   OH264597   1.732   3.474  14.239 -0.2660 -0.6239 -0.0860
14369TIP3    H164598   1.792   3.472  14.314 -0.5318 -0.2786  0.1391
14369TIP3    H264599   1.725   3.567  14.217 -0.0697 -0.7377 -0.6375
14370TIP3   OH264600   6.275   1.279   4.877 -0.1867  0.9730 -0.2222
14370TIP3    H164601   6.237   1.192   4.886  1.6199 -0.0763 -1.7629
14370TIP3    H264602   6.219   1.323   4.813 -0.1838  0.3229 -0.6854
14371TIP3   OH264603   2.328   1.858   0.057 -0.3125  0.8308 -0.4059
14371TIP3    H164604   2.279   1.896   0.130  0.8788  2.4935 -0.4052
14371TIP3    H264605   2.377   1.786   0.096 -1.0304  0.5751  0.0524
14372TIP3   OH264606   5.217   5.127  14.730  0.0732  0.0759 -0.1086
14372TIP3    H164607   5.216   5.213  14.688  1.5248  0.9597  1.5083
14372TIP3    H264608   5.241   5.146  14.821  0.1151 -2.0210  0.3571
14373TIP3   OH264609   3.192   1.760   5.669 -0.2550  0.5817  0.2773
14373TIP3    H164610   3.240   1.689   5.625 -1.1150  0.6915 -0.8881
14373TIP3    H264611   3.205   1.836   5.613 -0.0801  1.1395  1.0540
14374TIP3   OH264612   5.711   4.870   5.504 -0.0484 -0.0523 -0.1042
14374TIP3    H164613   5.758   4.786   5.506  1.4832  0.7139  2.8575
14374TIP3    H264614   5.758   4.923   5.440  0.0007 -0.9148 -0.7923
14375TIP3   OH264615   0.555   6.136  17.303  0.3658 -0.4525 -0.1765
14375TIP3    H164616   0.648   6.124  17.324  1.0394  3.1274 -0.5367
14375TIP3    H264617   0.554   6.156  17.209 -0.7988 -0.4926 -0.1902
14376TIP3   OH264618   2.345   0.852  12.176  0.4824  0.1113  0.3335
14376TIP3    H164619   2.434   0.818  12.161 -0.1379 -1.4524 -0.0394
14376TIP3    H264620   2.359   0.939  12.213  2.1775 -0.2615  0.6828
14377TIP3   OH264621   5.851   3.458   2.662 -0.1052  0.9977 -0.4316
14377TIP3    H164622   5.887   3.371   2.679 -0.8885  1.0162  1.5184
14377TIP3    H264623   5.763   3.441   2.627 -0.3910  0.9861  0.2733
14378TIP3   OH264624   4.157   3.463  15.607 -0.6085 -0.3267 -0.0703
14378TIP3    H164625   4.177   3.501  15.521 -2.3695 -1.2226 -0.9234
14378TIP3    H264626   4.157   3.369  15.593  0.7277 -0.5727  1.3328
14379TIP3   OH264627   1.336   5.010   3.598 -0.2059  0.3932  0.0948
14379TIP3    H164628   1.338   4.922   3.561 -2.3104 -0.3363  1.5190
14379TIP3    H264629   1.368   5.067   3.528 -1.3492 -1.2032 -1.8086
14380TIP3   OH264630   2.178   1.040   5.969 -0.0837  0.1751 -0.3978
14380TIP3    H164631   2.194   1.115   5.912  0.0346  0.4799  0.0336
14380TIP3    H264632   2.204   1.070   6.056  0.7564 -0.6416 -0.3577
14381TIP3   OH264633   4.154   5.375   5.583  0.2178 -0.3926 -0.1257
14381TIP3    H164634   4.164   5.338   5.671  1.5560 -1.1542 -0.5701
14381TIP3    H264635   4.225   5.439   5.576  0.7057 -1.0162 -0.9799
14382TIP3   OH264636   6.218   2.434  17.160  0.2069  0.2658  0.5907
14382TIP3    H164637   6.169   2.491  17.219 -1.0618  0.9921 -1.0556
14382TIP3    H264638   6.245   2.492  17.089 -0.0413 -0.9311 -0.5187
14383TIP3   OH264639   5.189   3.793   3.334  0.8104  0.1878  0.1854
14383TIP3    H164640   5.107   3.834   3.358  0.6257 -0.9634  1.6401
14383TIP3    H264641   5.255   3.838   3.386  0.8485 -0.1599  0.4370
14384TIP3   OH264642   5.016   4.532  17.505 -0.1956  0.5168 -0.0711
14384TIP3    H164643   5.002   4.583  17.585  1.7207  0.8540  0.1137
14384TIP3    H264644   5.103   4.559  17.475 -0.3970 -0.4486 -1.6500
14385TIP3   OH264645   3.322   5.304  10.620 -0.1860 -0.2642 -0.1990
14385TIP3    H164646   3.314   5.394  10.588  1.5738  0.8090  2.1019
14385TIP3    H264647   3.375   5.260  10.553 -0.7969  0.4756 -1.1973
14386TIP3   OH264648   6.401   1.655  13.291 -0.1355  0.5299 -1.1904
14386TIP3    H164649   6.341   1.613  13.230 -0.3828 -0.1942 -0.4650
14386TIP3    H264650   6.470   1.591  13.305 -1.2149 -0.2707  0.9876
14387TIP3   OH264651   5.597   6.194   2.548  0.1196  0.4710 -0.2337
14387TIP3    H164652   5.651   6.168   2.624  1.9777 -0.4980 -1.7920
14387TIP3    H264653   5.558   6.112   2.517  1.9678  0.2278 -2.1689
14388TIP3   OH264654   4.319   4.133   0.120 -0.1598 -0.0178 -0.0243
14388TIP3    H164655   4.314   4.161   0.029 -1.1392 -0.1149 -0.0098
14388TIP3    H264656   4.293   4.040   0.118 -1.7344  0.3818  0.5370
14389TIP3   OH264657   0.757   3.030   5.491  0.0737 -0.3952 -0.1328
14389TIP3    H164658   0.829   3.062   5.436  0.6246  0.7590  1.1962
14389TIP3    H264659   0.678   3.043   5.439  0.8362 -2.1956 -1.8478
14390TIP3   OH264660   1.746   5.850  16.942  0.2039  0.0082  0.3580
14390TIP3    H164661   1.792   5.927  16.906  0.7699 -0.5450 -0.1251
14390TIP3    H264662   1.749   5.786  16.871  1.0592 -0.9923  1.2720
14391TIP3   OH264663   6.593   0.923  11.915 -0.4415  0.4708 -0.4914
14391TIP3    H164664   6.502   0.909  11.889 -0.4012 -0.3171 -0.2273
14391TIP3    H264665   6.587   0.984  11.989 -0.8746 -0.7319  0.4959
14392TIP3   OH264666   3.090   5.177  14.487 -0.4524 -0.3653  0.1306
14392TIP3    H164667   3.136   5.249  14.529 -0.2478 -0.9174  0.8921
14392TIP3    H264668   3.028   5.147  14.553 -1.9086  0.3420 -0.8654
14393TIP3   OH264669   5.541   3.845   4.479  0.1874 -0.3456 -0.3729
14393TIP3    H164670   5.490   3.867   4.401 -1.0610  0.8456  0.7062
14393TIP3    H264671   5.501   3.765   4.513  0.1901 -0.4084 -0.5219
14394TIP3   OH264672   6.278   0.111   2.337 -0.0926  0.3978  0.3417
14394TIP3    H164673   6.347   0.174   2.321  2.1556 -1.9787 -0.0037
14394TIP3    H264674   6.253   0.079   2.251  0.3888 -0.7404  0.6081
14395TIP3   OH264675   6.452   0.287  13.129  0.1168 -0.3067 -0.3054
14395TIP3    H164676   6.509   0.363  13.126  0.5024 -0.6013 -0.5709
14395TIP3    H264677   6.455   0.251  13.040  0.1344 -0.7669 -0.1243
14396TIP3   OH264678   3.648   5.167  14.538  0.0124 -0.3148 -0.2090
14396TIP3    H164679   3.586   5.142  14.470  0.5545  0.4432 -1.0075
14396TIP3    H264680   3.699   5.088  14.556  0.1669 -0.4018 -1.0208
14397TIP3   OH264681   5.201   5.450   4.799  0.6150 -0.1183  0.3588
14397TIP3    H164682   5.264   5.417   4.735  1.5529  1.3592  0.4804
14397TIP3    H264683   5.231   5.415   4.883  1.3138  0.5986  0.4198
14398TIP3   OH264684   3.795   5.720  17.188  0.4851  0.2028 -0.5443
14398TIP3    H164685   3.704   5.696  17.207  0.8741 -0.8960  0.0389
14398TIP3    H264686   3.834   5.735  17.274  1.1323 -0.4262 -0.7191
14399TIP3   OH264687   4.983   2.733   2.289 -0.3960  0.4642  0.2363
14399TIP3    H164688   4.988   2.828   2.299  0.8593  0.3936  0.4219
14399TIP3    H264689   5.069   2.701   2.317 -0.0415 -0.5589 -1.8403
14400TIP3   OH264690   5.622   1.951   4.284 -0.3195 -0.1436  0.1458
14400TIP3    H164691   5.542   1.906   4.311 -0.7752  0.9065  0.6241
14400TIP3    H264692   5.662   1.893   4.219 -0.7767 -1.3122  0.8637
14401TIP3   OH264693   5.992   0.841   5.171  0.8482 -0.2948  0.1197
14401TIP3    H164694   6.072   0.841   5.119  0.6333 -0.0867 -0.2128
14401TIP3    H264695   5.926   0.881   5.114  0.7569  0.5305  0.7789
14402TIP3   OH264696   0.585   6.764  15.035 -0.4429  0.1512 -1.2822
14402TIP3    H164697   0.634   6.715  15.101 -2.2638  1.9023  1.6359
14402TIP3    H264698   0.556   6.698  14.972  0.7835 -1.7688  0.0560
14403TIP3   OH264699   0.249   0.299   1.992 -0.6160  0.0743 -0.8436
14403TIP3    H164700   0.205   0.292   2.076  0.0534  2.0196 -0.2679
14403TIP3    H264701   0.197   0.244   1.933 -2.1480  0.0855  0.4219
14404TIP3   OH264702   2.592   5.960   0.920 -0.2245  0.3361 -0.1696
14404TIP3    H164703   2.682   5.965   0.955 -0.4187  0.1327  0.3786
14404TIP3    H264704   2.537   5.967   0.998 -0.6528 -1.2970 -0.2811
14405TIP3   OH264705   4.584   1.905  12.628  0.2519 -0.0610 -0.2695
14405TIP3    H164706   4.609   1.943  12.712 -1.0506 -0.6372  0.4119
14405TIP3    H264707   4.575   1.980  12.569  1.2290  0.3418  0.0782
14406TIP3   OH264708   4.645   2.221   1.822  0.5488 -0.1162  0.3177
14406TIP3    H164709   4.637   2.201   1.729 -2.4691 -0.1784  0.5053
14406TIP3    H264710   4.616   2.312   1.829  1.0377 -0.0202  1.1769
14407TIP3   OH264711   2.380   4.205   3.559 -0.0160 -0.0335  0.5767
14407TIP3    H164712   2.393   4.121   3.516 -0.4030  0.1888  0.0132
14407TIP3    H264713   2.450   4.261   3.524  0.6960 -0.3134  1.5005
14408TIP3   OH264714   3.804   2.356   5.712  0.1983  0.2612  0.3201
14408TIP3    H164715   3.895   2.366   5.740 -0.3062  1.6763  1.5349
14408TIP3    H264716   3.769   2.287   5.768 -0.4794  2.2797  2.4987
14409TIP3   OH264717   5.553   4.329   1.722  0.7705  0.0665  1.0050
14409TIP3    H164718   5.522   4.242   1.746  0.9794 -0.6608 -1.1906
14409TIP3    H264719   5.473   4.380   1.708  0.6416 -0.1237  1.0499
14410TIP3   OH264720   5.167   1.998   6.471 -0.3208 -0.3230 -0.2208
14410TIP3    H164721   5.196   1.907   6.481 -2.1895 -1.0967 -1.3549
14410TIP3    H264722   5.214   2.045   6.539 -1.2682 -2.6113  2.2204
14411TIP3   OH264723   3.200   6.190  12.830  0.2510 -0.0704  0.1221
14411TIP3    H164724   3.122   6.244  12.836 -1.0054 -1.1756 -3.4587
14411TIP3    H264725   3.244   6.202  12.914 -3.1822  1.4301  1.9287
14412TIP3   OH264726   6.469   2.239   3.107 -0.3454  0.2440 -0.0848
14412TIP3    H164727   6.461   2.149   3.073 -0.5289  0.5022 -0.7371
14412TIP3    H264728   6.474   2.293   3.029  1.0107  0.7051  0.2954
14413TIP3   OH264729   3.250   6.428  11.868  0.3152 -0.0073  0.0201
14413TIP3    H164730   3.267   6.339  11.900  0.6557  0.2473  0.5552
14413TIP3    H264731   3.237   6.480  11.947  0.7221  0.5385 -0.2669
14414TIP3   OH264732   6.737   1.293   1.814  0.8371 -0.4286  0.0650
14414TIP3    H164733   6.657   1.269   1.860  0.0505  1.4750 -0.1904
14414TIP3    H264734   6.767   1.212   1.773 -0.8897 -1.2260  0.2945
14415TIP3   OH264735   4.958   6.087  16.498  0.4684  0.4629 -0.1264
14415TIP3    H164736   4.939   6.178  16.473  0.9137  0.8939  0.9939
14415TIP3    H264737   5.054   6.085  16.506  0.5291 -0.3472 -0.9936
14416TIP3   OH264738   2.292   2.157   2.280  0.7394  0.3714 -0.2674
14416TIP3    H164739   2.332   2.197   2.203  2.3289  1.1542  0.9143
14416TIP3    H264740   2.291   2.063   2.260  1.3534  0.5357 -1.1373
14417TIP3   OH264741   1.747   5.623   1.992 -0.2287  0.8126  0.1612
14417TIP3    H164742   1.809   5.690   1.963  0.4331  1.8328  3.5719
14417TIP3    H264743   1.774   5.601   2.080 -2.7426 -1.2158  0.5492
14418TIP3   OH264744   4.699   4.440  12.647  0.0815 -0.6323  0.4525
14418TIP3    H164745   4.699   4.491  12.728  2.1208  1.6145 -0.8458
14418TIP3    H264746   4.607   4.439  12.619 -0.1788  1.3906  1.1380
14419TIP3   OH264747   6.223   3.244  16.687  0.4087 -0.0240 -0.2450
14419TIP3    H164748   6.231   3.293  16.606  1.5393  1.3115  0.6324
14419TIP3    H264749   6.257   3.157  16.666  3.6568  1.1791 -0.4886
14420TIP3   OH264750   3.383   2.439  13.592  0.3125 -0.3889  0.7673
14420TIP3    H164751   3.319   2.419  13.660 -0.8882 -1.3107 -0.5512
14420TIP3    H264752   3.331   2.478  13.521  1.1503 -1.3432 -0.4139
14421TIP3   OH264753   3.074   1.968  14.011  0.7739 -0.0877 -0.0446
14421TIP3    H164754   3.106   1.985  13.923  1.6656 -0.3531  0.2221
14421TIP3    H264755   3.121   1.889  14.039  0.1702 -0.2615  0.5019
14422TIP3   OH264756   4.940   2.389  11.962 -0.2414 -0.8532 -0.1219
14422TIP3    H164757   4.905   2.467  12.005 -1.5147 -0.4741 -1.7512
14422TIP3    H264758   4.864   2.330  11.956 -0.1942 -0.7619 -2.0716
14423TIP3   OH264759   3.574   0.115  14.533  0.3895  0.0598 -0.1156
14423TIP3    H164760   3.609   0.104  14.445  1.0404  1.2075 -0.0153
14423TIP3    H264761   3.566   0.025  14.566  1.4524 -0.3338 -0.8404
14424TIP3   OH264762   2.983   3.671   2.330 -0.2653  0.0376  1.0012
14424TIP3    H164763   2.959   3.658   2.422  0.5316  0.6835  1.3043
14424TIP3    H264764   3.072   3.636   2.322 -1.0986 -2.0479 -0.0464
14425TIP3   OH264765   3.187   3.652   5.159  0.2504 -0.4924 -0.1863
14425TIP3    H164766   3.181   3.746   5.142 -0.0450 -0.6287 -0.8795
14425TIP3    H264767   3.281   3.635   5.168  0.2380  0.0693  1.1950
14426TIP3   OH264768   3.446   4.973  14.920 -0.1115  0.1512 -0.6404
14426TIP3    H164769   3.482   5.060  14.901  0.8148 -0.1701 -0.4013
14426TIP3    H264770   3.360   4.991  14.958  0.7681  1.0577  1.0681
14427TIP3   OH264771   5.405   5.891  17.048 -0.1132  0.2432  0.4145
14427TIP3    H164772   5.339   5.951  17.082 -1.5024 -0.4495 -0.9564
14427TIP3    H264773   5.409   5.820  17.113 -0.8083  0.2386  0.4616
14428TIP3   OH264774   1.962   4.356  13.133  0.1589  0.0359  0.1842
14428TIP3    H164775   2.021   4.336  13.060  0.3774  0.3673  0.2664
14428TIP3    H264776   1.874   4.350  13.095  0.3045  1.3516 -0.4121
14429TIP3   OH264777   4.681   4.581  14.573 -0.0006 -0.0937  1.0755
14429TIP3    H164778   4.691   4.563  14.480  1.6106  1.8262  0.8028
14429TIP3    H264779   4.691   4.496  14.616  0.9734 -0.7685 -0.4174
14430TIP3   OH264780   0.687   0.868   2.307  0.6713  0.0392  0.0770
14430TIP3    H164781   0.650   0.951   2.275  1.1965  0.8580  1.4888
14430TIP3    H264782   0.613   0.808   2.306  0.1967  0.6020 -0.6624
14431TIP3   OH264783   0.600   1.356  15.050 -0.4041 -0.1695 -0.5541
14431TIP3    H164784   0.544   1.417  15.097 -1.5672  1.2994 -3.5530
14431TIP3    H264785   0.623   1.289  15.115  0.4864  3.0568  2.7706
14432TIP3   OH264786   4.307   0.012  16.740  0.0049 -0.4334 -0.1600
14432TIP3    H164787   4.381   0.010  16.802 -0.7461 -0.4314  0.7562
14432TIP3    H264788   4.348   0.005  16.654  1.0424 -0.9704  0.3579
14433TIP3   OH264789   3.773   2.421  12.879 -0.7152 -0.3885 -0.0815
14433TIP3    H164790   3.867   2.405  12.876 -1.0307 -2.2995 -0.6814
14433TIP3    H264791   3.733   2.334  12.883 -2.4173  0.4021  2.2269
14434TIP3   OH264792   4.033   3.268  12.671 -0.2906  0.3636 -0.1613
14434TIP3    H164793   4.087   3.199  12.711 -0.1124  0.4223 -0.3010
14434TIP3    H264794   4.068   3.349  12.707  0.8958  0.5363 -1.6073
14435TIP3   OH264795   2.099   1.611   2.381  0.1706  0.0012  0.0358
14435TIP3    H164796   2.153   1.597   2.459 -0.6632  1.4119  0.9185
14435TIP3    H264797   2.012   1.581   2.407 -0.3490  1.4472  0.0420
14436TIP3   OH264798   0.294   1.641  16.318  0.1948  0.1256 -0.5068
14436TIP3    H164799   0.335   1.557  16.340  0.7969  0.5378  0.0097
14436TIP3    H264800   0.353   1.679  16.253  0.3996  0.5306 -0.0873
14437TIP3   OH264801   1.379   3.900   0.663 -0.5541  0.1120  0.2574
14437TIP3    H164802   1.472   3.921   0.651 -0.4451 -1.3038 -1.6424
14437TIP3    H264803   1.337   3.932   0.584 -1.4322 -0.7861  0.3542
14438TIP3   OH264804   4.052   2.566  11.755 -0.3460  0.1778  0.2608
14438TIP3    H164805   4.029   2.576  11.847 -0.3306  0.8006  0.2051
14438TIP3    H264806   4.147   2.551  11.755 -0.4257 -0.3213  0.3741
14439TIP3   OH264807   4.500   1.889  16.613  0.5303 -0.8714 -0.0722
14439TIP3    H164808   4.471   1.860  16.699  0.3298 -1.0116 -0.1865
14439TIP3    H264809   4.543   1.973  16.629 -1.6290  0.3296 -0.1283
14440TIP3   OH264810   0.179   1.026   0.696  0.0794  0.1747  0.1791
14440TIP3    H164811   0.124   1.078   0.637 -0.0386  0.1342  0.2531
14440TIP3    H264812   0.257   1.080   0.711 -0.4679  0.7406  1.0176
14441TIP3   OH264813   6.377   0.629  12.562  0.6381 -0.5142  0.0979
14441TIP3    H164814   6.319   0.568  12.517 -2.8965 -0.3260  3.8926
14441TIP3    H264815   6.357   0.714  12.522 -0.1557 -0.7569 -0.0336
14442TIP3   OH264816   5.377   2.716   4.286  0.3813  0.0963 -0.2591
14442TIP3    H164817   5.316   2.642   4.291  1.5172 -0.8209  0.3145
14442TIP3    H264818   5.392   2.740   4.377  0.5186  0.6289 -0.4199
14443TIP3   OH264819   3.723   1.041   5.094  0.2920 -0.3078  0.6886
14443TIP3    H164820   3.763   1.118   5.133 -0.0829  0.2195  0.0574
14443TIP3    H264821   3.651   1.075   5.041 -0.0210 -1.1087  0.5742
14444TIP3   OH264822   1.776   3.024   1.307  0.5703 -0.2730  0.1129
14444TIP3    H164823   1.738   3.057   1.226  1.3044 -2.0019 -0.9870
14444TIP3    H264824   1.849   3.084   1.326 -1.2010  1.7096  1.0101
14445TIP3   OH264825   0.399   3.156  13.894  0.6603  0.4352 -0.3558
14445TIP3    H164826   0.325   3.123  13.844  1.1169  0.5495 -1.1141
14445TIP3    H264827   0.474   3.105  13.864  1.2021  1.5000 -0.8573
14446TIP3   OH264828   1.575   5.522  11.563  0.2778  0.6667  0.2287
14446TIP3    H164829   1.546   5.431  11.551  2.9433 -0.5515  1.9863
14446TIP3    H264830   1.496   5.570  11.584 -1.2861 -1.1456 -1.1437
14447TIP3   OH264831   5.122   0.185  14.327  0.7108  0.1186 -0.7138
14447TIP3    H164832   5.191   0.119  14.326  0.4096 -0.1952 -0.8744
14447TIP3    H264833   5.046   0.141  14.364  0.7536  0.6296 -0.0062
14448TIP3   OH264834   0.303   0.354  13.299 -0.1267 -0.1781  0.2093
14448TIP3    H164835   0.300   0.417  13.226  0.9493  0.1364  0.4208
14448TIP3    H264836   0.242   0.285  13.273 -1.3193  0.9193 -0.0427
14449TIP3   OH264837   2.685   5.870  11.664  0.3070 -0.1595  0.3412
14449TIP3    H164838   2.735   5.949  11.680  0.4723 -0.2405  0.2265
14449TIP3    H264839   2.633   5.858  11.743 -0.1756  0.3992  0.1142
14450TIP3   OH264840   1.801   2.212  16.800  0.2078 -0.0872  0.5157
14450TIP3    H164841   1.835   2.224  16.712 -0.5661  0.7082  0.3081
14450TIP3    H264842   1.879   2.205  16.855  0.6973  0.8221 -0.0452
14451TIP3   OH264843   6.331   5.160   2.352  0.5775 -0.4342 -0.2962
14451TIP3    H164844   6.310   5.239   2.403 -2.9992 -1.1016 -0.4593
14451TIP3    H264845   6.369   5.194   2.272  0.0567  1.1055  0.0507
14452TIP3   OH264846   4.580   4.255  12.855  0.1293 -0.1350  0.3502
14452TIP3    H164847   4.513   4.236  12.920  0.1408 -2.1234 -0.1548
14452TIP3    H264848   4.625   4.332  12.888 -2.0299  0.9180  0.9730
14453TIP3   OH264849   6.312   1.647   4.488  0.3957  0.0855  0.2057
14453TIP3    H164850   6.371   1.584   4.528  0.5301  0.4646  0.6213
14453TIP3    H264851   6.297   1.712   4.556  1.0130  1.0052 -0.5036
14454TIP3   OH264852   3.107   3.114  12.079  0.4741 -0.1350  0.1348
14454TIP3    H164853   3.185   3.076  12.120 -0.7168 -1.5723  1.2468
14454TIP3    H264854   3.101   3.202  12.115  1.7945  0.1451 -0.2934
14455TIP3   OH264855   1.606   5.119   2.005  0.3484 -0.4249 -0.2057
14455TIP3    H164856   1.604   5.204   2.048  1.1941  0.3536 -1.6423
14455TIP3    H264857   1.526   5.075   2.035 -0.3654  1.0614  0.1535
14456TIP3   OH264858   4.499   5.435   5.088  1.0770 -0.0461  0.4206
14456TIP3    H164859   4.555   5.503   5.125  0.5153  0.5484  0.2003
14456TIP3    H264860   4.458   5.393   5.164 -0.3914  1.4439  0.5053
14457TIP3   OH264861   3.259   2.734  15.948 -0.1539 -0.1251  0.0415
14457TIP3    H164862   3.237   2.726  16.040  2.1947 -1.0524  0.5782
14457TIP3    H264863   3.180   2.703  15.902 -0.8040 -1.1361  1.7487
14458TIP3   OH264864   1.504   1.866  15.248  0.0585  0.1054  0.3113
14458TIP3    H164865   1.484   1.954  15.281  1.3646  0.8154 -0.7049
14458TIP3    H264866   1.491   1.873  15.153  0.2850 -0.7784  0.2123
14459TIP3   OH264867   4.854   2.727   2.564 -0.4011  0.3216 -0.1574
14459TIP3    H164868   4.841   2.687   2.478  1.1203 -0.8034  0.1174
14459TIP3    H264869   4.867   2.820   2.545  1.5017 -0.1379 -1.3153
14460TIP3   OH264870   6.281   0.891  12.513  0.0648 -0.1519  0.4426
14460TIP3    H164871   6.207   0.841  12.478 -0.0339  0.2039  0.1319
14460TIP3    H264872   6.271   0.978  12.474  1.7762 -0.6454 -1.2047
14461TIP3   OH264873   5.093   3.739   5.362  0.3714  1.0328 -0.3839
14461TIP3    H164874   5.027   3.764   5.297  0.9934 -0.5408 -1.6674
14461TIP3    H264875   5.069   3.790   5.440 -1.5501  1.5190 -1.2230
14462TIP3   OH264876   3.488   2.657  16.206  0.0301  0.2003 -0.0632
14462TIP3    H164877   3.560   2.709  16.240  1.2182 -1.0166 -0.6311
14462TIP3    H264878   3.410   2.709  16.224  0.9314  1.0605  1.5194
14463TIP3   OH264879   6.088   4.706   3.947  0.4832 -0.2594  0.0206
14463TIP3    H164880   6.059   4.712   4.038 -0.4161 -0.4517 -0.2424
14463TIP3    H264881   6.184   4.699   3.953  0.3739 -1.2575  1.0004
14464TIP3   OH264882   5.171   4.900  13.312  0.5993 -0.2887  0.1762
14464TIP3    H164883   5.191   4.992  13.330 -0.8576  0.1651 -0.3802
14464TIP3    H264884   5.254   4.863  13.283  1.0550  1.0448 -0.3094
14465TIP3   OH264885   4.571   5.222   4.193 -0.0870  0.2657 -0.2656
14465TIP3    H164886   4.611   5.183   4.115 -0.4686 -1.9719  0.5846
14465TIP3    H264887   4.618   5.183   4.267 -0.9849  0.8910  0.6757
14466TIP3   OH264888   1.211   3.416   0.459  0.6966  0.2712 -0.5685
14466TIP3    H164889   1.186   3.486   0.520  1.0383  1.0936 -1.3555
14466TIP3    H264890   1.133   3.401   0.407  1.0631  1.1405 -1.4027
14467TIP3   OH264891   1.786   3.171  15.965  0.0909  0.4448  0.5139
14467TIP3    H164892   1.770   3.129  16.050 -3.0110 -0.6397 -0.4975
14467TIP3    H264893   1.818   3.100  15.909 -0.5674  0.5103  0.0503
14468TIP3   OH264894   1.258   2.790   0.411 -0.2427  0.5351  0.0988
14468TIP3    H164895   1.277   2.884   0.400  0.3968  0.7347  2.2734
14468TIP3    H264896   1.266   2.753   0.324  2.9334  1.9494 -0.3535
14469TIP3   OH264897   2.153   6.026   5.743  0.1299 -0.2009  0.5746
14469TIP3    H164898   2.077   6.006   5.797 -1.8194  0.2275 -1.8523
14469TIP3    H264899   2.167   6.120   5.754 -1.5558  0.3037 -1.1039
14470TIP3   OH264900   4.901   4.591  15.336  0.6253 -0.1048 -0.3062
14470TIP3    H164901   4.942   4.623  15.256  1.9740  0.2327  0.5023
14470TIP3    H264902   4.811   4.570  15.310  1.6525 -2.3030 -2.5199
14471TIP3   OH264903   3.842   6.255   2.855 -0.4937 -0.1020 -0.3824
14471TIP3    H164904   3.802   6.178   2.817 -2.3588  0.3993  0.4593
14471TIP3    H264905   3.830   6.245   2.949 -0.2046  0.9143 -0.2195
14472TIP3   OH264906   2.706   2.062  11.747  0.2286 -0.1956 -0.1763
14472TIP3    H164907   2.632   2.002  11.755  1.3445 -1.7879 -1.2279
14472TIP3    H264908   2.727   2.087  11.837 -0.2098 -1.4506  0.2938
14473TIP3   OH264909   2.535   5.289   2.073 -0.1177 -0.6860 -0.8315
14473TIP3    H164910   2.579   5.355   2.020  1.3115  0.6984  1.8897
14473TIP3    H264911   2.604   5.228   2.099 -0.7455 -1.2107 -0.3500
14474TIP3   OH264912   0.651   1.753  14.199  0.0492 -0.3255  0.4961
14474TIP3    H164913   0.593   1.677  14.198  1.2021 -1.2235 -0.3175
14474TIP3    H264914   0.613   1.814  14.137 -2.3232  0.9505  2.9798
14475TIP3   OH264915   5.138   0.425  15.021  0.6621 -0.0222 -0.0841
14475TIP3    H164916   5.125   0.370  15.098  0.1604  1.3891  0.8873
14475TIP3    H264917   5.233   0.432  15.012  0.7444  0.5814  1.0254
14476TIP3   OH264918   0.040   0.669  11.677  0.8191  0.0604 -0.2615
14476TIP3    H164919  -0.013   0.613  11.620  0.9059 -0.8721  0.5405
14476TIP3    H264920   0.090   0.724  11.616 -0.1994  0.1533 -1.0483
14477TIP3   OH264921   6.577   2.969   2.691 -0.3996 -0.3074 -0.4593
14477TIP3    H164922   6.664   3.003   2.710 -0.3517  0.1305 -1.4209
14477TIP3    H264923   6.517   3.040   2.714 -0.2189  1.0589 -3.7519
14478TIP3   OH264924   4.797   0.238  13.721 -0.2339 -0.2655 -0.2706
14478TIP3    H164925   4.714   0.191  13.736  0.2932 -1.5752 -1.2286
14478TIP3    H264926   4.865   0.174  13.744  0.5103  0.0858 -1.3853
14479TIP3   OH264927   5.846   2.805   4.987 -0.3142 -0.2371  0.0306
14479TIP3    H164928   5.841   2.820   5.081 -0.2816 -0.2543  0.0349
14479TIP3    H264929   5.894   2.880   4.952 -1.3731  0.3860 -0.1258
14480TIP3   OH264930   5.669   3.987  14.931 -0.1310  0.0110  0.0993
14480TIP3    H164931   5.711   3.917  14.982  0.4537  0.4347  0.2044
14480TIP3    H264932   5.580   3.955  14.916 -0.4436  0.0271  1.7191
14481TIP3   OH264933   3.320   4.661   4.536 -0.6350  0.2456 -0.0167
14481TIP3    H164934   3.299   4.572   4.510 -0.3371  0.6741 -1.8201
14481TIP3    H264935   3.386   4.651   4.604  1.0211 -0.9088 -1.7029
14482TIP3   OH264936   1.360   0.869  11.053 -0.1386  0.0528  0.1992
14482TIP3    H164937   1.338   0.962  11.061  0.1646  0.0352  1.2585
14482TIP3    H264938   1.350   0.834  11.141 -1.4074 -1.1869 -0.3921
14483TIP3   OH264939   1.976   2.767  15.936  0.7314  0.8789 -0.2245
14483TIP3    H164940   1.939   2.705  15.873 -1.1399 -0.8367  2.3713
14483TIP3    H264941   2.059   2.728  15.963  0.0738  0.0190  0.5985
14484TIP3   OH264942   0.289   4.077   0.750  0.1885 -0.1695  0.0829
14484TIP3    H164943   0.249   4.131   0.817 -0.2607 -1.1351  0.6141
14484TIP3    H264944   0.378   4.110   0.742 -0.6443  2.0002 -1.0912
14485TIP3   OH264945   4.848   1.929   2.320 -0.3758 -0.2538 -0.2810
14485TIP3    H164946   4.909   2.003   2.318  2.2905 -2.2698  0.3553
14485TIP3    H264947   4.763   1.967   2.298  0.8548  2.9578  0.0011
14486TIP3   OH264948   0.948   3.675  16.675 -0.0030 -0.4643  0.1018
14486TIP3    H164949   0.914   3.605  16.621 -1.7768 -1.1456  1.9785
14486TIP3    H264950   0.879   3.692  16.739  1.8059  0.5348  1.9067
14487TIP3   OH264951   1.012   2.937   4.002 -0.4939  0.0758  0.2171
14487TIP3    H164952   1.056   2.852   3.989 -1.0989 -0.5537  2.0001
14487TIP3    H264953   1.038   2.964   4.090  0.7080  2.4145 -0.7576
14488TIP3   OH264954   0.925   1.412  11.629  0.4311 -0.8818  0.4774
14488TIP3    H164955   0.892   1.460  11.553  0.7829  1.2141  1.5770
14488TIP3    H264956   0.856   1.419  11.694  1.6820  0.8405  1.7046
14489TIP3   OH264957   5.580   4.839   0.894 -0.4456  0.7673 -0.2517
14489TIP3    H164958   5.513   4.865   0.958 -1.0677 -0.8979 -0.1864
14489TIP3    H264959   5.614   4.922   0.861 -2.1549  1.6654  0.1084
14490TIP3   OH264960   4.752   0.974   4.743 -0.3407  0.2487  0.4311
14490TIP3    H164961   4.666   0.933   4.732 -0.5440  0.7241  0.2130
14490TIP3    H264962   4.738   1.066   4.720  0.0570  0.4945  1.1437
14491TIP3   OH264963   5.203   4.566   1.892  0.1572  0.1032 -0.5057
14491TIP3    H164964   5.118   4.557   1.936  0.3534 -0.5265 -0.2316
14491TIP3    H264965   5.184   4.549   1.800 -0.0731  0.2892 -0.4921
14492TIP3   OH264966   2.159   2.275  12.149  0.2587 -0.0468  0.4282
14492TIP3    H164967   2.189   2.215  12.080 -1.0640  0.6661 -0.8229
14492TIP3    H264968   2.175   2.227  12.231  0.0611 -1.7542 -0.4753
14493TIP3   OH264969   3.055   5.800   1.796 -0.4516 -0.2871  0.1110
14493TIP3    H164970   2.965   5.779   1.820  0.0215 -1.2414  1.1062
14493TIP3    H264971   3.102   5.717   1.801  0.6325  0.3139  0.2454
14494TIP3   OH264972   6.072   5.047  11.544 -0.2376 -0.2533 -0.2958
14494TIP3    H164973   6.133   5.026  11.615 -0.9050 -1.3024 -0.0041
14494TIP3    H264974   5.987   5.054  11.588 -0.1589  2.7316 -0.4413
14495TIP3   OH264975   1.912   1.927   4.995  0.9147 -0.4308 -0.3081
14495TIP3    H164976   2.004   1.916   4.974  0.6076 -1.2391 -1.3429
14495TIP3    H264977   1.866   1.876   4.928 -0.3214  0.7132 -0.3781
14496TIP3   OH264978   3.065   5.825   3.869 -0.1526 -0.2421 -0.4587
14496TIP3    H164979   3.083   5.918   3.876  0.1149 -0.2354 -1.2012
14496TIP3    H264980   2.972   5.817   3.891  0.1574  0.0102  1.0308
14497TIP3   OH264981   2.196   6.220   4.077 -0.0254 -0.0142  0.0964
14497TIP3    H164982   2.186   6.146   4.136  1.7077  0.1582  0.6581
14497TIP3    H264983   2.181   6.297   4.133  0.6961  0.1230  0.1047
14498TIP3   OH264984   2.455   6.439   4.699 -0.3446 -0.3311 -0.1357
14498TIP3    H164985   2.481   6.366   4.642 -0.1366  0.3191 -0.8862
14498TIP3    H264986   2.481   6.411   4.786  1.1576 -0.5152 -0.6157
14499TIP3   OH264987   4.924   0.316  13.975 -0.0184 -0.2943 -0.3746
14499TIP3    H164988   4.947   0.350  13.889 -1.7739  1.2559 -0.2790
14499TIP3    H264989   5.009   0.292  14.014  1.0773  1.5053 -1.5001
14500TIP3   OH264990   4.773   2.691   4.160  0.1081  0.1049 -0.0671
14500TIP3    H164991   4.848   2.691   4.100  0.5712 -0.2172  0.5006
14500TIP3    H264992   4.711   2.752   4.121  0.3164 -0.2443 -0.9837
14501TIP3   OH264993   5.379   4.380  13.454 -0.1954  0.2774  0.2869
14501TIP3    H164994   5.395   4.408  13.364  2.3584  1.7640  1.1068
14501TIP3    H264995   5.450   4.319  13.474 -2.7259 -2.9675  0.2615
14502TIP3   OH264996   4.028   5.177  14.756 -0.4023  0.4360  0.2165
14502TIP3    H164997   3.954   5.229  14.724 -0.0692  0.3188 -0.7953
14502TIP3    H264998   4.071   5.233  14.820 -2.3829 -0.1880  2.1842
14503TIP3   OH264999   3.494   6.587  14.332  0.0392  0.1946  0.2839
14503TIP3    H165000   3.534   6.590  14.419 -0.1251  0.7060  0.3471
14503TIP3    H265001   3.537   6.658  14.283  1.7173 -1.4505 -0.7622
14504TIP3   OH265002   2.573   2.259   2.228 -0.4140 -0.1419 -0.0387
14504TIP3    H165003   2.639   2.319   2.262 -0.8359  0.6529 -0.5983
14504TIP3    H265004   2.576   2.271   2.134 -0.4410 -1.0772 -0.1649
14505TIP3   OH265005   1.373   3.355   4.215  0.3073  0.3622 -0.0320
14505TIP3    H165006   1.336   3.328   4.300 -0.2493 -2.1555 -0.9803
14505TIP3    H265007   1.309   3.325   4.151  2.8578 -2.2064 -1.6070
14506TIP3   OH265008   5.341   6.635   3.489 -0.3943  0.0874  0.5442
14506TIP3    H165009   5.311   6.620   3.399 -1.0617  1.2559  0.5609
14506TIP3    H265010   5.321   6.553   3.534 -2.8134  0.5048  0.3444
14507TIP3   OH265011   4.073   1.765  12.896 -0.2855 -0.3876 -0.1993
14507TIP3    H165012   3.992   1.714  12.888  0.6604 -1.7392 -1.7843
14507TIP3    H265013   4.119   1.725  12.969 -0.6946 -0.1172  0.2109
14508TIP3   OH265014   0.309   1.694  11.818  0.2167 -0.4482 -0.2112
14508TIP3    H165015   0.349   1.625  11.765  0.0672 -1.6523  1.1758
14508TIP3    H265016   0.262   1.647  11.887 -2.5809  0.9294 -1.0234
14509TIP3   OH265017   0.877   2.930  13.077  0.0084 -0.2927  0.3171
14509TIP3    H165018   0.868   2.957  12.986  0.4557 -0.5877  0.1815
14509TIP3    H265019   0.962   2.966  13.104 -0.1629 -0.1293  0.6474
14510TIP3   OH265020   6.274   3.519  16.929  0.1206  0.3456  0.0448
14510TIP3    H165021   6.301   3.516  17.020  0.8979  1.0293 -0.1530
14510TIP3    H265022   6.182   3.548  16.932  0.3321  0.9820  0.5866
14511TIP3   OH265023   3.865   5.735  17.464  0.3063 -0.7552  0.2788
14511TIP3    H165024   3.843   5.678  17.537 -0.8844  0.9272  1.3158
14511TIP3    H265025   3.951   5.771  17.487 -0.6695  0.8559  1.6363
14512TIP3   OH265026   4.313   6.239   4.421 -0.4726  0.3303 -0.0074
14512TIP3    H165027   4.400   6.212   4.448  0.2722 -1.1732 -3.3954
14512TIP3    H265028   4.326   6.325   4.381 -0.5027  0.0464 -0.6343
14513TIP3   OH265029   5.214   0.893  15.129 -0.2700 -0.2556  0.4344
14513TIP3    H165030   5.195   0.800  15.143  1.2030 -0.9517 -1.5653
14513TIP3    H265031   5.255   0.922  15.210  1.4354 -2.0519  0.2935
14514TIP3   OH265032   6.037   4.845  17.480  0.8468 -0.3280  0.2544
14514TIP3    H165033   6.071   4.854  17.391 -2.0530  1.0731 -0.8690
14514TIP3    H265034   6.083   4.912  17.531 -0.6433  2.1553 -1.4112
14515TIP3   OH265035   3.121   4.005   6.117 -0.5976  0.4646  0.2881
14515TIP3    H165036   3.187   3.994   6.185  0.3230 -0.3400 -0.6980
14515TIP3    H265037   3.042   3.965   6.153 -0.1055 -0.0030  0.8625
14516TIP3   OH265038   2.440   1.872  13.149  0.1910  0.2755 -0.5134
14516TIP3    H165039   2.485   1.896  13.230 -0.0746  0.2330 -0.3521
14516TIP3    H265040   2.487   1.794  13.118 -0.2611 -0.2339  0.0713
14517TIP3   OH265041   6.018   5.350  14.791  0.3544  0.0847 -0.5788
14517TIP3    H165042   6.040   5.356  14.698  0.3523  0.6096 -0.5501
14517TIP3    H265043   6.024   5.440  14.823  0.0693 -0.0493 -0.1348
14518TIP3   OH265044   4.805   3.711  14.264  0.2173  0.2087  0.3155
14518TIP3    H165045   4.723   3.729  14.311  0.8255 -0.5650  1.7159
14518TIP3    H265046   4.850   3.796  14.263  0.2149  0.2368  1.2009
14519TIP3   OH265047   0.760   0.842   0.981  0.2858 -0.2045 -0.3036
14519TIP3    H165048   0.818   0.878   1.048  0.9298  3.6260 -2.6712
14519TIP3    H265049   0.676   0.831   1.026  1.6321 -1.7865  2.0783
14520TIP3   OH265050   2.468   3.192   1.710 -0.2581  0.3277  0.1304
14520TIP3    H165051   2.453   3.227   1.798 -1.8517  0.5359 -0.1928
14520TIP3    H265052   2.545   3.240   1.678 -0.3920  1.1306  0.9508
14521TIP3   OH265053   0.005   5.846  10.624 -0.4345  0.2684  0.3029
14521TIP3    H165054   0.030   5.935  10.649 -1.2648  0.3073  1.0694
14521TIP3    H265055   0.073   5.791  10.664 -0.5620  0.4840  0.8345
14522TIP3   OH265056   3.140   5.454  12.347 -0.4278  0.2602  0.0246
14522TIP3    H165057   3.056   5.412  12.326 -0.0489 -0.5497  0.0689
14522TIP3    H265058   3.178   5.397  12.414  0.0571  0.7468  0.1611
14523TIP3   OH265059   6.419   2.416   2.052 -0.5374  0.5178  0.3361
14523TIP3    H165060   6.406   2.349   2.119  0.0279  1.0248  0.9666
14523TIP3    H265061   6.416   2.368   1.969 -1.7495 -0.0450  0.6818
14524TIP3   OH265062   1.225   1.419  17.267  0.3988 -0.8987  0.3121
14524TIP3    H165063   1.309   1.381  17.295 -1.0389 -2.6394  2.5722
14524TIP3    H265064   1.229   1.510  17.297  2.1325 -0.3829 -1.2563
14525TIP3   OH265065   2.511   1.268  15.520 -0.2945 -0.3494 -0.0030
14525TIP3    H165066   2.543   1.327  15.587 -0.4121 -0.1012 -0.1647
14525TIP3    H265067   2.467   1.324  15.457 -0.1595 -0.5793 -0.3038
14526TIP3   OH265068   5.088   1.819   1.521  0.8313 -0.6292  0.3583
14526TIP3    H165069   5.129   1.902   1.544  1.4327 -1.1449  1.1752
14526TIP3    H265070   5.129   1.794   1.438  0.2166  0.1641 -0.2092
14527TIP3   OH265071   0.959   2.475   0.129  0.4333 -0.0528 -0.7168
14527TIP3    H165072   0.900   2.431   0.191  0.2132  0.3620 -0.6185
14527TIP3    H265073   0.916   2.466   0.044 -0.0540  0.6953 -0.5681
14528TIP3   OH265074   3.040   3.461  15.401  0.1545 -0.1098  0.2968
14528TIP3    H165075   3.043   3.374  15.440 -1.4979  0.2794  1.4353
14528TIP3    H265076   3.065   3.520  15.472  0.2223  0.4098 -0.1538
14529TIP3   OH265077   6.701   2.453  14.041  0.3157 -0.1080  0.0940
14529TIP3    H165078   6.760   2.501  14.099  2.0896 -0.6152 -1.2232
14529TIP3    H265079   6.704   2.363  14.073 -0.8819  0.1141  0.8863
14530TIP3   OH265080   4.035   3.699   2.799  0.3317 -0.0070  0.2519
14530TIP3    H165081   4.083   3.719   2.719  1.7861 -0.4088  0.9785
14530TIP3    H265082   4.027   3.782   2.844  1.3266 -0.0870  0.6140
14531TIP3   OH265083   3.055   2.849  11.056 -0.0150 -0.0621 -0.5799
14531TIP3    H165084   3.126   2.911  11.039  0.8617 -1.1189 -0.8762
14531TIP3    H265085   3.073   2.775  10.999 -0.0352 -1.3565  1.0134
14532TIP3   OH265086   6.749   6.139   5.431 -0.7685  0.0148  0.3543
14532TIP3    H165087   6.842   6.135   5.451 -1.2053 -1.1328  2.4145
14532TIP3    H265088   6.743   6.196   5.354  1.7949 -1.4616 -1.0495
14533TIP3   OH265089   3.438   2.074  15.532 -0.2981  0.2687  0.2438
14533TIP3    H165090   3.394   2.100  15.612 -2.2275  0.4566 -0.8139
14533TIP3    H265091   3.492   2.150  15.508  0.7954 -0.0313  1.6579
14534TIP3   OH265092   3.851   6.044  17.338  0.5918 -0.2800 -0.1927
14534TIP3    H165093   3.781   6.007  17.392  0.6218 -0.8802 -0.5617
14534TIP3    H265094   3.928   5.993  17.363  0.8850  0.3229  0.1505
14535TIP3   OH265095   2.950   3.424   6.586 -0.2641 -0.4261  0.3973
14535TIP3    H165096   2.992   3.339   6.598  0.2271 -0.2755 -0.1718
14535TIP3    H265097   3.005   3.485   6.635  0.3021 -0.2015 -0.4892
14536TIP3   OH265098   3.380   0.525   6.172  0.0902  0.5745 -0.3600
14536TIP3    H165099   3.451   0.489   6.224 -0.0235  0.7204 -0.1046
14536TIP3    H265100   3.345   0.597   6.224  0.0093  0.7557 -0.6582
14537TIP3   OH265101   6.170   1.364  11.788 -0.4931 -0.0955  0.1371
14537TIP3    H165102   6.195   1.383  11.878 -1.1212  0.0197  0.2940
14537TIP3    H265103   6.111   1.436  11.764 -0.3208 -0.1174 -0.3680
14538TIP3   OH265104   0.958   2.311   1.821  0.1869  0.2205  0.2260
14538TIP3    H165105   0.924   2.401   1.816 -0.2875  0.0734  0.7332
14538TIP3    H265106   0.935   2.282   1.909  2.1979  0.3464  0.8434
14539TIP3   OH265107   3.951   1.437  17.486  0.4650 -0.1445  0.0091
14539TIP3    H165108   3.924   1.403  17.401 -0.8339 -0.7010  0.6166
14539TIP3    H265109   3.963   1.359  17.540  3.0499  0.0845 -0.1066
14540TIP3   OH265110   3.118   2.032  11.940 -0.4353 -0.2229 -0.1642
14540TIP3    H165111   3.101   2.111  11.888 -1.5776 -0.1849  0.2423
14540TIP3    H265112   3.196   2.053  11.991 -0.1497  0.2758 -0.7884
14541TIP3   OH265113   1.567   0.291  13.482  0.3053 -0.0683  0.7115
14541TIP3    H165114   1.489   0.267  13.432  0.1946  0.8894  0.4042
14541TIP3    H265115   1.639   0.285  13.419  1.1612 -4.4510  1.7766
14542TIP3   OH265116   5.737   2.560  14.562  0.5109  0.1609 -0.3111
14542TIP3    H165117   5.767   2.477  14.598 -0.2703 -0.6050 -1.3769
14542TIP3    H265118   5.748   2.551  14.468 -2.2671  0.1325 -0.7017
14543TIP3   OH265119   5.364   4.304   1.479  0.3018  0.3994  0.3595
14543TIP3    H165120   5.275   4.330   1.455  0.6819 -0.3788 -2.1831
14543TIP3    H265121   5.356   4.210   1.499  0.1979  0.8042  2.4932
14544TIP3   OH265122   0.664   4.378   0.390  0.4958 -0.2929 -0.1250
14544TIP3    H165123   0.685   4.327   0.311 -1.3143 -0.8452 -0.2990
14544TIP3    H265124   0.569   4.387   0.387  0.7319  3.6014 -0.3988
14545TIP3   OH265125   4.389   3.760   5.726 -0.4342  0.4761  0.0490
14545TIP3    H165126   4.411   3.846   5.689 -0.6995  0.7113  0.4300
14545TIP3    H265127   4.473   3.716   5.736 -0.3246  0.5654 -0.4621
14546TIP3   OH265128   0.790   3.255   5.671  0.5044 -0.3357 -0.2304
14546TIP3    H165129   0.723   3.195   5.703 -0.5305 -0.2128 -2.0428
14546TIP3    H265130   0.816   3.219   5.586  1.3548  0.6678 -0.4183
14547TIP3   OH265131   1.056   1.368  11.139  0.3994  0.5258  0.4007
14547TIP3    H165132   1.062   1.392  11.047 -0.2467  3.2507  0.9566
14547TIP3    H265133   0.970   1.327  11.148  0.6213 -0.0982 -0.2531
14548TIP3   OH265134   3.588   4.950  10.428  0.7853 -0.6181  0.1924
14548TIP3    H165135   3.589   4.855  10.435  1.3249 -0.5627  1.0700
14548TIP3    H265136   3.665   4.978  10.479  0.4719  0.2943  0.1767
14549TIP3   OH265137   3.392   1.993   4.756  1.1854  0.3646 -0.2287
14549TIP3    H165138   3.404   2.087   4.739  1.8498  0.0501 -1.5900
14549TIP3    H265139   3.297   1.982   4.763  0.8438  0.6612 -3.2778
14550TIP3   OH265140   3.324   6.257  13.589 -0.7394  0.1423  0.7519
14550TIP3    H165141   3.258   6.219  13.647 -1.3123  1.0185  0.6833
14550TIP3    H265142   3.296   6.347  13.575  0.7218  0.6821  1.0970
14551TIP3   OH265143   0.776   1.831   0.944 -0.7948 -0.4141 -0.1794
14551TIP3    H165144   0.713   1.766   0.914 -1.2670  0.1069 -0.3437
14551TIP3    H265145   0.726   1.890   1.000 -0.2917 -0.4061  0.2724
14552TIP3   OH265146   2.361   1.430  10.815 -0.0963 -0.3968  0.0167
14552TIP3    H165147   2.387   1.522  10.822  0.1195 -0.2428 -2.1189
14552TIP3    H265148   2.441   1.385  10.787 -0.5329 -0.9975 -0.2761
14553TIP3   OH265149   0.402   4.518   5.878  0.2632 -0.3926 -0.3182
14553TIP3    H165150   0.486   4.555   5.906  1.0187 -0.9009 -1.8146
14553TIP3    H265151   0.379   4.568   5.800  0.7558 -2.2899 -1.7459
14554TIP3   OH265152   0.604   3.379   6.153 -0.3739 -0.1252  0.0142
14554TIP3    H165153   0.697   3.360   6.152 -0.6253 -1.5292  0.2180
14554TIP3    H265154   0.564   3.306   6.105 -1.2631  1.2317 -1.4150
14555TIP3   OH265155   1.331   6.410  17.070 -0.8370  0.1575 -0.6758
14555TIP3    H165156   1.302   6.497  17.044 -0.7536  0.1367 -0.8445
14555TIP3    H265157   1.404   6.391  17.011 -1.0562 -0.1559 -0.8424
14556TIP3   OH265158   3.629   5.938  13.962  0.4258 -0.3807 -0.3751
14556TIP3    H165159   3.573   5.960  14.036 -0.3847 -2.0613 -0.4449
14556TIP3    H265160   3.569   5.932  13.887  1.1869  0.9720 -1.1303
14557TIP3   OH265161   1.401   0.406  15.922 -0.0305 -0.8142  0.3805
14557TIP3    H165162   1.353   0.442  15.997 -0.2316  0.8260 -0.4810
14557TIP3    H265163   1.333   0.387  15.857  0.3112 -0.2698 -0.1429
14558TIP3   OH265164   1.051   4.731  11.212 -0.0508  0.5806  0.1968
14558TIP3    H165165   1.146   4.727  11.218  0.3124  4.5244 -0.1435
14558TIP3    H265166   1.024   4.789  11.283 -1.8028  2.1119 -1.5975
14559TIP3   OH265167   4.087   2.919  13.879  0.1239 -0.0308  0.5404
14559TIP3    H165168   4.149   2.947  13.811 -0.1069  1.1163  0.7724
14559TIP3    H265169   4.001   2.925  13.837  0.0474 -0.0709  0.6901
14560TIP3   OH265170   4.452   5.847  17.259 -0.1472  0.1258 -0.9182
14560TIP3    H165171   4.396   5.919  17.287 -0.9221 -0.5206 -0.7801
14560TIP3    H265172   4.531   5.890  17.226  1.2612  0.9649  2.9870
14561TIP3   OH265173   0.087   2.461  17.228  0.4701  0.5698 -0.6261
14561TIP3    H165174   0.111   2.381  17.275 -0.8426 -0.0524 -0.9507
14561TIP3    H265175   0.155   2.524  17.250  1.5581 -0.6475 -0.3806
14562TIP3   OH265176   2.249   0.343  14.830  0.0145 -0.1001  0.2639
14562TIP3    H165177   2.329   0.292  14.819 -0.7722 -1.1387 -1.0030
14562TIP3    H265178   2.262   0.421  14.776 -0.6669 -1.3587 -1.8342
14563TIP3   OH265179   1.888   1.205  11.972  0.6273  1.2582  0.6027
14563TIP3    H165180   1.983   1.211  11.970  0.7889 -0.6562  0.4798
14563TIP3    H265181   1.870   1.120  12.012 -1.0028  1.1646 -0.2207
14564TIP3   OH265182   1.928   5.347  12.086  0.1146  0.0267  0.6768
14564TIP3    H165183   1.947   5.279  12.151  0.1415 -0.8221 -0.2020
14564TIP3    H265184   2.008   5.400  12.083  0.2326 -0.1202  1.0947
14565TIP3   OH265185   0.111   5.113  11.448  0.3614  0.1588  0.9378
14565TIP3    H165186   0.053   5.122  11.523  0.0656 -1.4357  0.9426
14565TIP3    H265187   0.170   5.188  11.453 -0.8715  1.1115  1.6656
14566TIP3   OH265188   3.437   0.381  15.604 -0.1089  0.6201 -0.6321
14566TIP3    H165189   3.499   0.406  15.673 -1.4639 -1.0113  1.2870
14566TIP3    H265190   3.462   0.291  15.581 -0.4983  0.6820 -1.3359
14567TIP3   OH265191   6.384   5.283  17.096 -0.3693 -0.0100  0.3248
14567TIP3    H165192   6.478   5.264  17.087  0.3393  1.9472  2.5046
14567TIP3    H265193   6.348   5.267  17.009  1.9174 -1.1224 -0.5057
14568TIP3   OH265194   6.273   0.743   1.476  0.0132  0.2131 -0.1700
14568TIP3    H165195   6.237   0.659   1.447  0.2615 -0.2259  0.7662
14568TIP3    H265196   6.368   0.730   1.472  0.0573  0.1205  0.8574
14569TIP3   OH265197   1.231   5.624   0.256 -0.1706  0.5873 -0.2265
14569TIP3    H165198   1.249   5.686   0.326  0.3441  2.2923 -1.7964
14569TIP3    H265199   1.216   5.678   0.178 -0.5673 -1.2233 -1.4913
14570TIP3   OH265200   5.108   0.598  16.026 -0.2356 -0.0852 -0.0452
14570TIP3    H165201   5.091   0.574  16.117  2.4535 -1.1331  0.2559
14570TIP3    H265202   5.086   0.691  16.021  0.6913  0.2924  1.9992
14571TIP3   OH265203   3.100   5.651   4.763 -0.3812 -0.2464  0.2522
14571TIP3    H165204   3.068   5.696   4.685  2.7775 -0.1008 -1.1016
14571TIP3    H265205   3.123   5.721   4.824 -1.0602 -0.3046  0.5919
14572TIP3   OH265206   2.231   3.245  15.750 -0.0679 -0.2007  0.0069
14572TIP3    H165207   2.249   3.152  15.768  1.1470  0.3197  1.6428
14572TIP3    H265208   2.165   3.270  15.814 -1.3973 -0.2276 -1.2934
14573TIP3   OH265209   3.431   6.731   6.374  0.1071 -0.1315 -0.4711
14573TIP3    H165210   3.507   6.673   6.372  0.8147  0.7111  0.5581
14573TIP3    H265211   3.411   6.748   6.282  1.0097 -0.5631 -0.7542
14574TIP3   OH265212   1.399   1.552  10.947  0.6482  0.2217  0.5403
14574TIP3    H165213   1.396   1.465  10.986 -1.0257  0.0077  0.0365
14574TIP3    H265214   1.473   1.595  10.989 -0.0600 -0.5682  2.7089
14575TIP3   OH265215   0.232   1.128   4.671  0.1014 -0.0530  0.1450
14575TIP3    H165216   0.267   1.143   4.583 -0.9162 -0.1152 -0.2819
14575TIP3    H265217   0.141   1.156   4.666 -0.2190 -0.8945  0.9370
14576TIP3   OH265218   2.465   3.273  11.291 -0.1063  0.5925 -0.0731
14576TIP3    H165219   2.431   3.347  11.342 -2.0825 -0.0712 -0.3646
14576TIP3    H265220   2.470   3.306  11.202 -4.6789 -0.5701 -0.9941
14577TIP3   OH265221   1.825   0.603   3.613 -0.1309  0.5460 -0.1430
14577TIP3    H165222   1.786   0.518   3.595 -1.8944  1.3208 -0.1851
14577TIP3    H265223   1.752   0.665   3.611  0.9757  1.9706  0.6250
14578TIP3   OH265224   3.010   1.763   3.497  0.0286  0.1577  0.1423
14578TIP3    H165225   2.963   1.846   3.491 -0.4993 -0.2112 -1.3701
14578TIP3    H265226   3.055   1.767   3.582  0.0010  1.9684  0.1264
14579TIP3   OH265227   1.731   2.145  12.884 -0.0751 -0.0180 -0.2983
14579TIP3    H165228   1.823   2.170  12.883 -0.5802  1.9397 -0.5064
14579TIP3    H265229   1.683   2.227  12.876 -1.8498 -1.0650 -0.9853
14580TIP3   OH265230   0.765   0.681  15.875 -0.1011 -0.3892  0.1331
14580TIP3    H165231   0.712   0.706  15.799  1.0449  1.0063 -0.2493
14580TIP3    H265232   0.767   0.759  15.930  0.1993 -0.9516  0.9368
14581TIP3   OH265233   0.661   0.722   4.918 -0.7977  0.4151 -0.7835
14581TIP3    H165234   0.602   0.657   4.957 -1.2048  1.8525  1.1804
14581TIP3    H265235   0.717   0.672   4.859 -2.0581 -1.4599 -0.4855
14582TIP3   OH265236   5.968   1.215  12.460 -0.2426 -0.3329 -0.7943
14582TIP3    H165237   5.899   1.213  12.526 -0.7623  1.3879 -1.2331
14582TIP3    H265238   5.930   1.174  12.383  0.3006 -2.1723 -0.1399
14583TIP3   OH265239   3.862   0.356   5.421  0.0429 -0.2689  0.8363
14583TIP3    H165240   3.838   0.427   5.363  0.8988  0.0046  0.8158
14583TIP3    H265241   3.916   0.298   5.368 -0.9168 -1.1223  0.7514
14584TIP3   OH265242   3.479   2.556   2.285 -0.3430  0.2925  0.6620
14584TIP3    H165243   3.494   2.561   2.191 -1.3434  1.0362  0.5339
14584TIP3    H265244   3.452   2.644   2.310  2.6511  0.9057  2.1530
14585TIP3   OH265245   4.967   5.880  13.833 -0.4348  0.0352 -0.2392
14585TIP3    H165246   4.976   5.788  13.856  0.5625  0.1796 -0.0047
14585TIP3    H265247   4.887   5.884  13.780  0.2775 -1.2001 -1.4618
14586TIP3   OH265248   6.603   5.538   3.242 -0.4602  0.1704 -0.9014
14586TIP3    H165249   6.601   5.595   3.166  1.2685  0.1657 -0.9962
14586TIP3    H265250   6.540   5.576   3.303  1.2366  2.7388 -0.5900
14587TIP3   OH265251   0.860   4.426  14.956 -0.1623 -0.1826  0.3112
14587TIP3    H165252   0.939   4.410  14.904 -0.5492  0.3926 -0.4774
14587TIP3    H265253   0.874   4.376  15.036  0.1494 -1.6731 -0.6278
14588TIP3   OH265254   3.277   6.206   2.827  0.2366 -0.7475  0.1787
14588TIP3    H165255   3.338   6.254   2.771  0.4695 -1.2220  0.0176
14588TIP3    H265256   3.232   6.273   2.878 -0.1814 -0.2787 -0.7795
14589TIP3   OH265257   0.771   6.726  11.733  0.4374  0.2219 -0.0286
14589TIP3    H165258   0.858   6.733  11.772  1.4279 -0.8730 -1.8824
14589TIP3    H265259   0.713   6.767  11.796  2.3728  1.5407  0.9926
14590TIP3   OH265260   4.409   6.601   5.657 -0.6425  0.7812 -0.4899
14590TIP3    H165261   4.483   6.550   5.623  0.4360  0.7299  1.7578
14590TIP3    H265262   4.336   6.540   5.658 -0.0913  0.1090 -0.4818
14591TIP3   OH265263   4.325   2.568   1.226 -0.8620  0.1050 -0.6250
14591TIP3    H165264   4.280   2.642   1.265  1.2882  0.9201  0.4142
14591TIP3    H265265   4.278   2.553   1.143 -2.7612  1.1084  0.2063
14592TIP3   OH265266   4.659   0.598   6.704 -0.9850  0.2947  0.7981
14592TIP3    H165267   4.601   0.530   6.669 -1.7594  1.0610  0.5530
14592TIP3    H265268   4.616   0.628   6.784  0.0819 -0.4879  1.6944
14593TIP3   OH265269   6.385   5.573   3.776  0.3380 -0.3703  0.1529
14593TIP3    H165270   6.463   5.534   3.736 -0.7285 -0.4296 -2.0289
14593TIP3    H265271   6.389   5.665   3.750 -0.1658 -0.3137  0.2721
14594TIP3   OH265272   5.466   4.847  14.216 -0.1102  0.6230  0.3177
14594TIP3    H165273   5.476   4.925  14.270 -0.5910 -0.0419  1.3916
14594TIP3    H265274   5.426   4.879  14.135 -0.5877  1.4380  0.8694
14595TIP3   OH265275   5.454   3.684   0.155  0.3969 -0.4242  0.2297
14595TIP3    H165276   5.447   3.644   0.242 -0.0741 -0.0831  0.3537
14595TIP3    H265277   5.471   3.610   0.096  1.3593 -0.5780  0.6892
14596TIP3   OH265278   0.364   6.590   5.878  0.3317  0.2418 -0.1417
14596TIP3    H165279   0.361   6.503   5.919 -0.3017  0.5155  0.4172
14596TIP3    H265280   0.419   6.578   5.801  0.4638 -0.5989  0.0687
14597TIP3   OH265281   4.636   4.846   2.864 -0.0699  1.1428  0.3771
14597TIP3    H165282   4.684   4.911   2.811  0.0709  1.2615  0.6477
14597TIP3    H265283   4.545   4.853   2.833  0.1982  0.4016 -0.6520
14598TIP3   OH265284   1.351   0.413   2.919 -0.1358  0.2218  0.3143
14598TIP3    H165285   1.290   0.472   2.962  0.7553  0.9098  0.6702
14598TIP3    H265286   1.436   0.434   2.958  0.4896 -0.0279 -0.8691
14599TIP3   OH265287   1.237   3.956  16.403  0.1067 -0.1685 -0.0185
14599TIP3    H165288   1.189   3.892  16.456  1.2126 -0.6918  0.3846
14599TIP3    H265289   1.298   3.903  16.350  1.6280  0.5639  0.9238
14600TIP3   OH265290   6.096   2.060   2.708 -0.1426  0.1592  0.0704
14600TIP3    H165291   6.095   1.967   2.686 -0.6210  0.0343  0.6183
14600TIP3    H265292   6.041   2.067   2.786 -0.3651  0.9495 -0.1553
14601TIP3   OH265293   0.019   6.690   2.092  0.0604 -0.4928  0.9661
14601TIP3    H165294   0.080   6.703   2.165  1.2571 -2.9224  0.5104
14601TIP3    H265295   0.072   6.649   2.024 -1.6009 -0.6005 -0.3195
14602TIP3   OH265296   0.949   1.349   3.106 -0.3625 -0.4850 -0.5293
14602TIP3    H165297   0.969   1.302   3.187 -1.1335 -0.5986 -0.4014
14602TIP3    H265298   0.997   1.432   3.114  1.3450 -1.3775 -0.9331
14603TIP3   OH265299   3.163   0.391  13.324  0.6198 -0.2617 -0.3253
14603TIP3    H165300   3.227   0.348  13.382  0.3514  0.8104  0.7823
14603TIP3    H265301   3.134   0.468  13.372 -2.6789 -1.4844 -0.1167
14604TIP3   OH265302   3.796   3.778  12.479 -0.3507  0.1084  0.1345
14604TIP3    H165303   3.873   3.818  12.439  1.2255 -2.0557  0.8213
14604TIP3    H265304   3.766   3.714  12.414 -1.0129  0.2855  0.2580
14605TIP3   OH265305   5.529   4.685  13.057 -0.3486 -1.1621 -0.1440
14605TIP3    H165306   5.616   4.657  13.031 -0.1775  0.4856 -1.5577
14605TIP3    H265307   5.537   4.704  13.151  0.5933 -1.7621 -0.0922
14606TIP3   OH265308   3.454   1.133   3.386 -0.1205 -0.6649 -0.3427
14606TIP3    H165309   3.443   1.139   3.292 -2.1623  0.7307 -0.0749
14606TIP3    H265310   3.371   1.100   3.419 -0.1238  0.6103  1.0885
14607TIP3   OH265311   3.069   1.757  16.496 -0.4804 -0.1876  0.2008
14607TIP3    H165312   3.089   1.820  16.427 -0.4843  0.0507  0.4145
14607TIP3    H265313   2.982   1.724  16.474 -0.9595  0.6982  0.6757
14608TIP3   OH265314   3.037   2.819  13.033 -0.1221 -0.1175 -0.5783
14608TIP3    H165315   2.998   2.903  13.010  3.1622  1.6596 -0.2262
14608TIP3    H265316   3.041   2.820  13.129  1.1073 -0.0598 -0.6214
14609TIP3   OH265317   4.336   6.410   4.195  0.0238  0.1278  0.0094
14609TIP3    H165318   4.405   6.374   4.140  1.0167  2.1377 -0.1552
14609TIP3    H265319   4.308   6.490   4.150 -3.8474 -1.5104 -0.9578
14610TIP3   OH265320   3.002   0.749   0.890 -0.6598  0.2242 -0.2680
14610TIP3    H165321   3.005   0.669   0.836  2.0549  1.3182 -1.9487
14610TIP3    H265322   3.082   0.796   0.867 -0.8471  2.2168  2.6287
14611TIP3   OH265323   6.699   6.468  12.665 -0.2387 -0.2553 -0.4224
14611TIP3    H165324   6.755   6.396  12.693 -1.0720 -0.5336  0.5952
14611TIP3    H265325   6.682   6.451  12.573  1.0942 -0.3193 -0.6800
14612TIP3   OH265326   3.890   0.457   2.040 -0.0573  0.4692 -0.0247
14612TIP3    H165327   3.897   0.501   1.956 -1.2562  1.9187  0.5998
14612TIP3    H265328   3.817   0.396   2.029 -1.3875  1.9088  0.4423
14613TIP3   OH265329   4.610   3.989  12.939  0.1696 -0.8014 -0.1963
14613TIP3    H165330   4.574   4.072  12.909  1.3158  0.8931  2.7232
14613TIP3    H265331   4.704   3.995  12.920  0.3704 -1.1138  0.6633
14614TIP3   OH265332   1.330   3.861   1.767  0.1038 -0.1901  0.1462
14614TIP3    H165333   1.274   3.842   1.692 -3.2190  3.3749  1.3553
14614TIP3    H265334   1.384   3.935   1.739 -0.9721  0.9911  1.0147
14615TIP3   OH265335   1.042   1.727   1.391 -0.0733 -0.5420  0.0096
14615TIP3    H165336   0.993   1.733   1.309 -0.6413 -2.1517  0.1793
14615TIP3    H265337   0.979   1.693   1.454 -0.1161  2.2468  1.5964
14616TIP3   OH265338   3.361   4.467   1.606 -0.1663  0.2384 -0.1234
14616TIP3    H165339   3.402   4.544   1.567  1.2680  0.2905  1.3393
14616TIP3    H265340   3.268   4.476   1.587  0.2901  0.9394 -2.2550
14617TIP3   OH265341   6.696   3.915   1.261 -0.5028 -0.0655 -0.2379
14617TIP3    H165342   6.745   3.995   1.281  0.5389 -0.7191 -0.1128
14617TIP3    H265343   6.714   3.898   1.169 -0.8241 -0.0912 -0.2955
14618TIP3   OH265344   5.671   0.986  13.557 -0.5620  1.0208  0.0534
14618TIP3    H165345   5.611   1.053  13.589 -1.7560 -0.7234  1.7817
14618TIP3    H265346   5.653   0.910  13.613  0.3073 -0.9193 -2.1308
14619TIP3   OH265347   2.472   6.084   4.898 -0.0376 -0.4392 -0.0212
14619TIP3    H165348   2.556   6.091   4.852 -0.4016 -0.9680 -0.7971
14619TIP3    H265349   2.474   6.154   4.963  0.6052  0.1772 -0.6811
14620TIP3   OH265350   1.749   5.143  14.148  0.2570  0.1798  0.9589
14620TIP3    H165351   1.717   5.083  14.216 -2.1929  0.3856  0.0858
14620TIP3    H265352   1.833   5.106  14.121 -1.2925 -3.1441  0.2001
14621TIP3   OH265353   1.196   3.322  16.018 -0.7247 -0.0832 -0.1444
14621TIP3    H165354   1.146   3.403  16.020 -1.2105 -0.3814 -0.0355
14621TIP3    H265355   1.253   3.326  16.095 -0.0606  0.5804 -0.6632
14622TIP3   OH265356   5.106   5.850  12.461  0.0704  0.4145 -0.1197
14622TIP3    H165357   5.201   5.839  12.453  0.0031 -1.3428  0.8393
14622TIP3    H265358   5.095   5.910  12.534  0.4682 -0.3075  0.5573
14623TIP3   OH265359   1.028   4.757   2.379  0.0187 -0.7956  0.1928
14623TIP3    H165360   1.076   4.716   2.452 -0.4813 -3.2295 -0.7254
14623TIP3    H265361   1.037   4.694   2.308  0.8810  1.6978 -2.0599
14624TIP3   OH265362   2.225   5.249  14.622  0.3728 -1.1846 -0.5803
14624TIP3    H165363   2.225   5.306  14.546  0.0050 -1.0213 -0.4622
14624TIP3    H265364   2.259   5.304  14.693 -0.0015 -1.1047 -0.4623
14625TIP3   OH265365   1.284   6.473   1.004 -0.1317  0.1926  0.7510
14625TIP3    H165366   1.283   6.512   0.916  1.2270  0.6438  0.9163
14625TIP3    H265367   1.313   6.383   0.989 -2.3794 -0.5582  0.4782
14626TIP3   OH265368   0.982   2.445  14.651  0.5409 -0.7531 -0.6806
14626TIP3    H165369   1.023   2.362  14.628  0.3517 -1.0246 -0.0522
14626TIP3    H265370   1.003   2.458  14.743 -1.2272 -1.1694 -0.1864
14627TIP3   OH265371   3.520   2.852   5.596  0.0031  0.3025 -0.3478
14627TIP3    H165372   3.532   2.892   5.682 -0.4433 -0.6890  0.1892
14627TIP3    H265373   3.442   2.896   5.561 -1.4628 -1.1339  0.9104
14628TIP3   OH265374   3.516   1.348   5.465 -0.0561 -0.1766  0.1472
14628TIP3    H165375   3.479   1.262   5.485 -1.4573  0.3962  0.0790
14628TIP3    H265376   3.610   1.331   5.454 -0.1543 -1.5243  1.1166
14629TIP3   OH265377   5.641   1.430  10.585 -0.4350  0.3537 -0.1016
14629TIP3    H165378   5.635   1.416  10.490 -1.1839  1.5245 -0.2483
14629TIP3    H265379   5.723   1.387  10.610 -1.1833 -1.6639 -0.9421
14630TIP3   OH265380   3.973   5.801  16.721  0.5807 -0.1384  0.1718
14630TIP3    H165381   3.986   5.894  16.703  2.0755 -0.2827  0.3805
14630TIP3    H265382   3.921   5.798  16.801  1.1309  0.5083  0.5515
14631TIP3   OH265383   1.671   3.919   4.070  1.0341 -0.1974 -1.0896
14631TIP3    H165384   1.638   3.884   4.152  0.2442  1.3824 -0.6852
14631TIP3    H265385   1.636   3.861   4.002  0.3262 -0.5719 -0.4178
14632TIP3   OH265386   1.456   3.012   4.166 -0.3341 -0.4040 -0.6467
14632TIP3    H165387   1.435   3.015   4.259  2.0125 -0.0681 -0.0657
14632TIP3    H265388   1.404   3.082   4.127 -1.5519 -0.7293  0.3194
14633TIP3   OH265389   6.086   1.212  10.611 -0.6119 -0.1453 -0.1584
14633TIP3    H165390   6.125   1.152  10.675 -2.7633 -2.7543 -1.1031
14633TIP3    H265391   6.158   1.234  10.552  0.3005 -1.7798  0.2792
14634TIP3   OH265392   6.076   2.420  14.301  0.2109 -0.8294 -0.3546
14634TIP3    H165393   6.086   2.332  14.336 -1.1687 -0.4510  1.1058
14634TIP3    H265394   6.096   2.411  14.208  2.7467 -2.1250  0.2258
14635TIP3   OH265395   4.460   0.342   5.156 -1.0446 -0.2896 -0.1824
14635TIP3    H165396   4.480   0.406   5.087  0.1685  0.7533  1.0742
14635TIP3    H265397   4.475   0.257   5.115  0.4716  0.3351 -1.0022
14636TIP3   OH265398   6.634   0.807  13.403  0.2351 -0.0290  0.7250
14636TIP3    H165399   6.721   0.818  13.363 -0.9109  1.2002 -1.7026
14636TIP3    H265400   6.635   0.863  13.480  0.3776  3.4303 -1.5755
14637TIP3   OH265401   3.541   4.760  15.446  0.3632  0.3210  0.3183
14637TIP3    H165402   3.550   4.727  15.535 -0.2971  0.4827  0.4451
14637TIP3    H265403   3.615   4.820  15.435  1.0329 -0.4563  0.4053
14638TIP3   OH265404   0.061   4.598  13.558 -0.3397  0.5279  0.0388
14638TIP3    H165405   0.150   4.611  13.526 -0.4331  1.6612  0.1923
14638TIP3    H265406   0.070   4.535  13.629  0.1869 -0.1968 -0.6538
14639TIP3   OH265407   1.403   0.230  11.528  0.5832  0.0697 -0.0827
14639TIP3    H165408   1.340   0.301  11.541  0.5748 -0.2672  2.0924
14639TIP3    H265409   1.364   0.175  11.460 -0.7406  0.6914  0.1455
14640TIP3   OH265410   3.191   0.046  16.815  0.2330 -0.1928 -0.0669
14640TIP3    H165411   3.186  -0.040  16.775  1.0592 -0.8644  1.1902
14640TIP3    H265412   3.129   0.043  16.888  1.3664 -0.2794  0.9206
14641TIP3   OH265413   4.723   3.736  17.358  0.1450 -0.3790  0.8748
14641TIP3    H165414   4.780   3.685  17.300  0.5632  0.2440  0.7274
14641TIP3    H265415   4.635   3.723  17.322  0.3457 -0.3655  0.3675
14642TIP3   OH265416   1.862   3.851   4.401  0.0884 -0.1710 -0.6259
14642TIP3    H165417   1.920   3.818   4.470 -2.9293  0.4586  2.5021
14642TIP3    H265418   1.853   3.777   4.340  1.0354 -1.6625  0.9431
14643TIP3   OH265419   2.939   3.127  16.471  0.1966  0.3896  0.3637
14643TIP3    H165420   2.916   3.219  16.469  2.5803  1.0549  0.6621
14643TIP3    H265421   2.976   3.113  16.558 -1.6650 -1.3236  0.9807
14644TIP3   OH265422   6.465   5.647  12.359  0.0491  0.2815 -0.2503
14644TIP3    H165423   6.545   5.614  12.318  0.0502  1.0417 -0.8839
14644TIP3    H265424   6.426   5.704  12.293  0.1452  1.6798  0.8616
14645TIP3   OH265425   0.118   6.474   0.096  0.1556 -0.5977 -0.0395
14645TIP3    H165426   0.082   6.453   0.182 -1.5373  1.5946 -0.1233
14645TIP3    H265427   0.190   6.535   0.115  0.2988 -0.7406 -0.1293
14646TIP3   OH265428   2.699   0.107  16.689  0.0911 -0.2046 -0.1488
14646TIP3    H165429   2.775   0.056  16.715  1.5058  1.8462 -0.0126
14646TIP3    H265430   2.654   0.127  16.771  0.6414  0.3862  0.0185
14647TIP3   OH265431   5.908   0.235  12.004  0.6472 -0.2284 -0.6637
14647TIP3    H165432   5.916   0.211  11.912  1.6099 -0.2596 -0.5863
14647TIP3    H265433   5.814   0.233  12.022  0.5247 -1.4821 -1.3070
14648TIP3   OH265434   5.953   4.669  13.670  0.3168 -0.1394 -0.0462
14648TIP3    H165435   5.880   4.622  13.629 -1.4074  1.9392  0.4043
14648TIP3    H265436   5.997   4.713  13.597 -1.3828  1.7512 -0.0417
14649TIP3   OH265437   4.055   0.035  12.955 -0.1116 -0.3641 -0.0810
14649TIP3    H165438   4.058  -0.039  13.016  1.5660 -0.5346 -0.3270
14649TIP3    H265439   3.992   0.095  12.994  1.3222 -0.2154  2.1465
14650TIP3   OH265440   0.016   2.781   3.345  0.5902  0.7577  0.7337
14650TIP3    H165441  -0.029   2.798   3.262 -1.8006  0.1691  1.8187
14650TIP3    H265442   0.061   2.697   3.330 -1.5321 -0.4356  0.5959
14651TIP3   OH265443   3.443   0.774   5.845  0.2184  0.2753 -0.1029
14651TIP3    H165444   3.469   0.714   5.775  0.3971  0.3144 -0.0717
14651TIP3    H265445   3.526   0.802   5.884  0.1045 -0.2643  0.5542
14652TIP3   OH265446   1.569   6.689  14.139 -0.8404  0.0285 -0.5232
14652TIP3    H165447   1.522   6.703  14.221 -0.7157 -0.9661 -0.2598
14652TIP3    H265448   1.508   6.638  14.085 -1.2889  1.4705 -1.4348
14653TIP3   OH265449   1.452   1.101   3.885 -0.3746  0.6512 -0.0625
14653TIP3    H165450   1.414   1.116   3.972  0.7525  1.6080  0.2878
14653TIP3    H265451   1.434   1.009   3.867 -3.2838  1.1300 -0.1491
14654TIP3   OH265452   0.780   5.977  12.684 -0.1258  0.2476  0.2554
14654TIP3    H165453   0.813   5.888  12.672 -0.9006 -0.1044  0.6315
14654TIP3    H265454   0.809   6.001  12.772  0.6946  0.6514 -0.1140
14655TIP3   OH265455   2.473   5.619  14.266 -0.4362  0.6429 -1.2724
14655TIP3    H165456   2.432   5.663  14.341  1.9289  0.6246  0.1295
14655TIP3    H265457   2.562   5.654  14.264  0.7882 -2.2112 -1.6216
14656TIP3   OH265458   6.332   0.734  12.181  0.5256  0.0677  0.0515
14656TIP3    H165459   6.343   0.654  12.232  0.8714  0.3628  0.4489
14656TIP3    H265460   6.419   0.774  12.182  0.2848  0.5892  0.0978
14657TIP3   OH265461   0.164   6.274  12.749 -0.1074 -0.0316 -0.0795
14657TIP3    H165462   0.179   6.192  12.702 -1.9660  0.0067 -0.8093
14657TIP3    H265463   0.250   6.315  12.753  0.7423 -1.7084 -0.2676
14658TIP3   OH265464   5.996   1.883  13.283  0.2549  0.2449 -0.6317
14658TIP3    H165465   6.007   1.831  13.203 -0.7437  0.7508 -1.1159
14658TIP3    H265466   6.013   1.821  13.354  0.3149 -0.4280 -1.2220
14659TIP3   OH265467   1.361   1.872  13.353  0.4188  0.0794  0.1947
14659TIP3    H165468   1.454   1.893  13.353  0.4637  0.0236 -1.5207
14659TIP3    H265469   1.321   1.938  13.409  1.4805  0.1445  0.8801
14660TIP3   OH265470   3.486   6.734  13.004  0.3140  0.4219  0.0828
14660TIP3    H165471   3.537   6.757  13.082 -0.5392  2.0312  0.2063
14660TIP3    H265472   3.492   6.812  12.949 -2.0086  0.6952  0.1137
14661TIP3   OH265473   1.017   3.649  13.199  0.4646  0.1975 -0.4813
14661TIP3    H165474   1.073   3.617  13.270  0.7479  0.5879 -0.5243
14661TIP3    H265475   1.019   3.579  13.134 -0.0665 -0.3132  0.0329
14662TIP3   OH265476   2.700   4.955   2.524 -0.2590  0.5397 -0.0402
14662TIP3    H165477   2.606   4.948   2.508 -0.2435 -0.5711  0.2685
14662TIP3    H265478   2.731   4.864   2.525  1.0607  0.9380 -1.5164
14663TIP3   OH265479   3.210   0.254  14.129  0.4094  0.0799 -0.5814
14663TIP3    H165480   3.174   0.187  14.187 -0.0129  1.1062  0.3864
14663TIP3    H265481   3.168   0.238  14.045 -0.4775 -0.2315 -0.0884
14664TIP3   OH265482   5.188   0.233  13.489  0.5195  0.3181  0.1399
14664TIP3    H165483   5.280   0.227  13.515  0.3082 -1.3655  0.6485
14664TIP3    H265484   5.189   0.286  13.410  2.2566 -1.5586 -1.2241
14665TIP3   OH265485   4.731   5.177  12.271  0.5342  0.1314 -0.1389
14665TIP3    H165486   4.664   5.109  12.279 -2.0357  2.2273 -1.8665
14665TIP3    H265487   4.719   5.232  12.348  1.4182 -0.3943  0.3801
14666TIP3   OH265488   4.031   2.764  13.587 -0.6711 -0.2247  0.8076
14666TIP3    H165489   4.027   2.723  13.673 -0.4811  0.7307  1.2867
14666TIP3    H265490   3.986   2.703  13.529 -0.0496 -1.2825  1.4140
14667TIP3   OH265491   5.498   0.719  16.691  0.1423  0.2519 -0.6991
14667TIP3    H165492   5.547   0.671  16.624 -0.8969 -0.3408 -1.0595
14667TIP3    H265493   5.517   0.673  16.773 -0.2123 -0.3008 -0.9210
14668TIP3   OH265494   1.038   2.710  11.916  0.4641 -0.3165  0.1162
14668TIP3    H165495   1.113   2.667  11.875  0.9163 -2.6955  3.0732
14668TIP3    H265496   0.969   2.644  11.917 -1.2246  1.3209 -1.1399
14669TIP3   OH265497   6.429   5.492   4.793 -0.5538 -0.7073  0.1311
14669TIP3    H165498   6.384   5.492   4.877 -2.1001 -0.2788 -0.6550
14669TIP3    H265499   6.479   5.411   4.792 -3.4132 -2.6195 -0.0020
14670TIP3   OH265500   2.382   5.587  11.646  0.4934 -0.5583  0.0564
14670TIP3    H165501   2.420   5.674  11.634  1.4300 -0.6986  1.7017
14670TIP3    H265502   2.456   5.532  11.670 -0.6040 -0.9969  2.6881
14671TIP3   OH265503   0.520   4.572   1.403 -0.9217 -0.0448  0.4020
14671TIP3    H165504   0.528   4.667   1.412  1.6786 -0.2554  0.9059
14671TIP3    H265505   0.515   4.557   1.309  1.1933  0.4768  0.1733
14672TIP3   OH265506   5.504   1.734   2.902  0.3627  0.1518 -0.0797
14672TIP3    H165507   5.476   1.807   2.846  2.0869  0.6270 -0.3792
14672TIP3    H265508   5.464   1.753   2.987  1.0419  1.6350 -0.0656
14673TIP3   OH265509   6.217   3.151   0.603 -0.0973  0.1738  0.3664
14673TIP3    H165510   6.243   3.124   0.515 -1.4897 -0.6088  0.1610
14673TIP3    H265511   6.158   3.081   0.632  0.1317  0.5610  1.8176
14674TIP3   OH265512   0.407   4.295   0.357 -0.2541  0.0300  0.0172
14674TIP3    H165513   0.400   4.213   0.307 -1.5829  0.9184 -1.3578
14674TIP3    H265514   0.344   4.285   0.428 -0.2399 -0.2434 -0.0074
14675TIP3   OH265515   6.152   0.250   2.693  0.4519  0.0687 -0.2010
14675TIP3    H165516   6.129   0.166   2.655 -1.8155  0.3217  0.4621
14675TIP3    H265517   6.109   0.250   2.779  0.1527  2.0077 -0.3101
14676TIP3   OH265518   4.332   6.651   2.100 -0.2934 -0.2039  0.4248
14676TIP3    H165519   4.237   6.651   2.114  0.0232  0.2691  3.0303
14676TIP3    H265520   4.353   6.742   2.080 -0.3028 -0.1538  0.6376
14677TIP3   OH265521   3.905   4.272  11.267 -0.1505  0.1451 -0.3857
14677TIP3    H165522   3.913   4.227  11.183  1.0477 -0.0275 -0.1918
14677TIP3    H265523   3.992   4.264  11.307 -0.5085  0.8373  0.5587
14678TIP3   OH265524   4.352   0.855  17.175  0.1965 -0.3564 -0.2129
14678TIP3    H165525   4.432   0.908  17.169  0.0046 -0.2051 -2.4469
14678TIP3    H265526   4.340   0.821  17.086 -2.2091 -0.3823  0.0589
14679TIP3   OH265527   3.381   3.945  14.011  0.3128  0.8344  0.0299
14679TIP3    H165528   3.413   4.000  13.940  0.0083  0.0052 -0.7753
14679TIP3    H265529   3.404   3.856  13.985  1.0752  0.5839  1.4527
14680TIP3   OH265530   2.716   5.176  15.313  0.0691  0.0539  1.0580
14680TIP3    H165531   2.696   5.236  15.384 -0.3629 -1.0165  1.8741
14680TIP3    H265532   2.631   5.150  15.278 -0.0858 -3.0057  3.2677
14681TIP3   OH265533   1.502   5.543   5.106 -0.3458  0.4588 -0.5358
14681TIP3    H165534   1.570   5.543   5.174  1.4425  4.2663 -2.0480
14681TIP3    H265535   1.542   5.496   5.033 -1.1274 -1.0506 -0.0411
14682TIP3   OH265536   4.397   5.578  17.196  0.2966  0.0989 -1.0976
14682TIP3    H165537   4.475   5.537  17.234 -0.0363  0.2132 -0.2781
14682TIP3    H265538   4.392   5.664  17.238 -0.7926 -0.2713 -0.4543
14683TIP3   OH265539   2.208   0.279  17.191  0.4105 -0.2513 -0.5364
14683TIP3    H165540   2.301   0.261  17.206  0.5096 -0.1007 -0.9495
14683TIP3    H265541   2.190   0.243  17.104  0.8171  2.2984 -1.7635
14684TIP3   OH265542   2.675   1.062  17.391  0.8152 -0.3917  0.6237
14684TIP3    H165543   2.658   0.995  17.457  0.2479  1.6123  2.6577
14684TIP3    H265544   2.591   1.073  17.345  0.3660  0.1450  1.5344
14685TIP3   OH265545   5.345   1.356   1.694 -0.5618 -0.4848  0.3040
14685TIP3    H165546   5.350   1.429   1.632  0.6480 -1.0103 -0.2563
14685TIP3    H265547   5.291   1.389   1.766 -0.2405  0.8723 -0.0415
14686TIP3   OH265548   3.954   1.643  17.028  0.2233 -0.1111  0.4911
14686TIP3    H165549   3.868   1.616  16.997  0.7130  0.8130 -1.8800
14686TIP3    H265550   3.966   1.731  16.992  2.9150 -0.9333 -0.8924
14687TIP3   OH265551   3.804   5.548   0.178 -0.3282 -0.1294  0.0841
14687TIP3    H165552   3.775   5.463   0.147 -0.8274  0.0061  0.1790
14687TIP3    H265553   3.818   5.537   0.272  2.4482 -0.8997 -0.3276
14688TIP3   OH265554   4.026   5.130   6.579  0.0361 -0.2542 -0.2917
14688TIP3    H165555   4.069   5.123   6.665  0.8063 -0.6431 -0.6994
14688TIP3    H265556   3.933   5.132   6.600  0.2213  0.0516  0.5811
14689TIP3   OH265557   1.722   4.584   3.560  0.3418 -0.4803 -0.1380
14689TIP3    H165558   1.715   4.679   3.559 -0.1672 -0.5088  0.2116
14689TIP3    H265559   1.758   4.563   3.646 -0.5017 -0.6530  0.1862
14690TIP3   OH265560   0.136   2.455  11.815  0.2220 -0.2835 -0.3260
14690TIP3    H165561   0.044   2.443  11.838  0.0353  1.2010 -0.1911
14690TIP3    H265562   0.149   2.399  11.738 -0.7797 -0.5356 -0.3255
14691TIP3   OH265563   5.992   2.994  12.724  0.1014  0.0334 -0.2095
14691TIP3    H165564   5.918   3.055  12.731  1.0047  1.3108 -1.2065
14691TIP3    H265565   6.068   3.048  12.745  0.7165 -1.5433  2.0868
14692TIP3   OH265566   2.261   1.545  12.635  0.4983  0.0487 -0.3016
14692TIP3    H165567   2.167   1.559  12.622  0.4224 -1.6235 -2.1206
14692TIP3    H265568   2.298   1.553  12.547  1.4649 -2.8311 -0.2737
14693TIP3   OH265569   6.037   6.394  12.031 -0.4351  0.1534  0.1204
14693TIP3    H165570   6.065   6.327  12.093 -0.6876 -2.2429 -2.2163
14693TIP3    H265571   5.983   6.454  12.084  1.6283 -0.1359  2.7510
14694TIP3   OH265572   2.544   5.823  11.903  0.1558  0.2466 -0.4645
14694TIP3    H165573   2.601   5.806  11.978 -0.6862  1.1276  0.3983
14694TIP3    H265574   2.456   5.799  11.933  0.1693 -2.7035 -2.2962
14695TIP3   OH265575   4.711   6.295   4.701  0.0455  0.3666  0.2536
14695TIP3    H165576   4.721   6.326   4.610  0.5816  0.7397  0.4349
14695TIP3    H265577   4.617   6.302   4.718  0.0000  0.7378 -0.1254
14696TIP3   OH265578   5.810   6.200  16.102 -0.3342  0.3462  0.0876
14696TIP3    H165579   5.882   6.195  16.165 -2.0530  0.6450  2.1946
14696TIP3    H265580   5.810   6.114  16.059  1.6260  0.5658 -0.4271
14697TIP3   OH265581   2.410   1.078  13.528  0.5394 -0.0101 -0.0690
14697TIP3    H165582   2.497   1.106  13.498  1.5002  1.0053  3.1943
14697TIP3    H265583   2.373   1.032  13.453  3.2840  0.7724 -2.1072
14698TIP3   OH265584   0.006   6.286  11.641  0.3367  0.5644  0.4357
14698TIP3    H165585   0.085   6.241  11.612 -0.1191  0.1394 -0.1694
14698TIP3    H265586  -0.063   6.250  11.586  0.1445  2.8886 -0.9532
14699TIP3   OH265587   4.228   6.136  15.871  0.1679  0.3823  0.1420
14699TIP3    H165588   4.139   6.156  15.840 -0.6222 -0.5933  1.6674
14699TIP3    H265589   4.226   6.157  15.965  1.8401  1.2007  0.0351
14700TIP3   OH265590   1.831   5.217  16.950 -0.3459 -0.5256 -0.1888
14700TIP3    H165591   1.927   5.223  16.952 -0.4115  0.6338 -0.4616
14700TIP3    H265592   1.814   5.137  16.900  0.4602 -0.3450 -0.7714
14701TIP3   OH265593   5.588   3.178  13.377 -0.4842 -0.3505  0.3996
14701TIP3    H165594   5.581   3.135  13.462 -0.9648 -0.3697  0.3492
14701TIP3    H265595   5.513   3.238  13.373 -0.0328  0.2202  0.3097
14702TIP3   OH265596   1.439   4.988  14.970 -0.5313  0.8795 -0.5221
14702TIP3    H165597   1.512   5.023  15.021  0.1560 -0.7472 -0.3504
14702TIP3    H265598   1.419   4.903  15.010 -0.2933 -0.2407 -2.6232
14703TIP3   OH265599   2.631   1.325   0.324 -0.2007 -0.2011  0.1555
14703TIP3    H165600   2.614   1.417   0.344 -1.5335 -0.2090 -0.8239
14703TIP3    H265601   2.563   1.301   0.262 -0.1482 -1.9858  0.7359
14704TIP3   OH265602   0.437   4.427   0.682 -0.0244  0.0469 -0.2158
14704TIP3    H165603   0.350   4.401   0.651 -0.9593  1.8464  0.7511
14704TIP3    H265604   0.466   4.493   0.618 -0.3444  1.0354  0.6319
14705TIP3   OH265605   1.064   0.947  11.331  0.0224  0.3639  0.9201
14705TIP3    H165606   1.111   1.015  11.378  0.1484  0.4596  0.6598
14705TIP3    H265607   1.039   0.988  11.248 -2.1309  0.9331  1.7613
14706TIP3   OH265608   6.030   5.763   0.646  0.5362 -0.3553  0.9215
14706TIP3    H165609   6.016   5.678   0.605 -1.8266  0.0260  0.7872
14706TIP3    H265610   5.976   5.761   0.725  1.8356  0.4025  1.8689
14707TIP3   OH265611   0.603   2.450   0.431  0.1684 -0.1829  0.2527
14707TIP3    H165612   0.681   2.504   0.417 -0.7060  0.8223 -0.9287
14707TIP3    H265613   0.565   2.484   0.512  0.8512 -0.5782  0.7543
14708TIP3   OH265614   5.067   3.808  13.852 -0.2761 -0.2591 -0.2912
14708TIP3    H165615   5.090   3.828  13.942 -0.5896  2.3368 -0.7052
14708TIP3    H265616   5.079   3.891  13.805 -0.8755 -1.3286 -2.4693
14709TIP3   OH265617   0.845   5.845  17.487 -0.2783 -0.4749  0.1674
14709TIP3    H165618   0.799   5.765  17.463  0.8397 -1.5710  1.5369
14709TIP3    H265619   0.806   5.872  17.569 -0.6863  0.4407 -0.3148
14710TIP3   OH265620   5.192   2.430   3.258  0.1002 -0.2611 -0.4058
14710TIP3    H165621   5.234   2.500   3.308 -0.5148 -0.7121  0.7618
14710TIP3    H265622   5.109   2.469   3.229 -0.2383 -0.4976  0.2369
14711TIP3   OH265623   5.964   3.028   4.065  0.6717 -0.1257  0.2959
14711TIP3    H165624   6.030   3.029   3.995  0.4471 -1.4566  0.0343
14711TIP3    H265625   5.990   2.955   4.121  0.5272  0.5832  1.3089
14712TIP3   OH265626   1.716   0.869  15.048 -0.0710 -0.3653 -0.1506
14712TIP3    H165627   1.733   0.883  15.141  2.3616 -0.2623 -0.5557
14712TIP3    H265628   1.695   0.955  15.014  1.1983 -0.0190 -0.0850
14713TIP3   OH265629   4.183   1.083  17.047  0.1754  0.2874  0.4649
14713TIP3    H165630   4.217   1.002  17.008  1.9655  0.7670  0.9232
14713TIP3    H265631   4.219   1.083  17.136 -0.9662  0.9225  0.9438
14714TIP3   OH265632   2.059   3.403  12.335 -0.5245 -0.0611 -1.0883
14714TIP3    H165633   1.993   3.346  12.375 -0.3597 -0.5087 -1.4547
14714TIP3    H265634   2.071   3.368  12.247 -0.8386  0.8761 -1.5192
14715TIP3   OH265635   2.527   4.037  16.578  0.0059 -0.1025 -0.3087
14715TIP3    H165636   2.464   4.100  16.544  0.7934  0.2507 -1.1266
14715TIP3    H265637   2.490   4.010  16.662 -0.1239  1.7916  0.2859
14716TIP3   OH265638   1.184   5.226  14.497 -0.4713  0.6412  0.6687
14716TIP3    H165639   1.200   5.191  14.409 -1.6663 -1.6484  1.2968
14716TIP3    H265640   1.099   5.190  14.522  0.6313 -0.2765  3.4434
14717TIP3   OH265641   6.732   3.353   2.930 -0.6620 -0.0247 -0.0805
14717TIP3    H165642   6.699   3.329   3.017 -0.3870 -1.2515 -0.2946
14717TIP3    H265643   6.691   3.437   2.911 -0.7072  0.2686  1.2429
14718TIP3   OH265644   5.156   0.391  14.567  0.6218  0.4879 -0.3019
14718TIP3    H165645   5.105   0.431  14.497 -0.7632  0.7330  0.7827
14718TIP3    H265646   5.245   0.420  14.552  0.1862  1.3046 -1.4121
14719TIP3   OH265647   3.644   5.634   3.018 -0.2075 -0.4554  0.2080
14719TIP3    H165648   3.645   5.557   2.961 -3.9934 -0.5603  0.0004
14719TIP3    H265649   3.612   5.705   2.961  0.6065  0.6346  1.0673
14720TIP3   OH265650   5.181   5.700  16.577 -0.1921  0.5057 -0.1529
14720TIP3    H165651   5.171   5.608  16.600  1.2619  0.3132 -0.1646
14720TIP3    H265652   5.105   5.720  16.523 -1.3185 -0.2663  1.0573
14721TIP3   OH265653   5.511   1.196  15.047 -0.4884  0.3799 -0.6211
14721TIP3    H165654   5.539   1.171  14.959 -0.9402  1.0375 -0.9614
14721TIP3    H265655   5.505   1.291  15.044  0.3864  0.4841  0.4017
14722TIP3   OH265656   4.469   4.197   1.405 -0.1320  0.1189 -0.5386
14722TIP3    H165657   4.485   4.104   1.421 -0.5858 -0.1523 -1.5837
14722TIP3    H265658   4.379   4.201   1.373  0.7387  0.5387 -3.2188
14723TIP3   OH265659   4.678   5.583   4.164  0.0518 -0.1505 -0.1745
14723TIP3    H165660   4.731   5.504   4.153  0.4470 -0.4947  3.3153
14723TIP3    H265661   4.743   5.653   4.173 -0.1661 -0.0740  0.8501
14724TIP3   OH265662   2.283   0.114   1.812  0.2459  0.2289 -0.3838
14724TIP3    H165663   2.240   0.040   1.855 -0.3155 -0.0116 -1.3283
14724TIP3    H265664   2.219   0.145   1.747  1.1995  0.3420 -1.2959
14725TIP3   OH265665   4.099   0.647   4.534 -0.8446 -0.0189  0.3926
14725TIP3    H165666   4.022   0.693   4.569 -0.7643  0.0484  0.4797
14725TIP3    H265667   4.171   0.676   4.590 -0.0666  2.6360 -1.7923
14726TIP3   OH265668   3.032   4.321   3.022 -0.3172 -0.0615 -0.0461
14726TIP3    H165669   3.022   4.367   2.939  0.0178  1.9558  0.9849
14726TIP3    H265670   3.010   4.230   3.002  1.9140 -0.1329 -2.8722
14727TIP3   OH265671   4.489   0.412   6.640  0.1095  0.2206  0.2626
14727TIP3    H165672   4.445   0.396   6.557  1.6735 -2.0747 -0.2096
14727TIP3    H265673   4.441   0.359   6.704  1.1088 -0.9494  0.0709
14728TIP3   OH265674   6.524   1.960   5.218 -0.0369  0.2764 -0.3431
14728TIP3    H165675   6.585   2.013   5.168 -0.0770  0.4459 -0.2136
14728TIP3    H265676   6.450   2.018   5.235  0.2468  0.4264  0.4513
14729TIP3   OH265677   0.565   6.432   3.809 -0.7645 -0.5907  0.0127
14729TIP3    H165678   0.517   6.398   3.735 -2.3046  2.1107 -0.3698
14729TIP3    H265679   0.657   6.415   3.788 -1.2110 -0.6331 -2.1157
14730TIP3   OH265680   3.562   1.898  12.022 -0.3353 -0.1700  0.2535
14730TIP3    H165681   3.522   1.894  11.935  2.2745 -1.0304 -1.0053
14730TIP3    H265682   3.595   1.809  12.037  0.8357  0.4156  1.3110
14731TIP3   OH265683   2.078   4.394  12.667 -0.0071 -0.1234  1.0793
14731TIP3    H165684   2.044   4.305  12.674 -0.3861 -0.0994 -0.1031
14731TIP3    H265685   2.100   4.420  12.756  0.0052 -1.3601  1.4461
14732TIP3   OH265686   0.726   3.648  11.135  0.2273  0.1814  0.2549
14732TIP3    H165687   0.788   3.591  11.089  2.6602  0.9582  2.3050
14732TIP3    H265688   0.755   3.737  11.114 -1.3606  0.6180 -0.1667
14733TIP3   OH265689   1.052   3.908  13.251 -0.6995  0.4927  0.1514
14733TIP3    H165690   1.055   3.966  13.174 -0.7885 -0.4497 -0.5856
14733TIP3    H265691   1.038   3.821  13.214  2.2222 -0.4424  1.0283
14734TIP3   OH265692   4.761   0.191  16.582 -0.0317  0.1818 -0.0945
14734TIP3    H165693   4.819   0.259  16.618 -1.2252 -0.1257  2.6620
14734TIP3    H265694   4.787   0.111  16.628 -1.2023 -0.4002 -0.4184
14735TIP3   OH265695   4.899   4.274   5.122 -0.2641  0.7802 -0.2985
14735TIP3    H165696   4.818   4.271   5.173  0.0434  0.3946  0.1684
14735TIP3    H265697   4.961   4.220   5.171  0.3471  1.2529 -0.5358
14736TIP3   OH265698   2.749   1.043  11.441  0.2716  0.0519 -0.3542
14736TIP3    H165699   2.793   1.065  11.359 -0.0056  1.7504 -0.0936
14736TIP3    H265700   2.664   1.010  11.414  1.0594 -1.7024 -0.8036
14737TIP3   OH265701   5.439   1.332   3.426  0.2678 -0.2455 -0.4654
14737TIP3    H165702   5.449   1.407   3.485 -0.4259  0.7117 -1.5117
14737TIP3    H265703   5.521   1.329   3.377  0.8905 -1.1126  0.5892
14738TIP3   OH265704   1.603   4.545  10.870  0.1030 -0.2411 -0.5484
14738TIP3    H165705   1.672   4.594  10.826 -0.0601  0.2574 -0.2578
14738TIP3    H265706   1.629   4.453  10.862  1.2811 -0.0136  0.3738
14739TIP3   OH265707   2.414   6.174   4.345  0.5545  0.1037  0.2757
14739TIP3    H165708   2.464   6.181   4.263  0.3743 -0.4696  0.1119
14739TIP3    H265709   2.468   6.220   4.410 -0.0606  2.0183 -0.4788
14740TIP3   OH265710   0.109   0.166   1.784 -0.0062  0.0943  0.4170
14740TIP3    H165711   0.024   0.120   1.779  0.8446 -1.5605  0.3310
14740TIP3    H265712   0.174   0.096   1.774  1.3819  1.2659  0.9629
14741TIP3   OH265713   5.592   2.667   4.605  0.5747 -0.3879 -0.1864
14741TIP3    H165714   5.606   2.625   4.689  0.1724  0.6826  0.4322
14741TIP3    H265715   5.641   2.613   4.543  1.3749 -0.8556  0.8172
14742TIP3   OH265716   6.432   1.047  12.908  0.8736  0.0302  0.1718
14742TIP3    H165717   6.437   1.033  12.813 -2.3199  1.9819 -0.4356
14742TIP3    H265718   6.476   1.131  12.922 -2.6430  2.2140 -0.5258
14743TIP3   OH265719   6.431   4.836   3.772 -0.1630 -0.1482 -0.2455
14743TIP3    H165720   6.374   4.843   3.849 -0.1437 -0.0502 -0.2409
14743TIP3    H265721   6.417   4.746   3.741 -1.9862  0.5320 -1.5374
14744TIP3   OH265722   6.702   5.501   4.578 -0.0051  0.0302  0.7911
14744TIP3    H165723   6.755   5.432   4.539  0.2286 -0.7752  2.4559
14744TIP3    H265724   6.754   5.581   4.565 -0.3866 -0.0228 -1.3526
14745TIP3   OH265725   6.747   3.377   3.656 -0.3454  0.2480 -0.2906
14745TIP3    H165726   6.718   3.461   3.620 -2.0905 -0.2751 -0.2115
14745TIP3    H265727   6.726   3.382   3.749 -1.8048 -0.7900 -0.5425
14746TIP3   OH265728   3.884   0.486  12.394 -0.0348 -0.7186  0.1314
14746TIP3    H165729   3.844   0.440  12.321 -3.4212  0.6751  0.9294
14746TIP3    H265730   3.892   0.577  12.365  0.0823 -0.4537  0.9428
14747TIP3   OH265731   5.225   1.283  16.267  0.5775 -0.8951 -0.4237
14747TIP3    H165732   5.137   1.257  16.238 -0.1900 -0.4164  1.2932
14747TIP3    H265733   5.224   1.265  16.361  1.1934  2.0349  0.2319
14748TIP3   OH265734   3.343   6.380  14.064 -0.1233 -0.0403 -0.2490
14748TIP3    H165735   3.370   6.294  14.033  0.8971  0.6133 -1.2660
14748TIP3    H265736   3.349   6.374  14.160  1.2906 -0.6788 -0.3518
14749TIP3   OH265737   2.030   6.187   6.562  0.0586 -0.6890  0.2579
14749TIP3    H165738   2.064   6.101   6.538  0.8603 -0.7986  1.6650
14749TIP3    H265739   2.092   6.249   6.524  1.7629 -0.8815  2.4852
14750TIP3   OH265740   4.444   6.353   6.352  0.6299 -0.1447 -0.2014
14750TIP3    H165741   4.437   6.320   6.442 -1.7064  0.4336 -0.0841
14750TIP3    H265742   4.466   6.446   6.363  1.6300 -0.3679 -0.2907
14751TIP3   OH265743   0.165   3.016   6.018 -0.0213  0.2179  0.5298
14751TIP3    H165744   0.216   3.083   5.974 -0.9990 -0.0334 -1.0986
14751TIP3    H265745   0.099   3.064   6.068 -0.9213  0.5027 -0.8868
14752TIP3   OH265746   6.552   0.665   5.602 -0.0577 -0.3601 -0.6957
14752TIP3    H165747   6.570   0.702   5.688  0.9344 -0.8175 -0.6980
14752TIP3    H265748   6.463   0.696   5.581  0.4767  1.4749 -0.4245
14753TIP3   OH265749   4.754   5.448   4.499 -0.1196 -0.3162 -0.0948
14753TIP3    H165750   4.774   5.372   4.445  1.3503  1.0553 -1.6027
14753TIP3    H265751   4.817   5.443   4.571 -0.6106 -0.9643  0.3007
14754TIP3   OH265752   3.949   5.470  16.613 -0.9450  0.2074  0.4119
14754TIP3    H165753   3.877   5.462  16.550  1.1530  0.1465 -2.1981
14754TIP3    H265754   3.964   5.381  16.644 -0.3967 -0.2461 -1.0536
14755TIP3   OH265755   3.612   1.726  16.136  0.0873 -0.4289 -0.5040
14755TIP3    H165756   3.630   1.813  16.172  3.9101 -1.5145  0.6725
14755TIP3    H265757   3.666   1.721  16.057 -1.1455 -1.2950 -1.3249
14756TIP3   OH265758   0.742   3.186   2.524 -0.7984 -0.0453  0.3007
14756TIP3    H165759   0.797   3.169   2.448  1.0219  0.4599  1.4417
14756TIP3    H265760   0.714   3.100   2.554 -1.3136 -0.2605 -0.7416
14757TIP3   OH265761   0.312   6.126   3.413  0.0307 -0.1236  0.4887
14757TIP3    H165762   0.227   6.139   3.455 -0.1951  0.1581 -0.0559
14757TIP3    H265763   0.361   6.072   3.476 -0.4815 -0.1382  0.8850
14758TIP3   OH265764   2.419   3.403  16.623  0.0511 -0.0616 -0.4083
14758TIP3    H165765   2.492   3.405  16.561  0.5439  2.4061  0.1511
14758TIP3    H265766   2.344   3.432  16.572 -0.4684 -2.0092 -0.8274
14759TIP3   OH265767   6.362   2.387   4.711  0.4547 -0.1467  0.1262
14759TIP3    H165768   6.436   2.328   4.696  0.5579 -0.1581  0.6676
14759TIP3    H265769   6.392   2.448   4.778  0.6549  1.0977 -1.0484
14760TIP3   OH265770   4.972   3.045   1.640  0.6950 -0.1017  0.2078
14760TIP3    H165771   4.941   3.044   1.731 -1.0397  0.7010 -0.3162
14760TIP3    H265772   4.998   3.136   1.625  0.6822 -0.1617 -0.1756
14761TIP3   OH265773   3.031   0.217   2.585 -0.5042  0.1262 -0.1397
14761TIP3    H165774   3.016   0.288   2.647 -1.3138  0.4294 -0.6815
14761TIP3    H265775   2.946   0.199   2.547 -0.1551 -0.5853 -0.6060
14762TIP3   OH265776   4.199   3.374   1.018  0.1492 -0.0052 -0.0989
14762TIP3    H165777   4.105   3.392   1.013  0.3530  0.8815 -1.3924
14762TIP3    H265778   4.222   3.341   0.931  0.8139 -1.4925  0.6073
14763TIP3   OH265779   4.161   2.942  17.499 -0.0103  0.1365  0.2588
14763TIP3    H165780   4.160   2.931  17.404  1.0504 -0.7073  0.3158
14763TIP3    H265781   4.094   3.007  17.517 -2.6264 -2.0909 -0.7485
14764TIP3   OH265782   1.208   1.631   5.470  0.0569  0.3831  0.3767
14764TIP3    H165783   1.270   1.590   5.409 -0.3621  0.2172  0.0601
14764TIP3    H265784   1.228   1.592   5.555 -0.4406 -0.5965  0.0486
14765TIP3   OH265785   3.063   0.915  11.359 -0.3604 -0.3857 -0.3651
14765TIP3    H165786   3.051   0.859  11.282  2.5582 -1.8591  0.0870
14765TIP3    H265787   3.135   0.874  11.407 -0.9470  1.4276  2.3103
14766TIP3   OH265788   5.749   3.697  11.584 -0.6361  0.1334  0.3808
14766TIP3    H165789   5.822   3.753  11.560 -0.3134  0.3489  1.8154
14766TIP3    H265790   5.788   3.610  11.597 -0.6635  0.1965  0.9115
14767TIP3   OH265791   1.939   0.865   0.531  0.6881 -0.3809 -0.0177
14767TIP3    H165792   1.903   0.785   0.570  2.7044 -0.0713  2.8072
14767TIP3    H265793   1.887   0.936   0.567  0.0455 -0.2898 -1.0968
14768TIP3   OH265794   5.344   5.715   3.200 -0.3921  0.3407  0.4999
14768TIP3    H165795   5.324   5.753   3.286 -0.0945  2.7368 -0.4210
14768TIP3    H265796   5.314   5.780   3.137 -0.5208 -1.3194 -1.2445
14769TIP3   OH265797   5.612   0.771   3.531  0.3761 -0.2002 -0.5999
14769TIP3    H165798   5.675   0.742   3.466  0.6550  0.9661 -0.8725
14769TIP3    H265799   5.527   0.762   3.487  0.2841 -2.0050 -0.1460
14770TIP3   OH265800   5.557   2.578  15.609 -0.3675  1.2357  0.5453
14770TIP3    H165801   5.489   2.511  15.603  0.9018 -0.2705  2.2195
14770TIP3    H265802   5.537   2.638  15.536 -2.1329 -0.3676 -0.3868
14771TIP3   OH265803   0.911   0.260  12.495 -0.3123  0.3620  0.4952
14771TIP3    H165804   0.939   0.326  12.558 -0.5413  0.1284  0.8455
14771TIP3    H265805   0.833   0.221  12.534 -0.5349  0.3050  0.0046
14772TIP3   OH265806   4.108   2.754   1.292  0.3035 -0.0332  0.0936
14772TIP3    H165807   4.061   2.722   1.215  0.9590 -0.7721 -0.0120
14772TIP3    H265808   4.041   2.764   1.359 -0.1865  0.0876 -0.4090
14773TIP3   OH265809   5.041   4.781   1.322  0.2082  0.1647  0.3057
14773TIP3    H165810   4.947   4.796   1.321  0.4348  1.9125 -1.9843
14773TIP3    H265811   5.073   4.835   1.395 -0.2416  2.4962 -1.1171
14774TIP3   OH265812   2.431   1.133  14.929 -0.5852 -0.6539 -0.2712
14774TIP3    H165813   2.435   1.044  14.964  1.1986 -0.3177  0.4805
14774TIP3    H265814   2.345   1.165  14.957 -0.8310 -1.7788  0.3352
14775TIP3   OH265815   2.036   3.792   4.613 -0.2131  0.0118  0.3468
14775TIP3    H165816   2.121   3.794   4.567 -0.8751  1.5212 -0.9089
14775TIP3    H265817   2.059   3.802   4.705  1.0186 -0.1870  0.0832
14776TIP3   OH265818   0.075   2.799  15.766  0.0686 -0.5197  0.6497
14776TIP3    H165819   0.095   2.892  15.776  0.7122 -0.6794  0.9038
14776TIP3    H265820   0.047   2.771  15.853  0.7052 -0.7516  0.7869
14777TIP3   OH265821   6.405   2.611  15.228  0.3703  0.1545 -0.2804
14777TIP3    H165822   6.373   2.670  15.159  1.4750 -0.5138 -1.4122
14777TIP3    H265823   6.413   2.526  15.184  2.7127  0.0733  0.1759
14778TIP3   OH265824   5.408   5.119   3.419 -0.1211  0.7024  0.1273
14778TIP3    H165825   5.461   5.166   3.484 -0.0450  0.4406  0.2548
14778TIP3    H265826   5.471   5.093   3.352  0.1837 -0.8739  0.9816
14779TIP3   OH265827   4.022   2.958   5.759  0.0289 -0.5640  0.1576
14779TIP3    H165828   3.985   3.036   5.717  1.4750 -0.5292 -1.1259
14779TIP3    H265829   3.951   2.926   5.816 -1.9630 -0.4489 -2.0972
14780TIP3   OH265830   0.135   6.636   3.874  0.0823 -0.1570 -0.4481
14780TIP3    H165831   0.071   6.645   3.944 -1.4291  0.6468 -1.8649
14780TIP3    H265832   0.176   6.551   3.890 -0.1908  0.0137  1.3964
14781TIP3   OH265833   0.714   5.034   5.744 -0.3412  0.0804 -0.5689
14781TIP3    H165834   0.650   5.105   5.749  0.6583  1.0209 -0.4491
14781TIP3    H265835   0.796   5.075   5.774  0.0884 -1.3553  0.2985
14782TIP3   OH265836   4.077   3.228  13.725 -0.0655  0.0864  0.0851
14782TIP3    H165837   4.077   3.146  13.674 -1.6145 -0.1707  0.4501
14782TIP3    H265838   4.150   3.218  13.786 -0.6034 -1.3123  0.5378
14783TIP3   OH265839   2.708   2.293  16.257  0.5222  0.2952  0.7768
14783TIP3    H165840   2.645   2.294  16.329 -0.7169 -3.5792 -0.0060
14783TIP3    H265841   2.697   2.377  16.214 -3.1252  0.3613  1.5591
14784TIP3   OH265842   6.653   1.228  13.418  0.0335 -0.0688  0.2610
14784TIP3    H165843   6.644   1.138  13.387 -1.6806 -0.1246  0.7768
14784TIP3    H265844   6.686   1.219  13.507 -0.2280 -0.1986  0.3468
14785TIP3   OH265845   2.054   5.890   4.222  0.1730  0.1188 -0.2663
14785TIP3    H165846   1.973   5.938   4.206 -0.6006 -1.1264 -0.2678
14785TIP3    H265847   2.086   5.922   4.306 -0.1280  0.8818 -0.4397
14786TIP3   OH265848   3.353   4.085   2.381  0.1316 -0.3323 -0.2870
14786TIP3    H165849   3.297   4.011   2.404 -0.8698 -0.0563 -1.7157
14786TIP3    H265850   3.301   4.137   2.320  1.5701  0.4823 -0.8771
14787TIP3   OH265851   6.426   0.804   4.977  0.1298 -0.2659 -0.0876
14787TIP3    H165852   6.332   0.815   4.966  0.2280 -0.0872 -0.7814
14787TIP3    H265853   6.445   0.845   5.062 -0.2512  0.6748 -0.4462
14788TIP3   OH265854   1.236   3.470   1.845  0.5327 -0.2709  0.2709
14788TIP3    H165855   1.152   3.499   1.810  0.1968 -0.9147  0.5404
14788TIP3    H265856   1.268   3.544   1.896  0.7626  0.4803 -0.9099
14789TIP3   OH265857   4.868   5.014   0.537  0.6297 -0.4537 -0.2299
14789TIP3    H165858   4.946   5.067   0.523 -0.2102  1.6708  2.3118
14789TIP3    H265859   4.801   5.053   0.482  0.3044  0.5153  0.8088
14790TIP3   OH265860   2.749   4.953  17.414  0.2204 -0.4825  0.0424
14790TIP3    H165861   2.811   5.023  17.437  1.9387 -1.5465 -1.0693
14790TIP3    H265862   2.700   4.937  17.495  0.0775  1.6685  0.4495
14791TIP3   OH265863   0.465   3.327   5.794 -0.3212 -0.6990  0.0620
14791TIP3    H165864   0.522   3.252   5.813  0.1727 -0.3318  0.0380
14791TIP3    H265865   0.524   3.392   5.756 -0.7666 -0.3269  0.0154
14792TIP3   OH265866   2.543   6.139  17.337 -0.0110 -0.4965 -0.5728
14792TIP3    H165867   2.589   6.167  17.258 -0.6064  0.0126 -0.7480
14792TIP3    H265868   2.451   6.157  17.318 -0.0877  0.3593  0.5319
14793TIP3   OH265869   1.895   2.681  10.623 -0.7693  0.1173 -0.0119
14793TIP3    H165870   1.983   2.685  10.586 -1.1878 -0.4864 -1.1388
14793TIP3    H265871   1.879   2.587  10.635 -1.4138  0.1934 -0.2425
14794TIP3   OH265872   4.414   6.476  12.230  0.4769 -0.1299 -0.2791
14794TIP3    H165873   4.342   6.416  12.211 -0.9129  0.6239  2.1492
14794TIP3    H265874   4.484   6.420  12.265 -1.1026 -0.3643  2.7420
14795TIP3   OH265875   0.283   2.522   3.630  0.2019  0.0598  0.6246
14795TIP3    H165876   0.262   2.429   3.638  0.4903 -0.1842 -1.0591
14795TIP3    H265877   0.278   2.539   3.536 -0.3874  1.8861  0.9550
14796TIP3   OH265878   6.657   4.504  12.202  0.1432 -0.4657  0.0408
14796TIP3    H165879   6.619   4.586  12.172 -0.2334  0.0533  1.8256
14796TIP3    H265880   6.713   4.476  12.129  2.5678  2.8448  0.4174
14797TIP3   OH265881   3.363   2.559  14.206  0.0187 -0.4195  0.3916
14797TIP3    H165882   3.357   2.464  14.218  0.0866 -0.3429  1.0770
14797TIP3    H265883   3.281   2.593  14.243  0.5422 -0.1188  1.3129
14798TIP3   OH265884   2.126   2.178   3.318  0.3842 -0.0925  0.1409
14798TIP3    H165885   2.171   2.094   3.317  4.1510  1.7543 -0.1839
14798TIP3    H265886   2.081   2.183   3.233  1.7561 -0.9642 -0.6606
14799TIP3   OH265887   1.609   2.157  14.447  0.0423  0.0627  0.5542
14799TIP3    H165888   1.523   2.166  14.408 -0.1513 -0.6993  0.7859
14799TIP3    H265889   1.670   2.188  14.379 -0.3821  0.2369  0.2511
14800TIP3   OH265890   1.530   1.466  13.908  0.1197  0.3201  0.0627
14800TIP3    H165891   1.538   1.547  13.858 -0.4072  0.4209  0.1372
14800TIP3    H265892   1.561   1.488  13.995 -0.7896  0.6668  0.3082
14801TIP3   OH265893   5.352   2.460   5.691  1.2173  0.1676  0.4291
14801TIP3    H165894   5.257   2.455   5.676  1.2751  0.8141 -0.2229
14801TIP3    H265895   5.368   2.401   5.764  0.4849 -0.8631 -0.2289
14802TIP3   OH265896   0.087   6.372   4.268  0.0632  0.1567 -0.5688
14802TIP3    H165897   0.085   6.339   4.358  2.9588 -1.2937 -0.9308
14802TIP3    H265898   0.131   6.457   4.275  0.1979  0.0907 -0.6339
14803TIP3   OH265899   5.017   4.664   0.233  0.2127  0.8066 -0.1055
14803TIP3    H165900   5.085   4.645   0.298 -0.1086  1.8928  0.5708
14803TIP3    H265901   4.943   4.697   0.284 -1.5359 -1.9955 -0.6342
14804TIP3   OH265902   4.750   2.806   2.072  0.0490  0.8468  0.0106
14804TIP3    H165903   4.660   2.797   2.041  0.5436  2.0324 -1.9390
14804TIP3    H265904   4.785   2.717   2.070 -1.7732 -0.1395  3.4439
14805TIP3   OH265905   5.619   4.043   3.125 -0.4408  0.1957 -0.1504
14805TIP3    H165906   5.574   3.962   3.101 -0.3747  0.0776  0.1225
14805TIP3    H265907   5.563   4.113   3.090  0.0459  0.0200 -1.3438
14806TIP3   OH265908   5.626   0.609  16.465  0.2152 -0.0649  0.0735
14806TIP3    H165909   5.642   0.597  16.371 -0.3122  0.6349 -0.1178
14806TIP3    H265910   5.582   0.528  16.492  0.0345 -0.1183 -0.3682
14807TIP3   OH265911   2.611   0.586  12.383  0.1571 -0.2671 -0.1363
14807TIP3    H165912   2.584   0.600  12.292  0.6545  0.3975 -0.1844
14807TIP3    H265913   2.684   0.646  12.397  2.6999 -3.0110 -0.4916
14808TIP3   OH265914   5.979   3.988  17.321 -0.3299  0.2034 -0.3844
14808TIP3    H165915   5.941   4.067  17.283 -1.2505  0.3029  0.6778
14808TIP3    H265916   5.904   3.928  17.331 -0.1549  0.2339  1.3296
14809TIP3   OH265917   5.960   6.713  12.177 -0.6534 -0.2786  0.4222
14809TIP3    H165918   5.996   6.800  12.194  1.0574 -1.1891  1.8246
14809TIP3    H265919   5.969   6.666  12.261 -0.5733 -2.1133 -0.5514
14810TIP3   OH265920   3.286   6.324  14.377  0.8154 -0.1879 -0.3720
14810TIP3    H165921   3.341   6.251  14.348 -0.6599 -0.6539 -2.1392
14810TIP3    H265922   3.205   6.316  14.327 -0.7169  0.7758  1.7767
14811TIP3   OH265923   4.799   0.269   4.386  0.4705 -0.0519 -0.4615
14811TIP3    H165924   4.786   0.286   4.293 -1.1249 -1.4875 -0.5337
14811TIP3    H265925   4.805   0.174   4.393  3.9935  0.0870  0.5400
14812TIP3   OH265926   3.385   4.184  15.111  0.1304 -0.0132 -0.0384
14812TIP3    H165927   3.384   4.240  15.034  0.9347  0.0243 -0.0337
14812TIP3    H265928   3.477   4.160  15.121 -0.2581 -1.7424 -0.3416
14813TIP3   OH265929   6.359   2.851  17.010 -0.2751  0.1258 -0.0412
14813TIP3    H165930   6.290   2.786  17.027  0.4365 -1.0656 -1.4983
14813TIP3    H265931   6.432   2.823  17.066  0.1812 -0.6345 -0.9766
14814TIP3   OH265932   3.241   0.762  17.161  0.2830 -0.3498 -0.5332
14814TIP3    H165933   3.245   0.808  17.077  1.0208 -1.1338 -0.9504
14814TIP3    H265934   3.148   0.751  17.179  0.0658  1.4451 -0.3200
14815TIP3   OH265935   2.425   5.838  17.214  0.0743  0.2909 -0.0768
14815TIP3    H165936   2.491   5.871  17.153  0.7210 -1.8913 -0.6778
14815TIP3    H265937   2.474   5.822  17.295 -0.1961  0.6496  0.1604
14816TIP3   OH265938   0.218   6.516  14.801  0.1088 -0.6524 -0.8646
14816TIP3    H165939   0.213   6.431  14.758 -1.4566 -1.0502  0.0156
14816TIP3    H265940   0.179   6.502  14.887  2.1408  0.3764  0.2916
14817TIP3   OH265941   5.023   1.943  16.193  0.5061 -0.0416  0.1592
14817TIP3    H165942   5.090   1.997  16.234 -0.3326  0.4725  0.8734
14817TIP3    H265943   5.019   1.864  16.246 -1.1143  0.9405  1.6155
14818TIP3   OH265944   5.863   4.606  11.952 -0.1344 -0.2702 -0.5080
14818TIP3    H165945   5.885   4.688  11.997 -2.2061  0.1958 -0.2173
14818TIP3    H265946   5.860   4.540  12.021  0.2433 -0.3268 -0.5425
14819TIP3   OH265947   5.797   6.195   1.787 -0.3213  0.1146 -0.2308
14819TIP3    H165948   5.761   6.238   1.710 -2.6706  0.7315  1.0988
14819TIP3    H265949   5.798   6.263   1.854  0.0514 -0.8294  0.7510
14820TIP3   OH265950   6.133   2.410   5.932  0.4766 -0.5919  0.0600
14820TIP3    H165951   6.050   2.457   5.922  0.9485 -0.0202 -1.4700
14820TIP3    H265952   6.175   2.450   6.009  0.2134  0.4966 -0.3477
14821TIP3   OH265953   3.545   2.534  14.739 -0.1745 -0.7898  0.1646
14821TIP3    H165954   3.638   2.513  14.747  0.0563 -0.1142 -0.6340
14821TIP3    H265955   3.522   2.510  14.650 -0.3675  0.4706 -0.1523
14822TIP3   OH265956   3.270   1.320  13.936 -0.2038  0.4116  0.2555
14822TIP3    H165957   3.315   1.353  14.014 -0.5102  2.8245 -0.5078
14822TIP3    H265958   3.331   1.337  13.864 -0.4124 -0.7133 -0.2121
14823TIP3   OH265959   5.204   1.420  15.436  0.5457  0.2344  0.1169
14823TIP3    H165960   5.201   1.441  15.530  1.5904 -2.7855  0.9643
14823TIP3    H265961   5.297   1.428  15.413  0.6526 -1.1372 -0.0246
14824TIP3   OH265962   4.435   4.724  16.375 -0.3333  0.4629 -0.0763
14824TIP3    H165963   4.522   4.714  16.414 -0.6722 -0.0435  0.5699
14824TIP3    H265964   4.376   4.735  16.450 -1.0822 -1.1346 -0.3703
14825TIP3   OH265965   0.862   0.519  17.103 -0.5907 -0.2052 -0.0156
14825TIP3    H165966   0.956   0.534  17.114 -0.9538  2.2570  0.2320
14825TIP3    H265967   0.852   0.424  17.111  1.5430 -0.3376  2.6724
14826TIP3   OH265968   4.771   5.367   0.613  0.1277 -0.0315  0.0372
14826TIP3    H165969   4.834   5.416   0.560 -1.5211  1.2077 -0.9214
14826TIP3    H265970   4.716   5.322   0.549  0.6378 -1.9222  0.8734
14827TIP3   OH265971   0.327   6.375   4.661 -0.7858  0.5409 -0.3983
14827TIP3    H165972   0.364   6.426   4.589  0.8016  1.8056  1.2301
14827TIP3    H265973   0.282   6.439   4.715 -1.4480 -0.3025  0.0792
14828TIP3   OH265974   2.205   1.804  11.603 -0.1737  0.2433 -0.4267
14828TIP3    H165975   2.260   1.864  11.552  0.0822  0.0062 -0.4341
14828TIP3    H265976   2.183   1.733  11.543 -1.3200  0.8268 -0.7196
14829TIP3   OH265977   1.432   3.629  11.207 -0.2940  0.0006 -0.6286
14829TIP3    H165978   1.388   3.549  11.237  0.5726 -0.3043 -0.1296
14829TIP3    H265979   1.400   3.641  11.117 -1.8825  0.1704 -0.0627
14830TIP3   OH265980   6.448   5.848   0.291  0.2162 -0.8557 -0.3600
14830TIP3    H165981   6.428   5.755   0.307  0.9971 -0.9749 -0.0207
14830TIP3    H265982   6.402   5.868   0.210  0.6260 -1.7474 -0.8350
14831TIP3   OH265983   1.277   4.828  10.564 -0.2077  0.1647 -0.2892
14831TIP3    H165984   1.199   4.825  10.508  1.0438  1.3971 -2.2068
14831TIP3    H265985   1.321   4.910  10.540 -0.1843  1.4188  3.4173
14832TIP3   OH265986   6.170   1.841   2.344 -0.2103 -0.2966 -0.0280
14832TIP3    H165987   6.248   1.890   2.369  0.3397 -1.1495 -0.0519
14832TIP3    H265988   6.103   1.909   2.330  0.6184  0.4749 -0.3874
14833TIP3   OH265989   0.958   3.115  16.798 -0.0268 -1.1083 -0.6339
14833TIP3    H165990   0.872   3.079  16.778 -0.1152 -2.3476  1.7271
14833TIP3    H265991   1.010   3.097  16.719 -1.6074 -1.2993 -1.6681
14834TIP3   OH265992   5.637   1.222  10.953 -0.2281  0.0859  0.1336
14834TIP3    H165993   5.711   1.228  10.893 -0.6167  1.9798 -0.1952
14834TIP3    H265994   5.581   1.154  10.915  1.4208 -1.6008  0.5519
14835TIP3   OH265995   3.546   4.509   2.749  0.2131  0.3138 -0.5095
14835TIP3    H165996   3.463   4.522   2.794  0.5100  1.7307 -0.3027
14835TIP3    H265997   3.612   4.518   2.817  0.5773  0.2455 -0.8477
14836TIP3   OH265998   5.444   2.234  12.051  0.7931  0.0218  0.3697
14836TIP3    H165999   5.369   2.257  11.997  0.9155  0.0071  0.1917
14836TIP3    H266000   5.479   2.318  12.081  1.0293  0.0511  0.0096
14837TIP3   OH266001   4.694   2.100   4.502 -0.8967  0.2943 -0.2315
14837TIP3    H166002   4.722   2.039   4.570 -3.5779 -0.8133  0.0079
14837TIP3    H266003   4.772   2.116   4.450  0.4878 -1.3136  1.2321
14838TIP3   OH266004   5.494   0.271   1.739  0.3504  0.2703 -0.3371
14838TIP3    H166005   5.558   0.255   1.671  2.0825 -0.2281  1.3286
14838TIP3    H266006   5.427   0.326   1.697  1.8434  0.8049 -2.1283
14839TIP3   OH266007   1.215   3.233  13.416 -0.0323 -0.6757 -0.3088
14839TIP3    H166008   1.139   3.180  13.394 -0.8527 -0.1926  1.2633
14839TIP3    H266009   1.266   3.236  13.335 -1.0162 -2.0876 -1.0148
14840TIP3   OH266010   1.379   2.932  12.420  0.3329 -0.1548 -0.2074
14840TIP3    H166011   1.353   2.840  12.432  0.5644 -0.1591  0.2814
14840TIP3    H266012   1.353   2.975  12.502  0.3289  0.1921 -0.3896
14841TIP3   OH266013   5.610   6.732  16.981  0.9343  0.1858  0.3081
14841TIP3    H166014   5.618   6.827  16.989 -0.7459  0.2707  1.7566
14841TIP3    H266015   5.516   6.718  16.966  1.1486 -1.2575  0.2029
14842TIP3   OH266016   6.351   3.446  16.481  0.1732 -0.3756 -0.1532
14842TIP3    H166017   6.358   3.539  16.502  0.2633 -0.4790  0.2808
14842TIP3    H266018   6.442   3.417  16.471  0.1544 -0.4737 -0.0373
14843TIP3   OH266019   6.587   5.018   4.105 -0.3025  0.5027 -0.2527
14843TIP3    H166020   6.597   5.105   4.067  0.9114  0.2708 -0.5249
14843TIP3    H266021   6.604   4.957   4.033 -0.2881  0.0474  0.1254
14844TIP3   OH266022   0.644   5.244   4.607  0.1549 -0.6001 -0.2702
14844TIP3    H166023   0.649   5.155   4.641 -0.1166 -1.4027 -2.1813
14844TIP3    H266024   0.601   5.234   4.521 -2.6001  1.7009  0.6768
14845TIP3   OH266025   4.527   3.026  13.049  0.0073 -0.4063  0.3411
14845TIP3    H166026   4.538   2.996  13.139  0.2030  0.2550  0.5441
14845TIP3    H266027   4.442   3.069  13.048 -0.8778 -2.0798 -0.2731
14846TIP3   OH266028   5.191   2.796  11.891 -0.0457 -0.0771 -0.1574
14846TIP3    H166029   5.104   2.819  11.924  0.1689 -0.0073  0.3798
14846TIP3    H266030   5.175   2.745  11.813 -0.5694  0.1166 -0.1780
14847TIP3   OH266031   6.216   3.924  15.607 -0.1055 -0.0153 -0.1984
14847TIP3    H166032   6.213   3.830  15.588  0.5752 -0.5407  1.9373
14847TIP3    H266033   6.266   3.962  15.535 -0.4163 -1.2655 -1.1138
14848TIP3   OH266034   1.475   0.464  12.675  0.6428 -0.1612  0.1332
14848TIP3    H166035   1.406   0.481  12.738  1.1652 -1.6876  1.1845
14848TIP3    H266036   1.554   0.500  12.715  0.6638  0.5795 -0.5488
14849TIP3   OH266037   4.569   2.992  13.679 -0.5016  0.2223 -0.0457
14849TIP3    H166038   4.602   3.052  13.746 -1.1229  1.7338 -1.0447
14849TIP3    H266039   4.540   2.915  13.728  0.6741  0.5534  1.2349
14850TIP3   OH266040   3.003   4.175   5.802 -0.1676  0.1018 -0.1890
14850TIP3    H166041   2.969   4.150   5.888  2.1931 -0.5710  0.6414
14850TIP3    H266042   2.951   4.251   5.776 -1.1655  0.1128  1.6773
14851TIP3   OH266043   3.720   5.276   2.359 -0.2366 -0.3479 -0.1609
14851TIP3    H166044   3.669   5.196   2.351 -0.8488 -0.0005  0.2044
14851TIP3    H266045   3.662   5.346   2.327 -1.0808  0.4388  2.7364
14852TIP3   OH266046   3.140   4.978   3.056  0.1806 -0.3398  0.4527
14852TIP3    H166047   3.131   4.916   3.128 -0.2732 -1.4060 -0.4952
14852TIP3    H266048   3.057   5.026   3.055  0.2392 -0.2342  0.7242
14853TIP3   OH266049   4.789   4.912   4.245 -0.0562  0.3078 -0.2781
14853TIP3    H166050   4.753   4.985   4.295  3.4166  1.5788  0.6235
14853TIP3    H266051   4.754   4.834   4.288 -2.2106  1.3650  0.0246
14854TIP3   OH266052   1.233   3.911  13.486 -0.6122 -0.3146  0.2543
14854TIP3    H166053   1.159   3.896  13.428 -1.3473 -0.6155  1.2436
14854TIP3    H266054   1.310   3.897  13.431 -1.2839 -0.3879 -0.6875
14855TIP3   OH266055   6.665   1.241   6.130 -0.2554  0.1755 -0.1557
14855TIP3    H166056   6.752   1.212   6.101 -0.0230 -1.2802  1.7915
14855TIP3    H266057   6.682   1.286   6.213 -0.7243  5.2313 -2.3955
14856TIP3   OH266058   4.995   0.743  14.401 -0.2242  0.2414  0.2018
14856TIP3    H166059   5.044   0.693  14.336  1.4965  2.4922 -0.3463
14856TIP3    H266060   5.053   0.746  14.477 -1.9997 -1.9251  1.7788
14857TIP3   OH266061   0.284   2.705  15.320 -0.1935 -0.0743 -0.6207
14857TIP3    H166062   0.315   2.786  15.279  0.2755 -0.4199 -0.9667
14857TIP3    H266063   0.302   2.637  15.255 -3.7445 -0.0560 -1.8375
14858TIP3   OH266064   5.604   1.237   4.015  0.2407 -0.1444 -0.3656
14858TIP3    H166065   5.682   1.273   4.057  0.1222  1.0239 -1.1019
14858TIP3    H266066   5.630   1.224   3.924 -1.2107  3.0277 -1.3575
14859TIP3   OH266067   0.562   3.322   0.458 -0.4885 -0.2576  0.7268
14859TIP3    H166068   0.507   3.338   0.382  2.0585  0.8518 -1.0292
14859TIP3    H266069   0.540   3.233   0.486 -1.4885 -0.7152 -1.3206
14860TIP3   OH266070   0.131   4.976   6.644  0.0576 -0.2975  0.0755
14860TIP3    H166071   0.055   4.920   6.632 -0.6932  0.6394  0.3510
14860TIP3    H266072   0.097   5.066   6.640  1.6873  0.4024 -4.2863
14861TIP3   OH266073   5.666   6.542  14.703 -0.0405  0.4437  0.2079
14861TIP3    H166074   5.744   6.525  14.757  0.1927 -0.1052 -0.3011
14861TIP3    H266075   5.678   6.488  14.625 -0.3276  1.3082 -0.4499
14862TIP3   OH266076   4.659   3.587  12.703  0.5631 -0.0068  0.1090
14862TIP3    H166077   4.664   3.499  12.666  1.2547 -0.1915  0.6238
14862TIP3    H266078   4.687   3.644  12.632  1.1023 -0.2903  0.0870
14863TIP3   OH266079   6.595   0.236  12.428 -0.1417  0.5397 -0.1478
14863TIP3    H166080   6.542   0.281  12.494 -0.7751 -0.4749  0.0634
14863TIP3    H266081   6.590   0.292  12.351  0.3420  1.5822  0.5610
14864TIP3   OH266082   1.437   6.267   4.149 -0.0468  0.7476 -0.7736
14864TIP3    H166083   1.401   6.346   4.108 -1.2335  0.6046 -0.0647
14864TIP3    H266084   1.528   6.263   4.119 -0.0889  2.1553 -1.1498
14865TIP3   OH266085   1.974   2.274  12.831  0.0705  0.4629 -0.2471
14865TIP3    H166086   1.921   2.264  12.752 -1.0626  1.7126  0.3040
14865TIP3    H266087   2.053   2.318  12.801  1.1158 -1.8921 -1.1721
14866TIP3   OH266088   3.661   4.261   1.742  0.8318 -0.5342 -0.1883
14866TIP3    H166089   3.646   4.308   1.660 -0.9393  1.3558  1.0797
14866TIP3    H266090   3.693   4.329   1.802  1.0979 -1.6258  0.9369
14867TIP3   OH266091   6.017   0.030  10.578  0.1128 -0.2893  0.0397
14867TIP3    H166092   5.967   0.097  10.532  1.8449  1.1580  0.1405
14867TIP3    H266093   5.952  -0.017  10.630 -1.0726  1.9333  0.7010
14868TIP3   OH266094   1.212   2.083   2.718  0.4610  0.0473  0.3048
14868TIP3    H166095   1.159   2.038   2.652  1.5980  0.2619 -0.7916
14868TIP3    H266096   1.180   2.173   2.717  2.3820  0.7870 -2.1122
14869TIP3   OH266097   5.067   4.239   2.703 -0.3290  0.2160  0.1559
14869TIP3    H166098   5.155   4.272   2.684  0.5333 -1.1909  1.5005
14869TIP3    H266099   5.069   4.147   2.675 -1.2404  0.0399  0.6208
14870TIP3   OH266100   4.212   3.838   4.225  0.2338  0.0319  0.0747
14870TIP3    H166101   4.139   3.803   4.174 -0.6566  0.0489  1.3068
14870TIP3    H266102   4.213   3.786   4.305  1.3637  0.2659  0.2289
14871TIP3   OH266103   4.570   0.392  12.308 -0.0216 -0.1099 -0.0877
14871TIP3    H166104   4.573   0.445  12.388  1.8480  0.7680 -0.6727
14871TIP3    H266105   4.632   0.321  12.324 -0.4084 -0.5199 -0.3827
14872TIP3   OH266106   0.846   2.041   6.490  0.2736 -0.0096  0.1845
14872TIP3    H166107   0.813   1.986   6.560  0.2713  2.3612  2.1850
14872TIP3    H266108   0.921   2.087   6.528 -0.1903  1.9399 -1.0596
14873TIP3   OH266109   6.175   5.569   0.343  0.2982  0.2266  0.2169
14873TIP3    H166110   6.188   5.480   0.310 -0.9335  0.4907 -1.1334
14873TIP3    H266111   6.221   5.625   0.280 -2.5033  0.7757 -1.5718
14874TIP3   OH266112   5.002   2.742  17.224  0.0856  0.4309  0.0084
14874TIP3    H166113   4.934   2.776  17.282 -0.4224  0.3439 -0.5188
14874TIP3    H266114   5.083   2.780  17.256  0.1755 -1.4569  2.2679
14875TIP3   OH266115   5.641   0.876   1.534  0.0113  0.0247  0.4819
14875TIP3    H166116   5.551   0.846   1.521  0.0159 -0.0075  0.5279
14875TIP3    H266117   5.692   0.796   1.545  0.2615 -0.0372 -0.8941
14876TIP3   OH266118   3.880   0.300   0.735  0.2101  0.3619 -0.1348
14876TIP3    H166119   3.879   0.258   0.649  0.4138 -1.3464  0.6656
14876TIP3    H266120   3.875   0.394   0.715 -3.7859  0.0023 -1.9019
14877TIP3   OH266121   3.607   5.721  12.273 -0.2177  0.1938  0.0406
14877TIP3    H166122   3.547   5.663  12.227 -0.0418 -0.7423  0.9501
14877TIP3    H266123   3.552   5.764  12.339  0.0226 -0.3759  0.6205
14878TIP3   OH266124   5.123   1.543   5.499  0.7195 -0.0565  0.0787
14878TIP3    H166125   5.031   1.528   5.478  0.4598  0.0019  1.1281
14878TIP3    H266126   5.140   1.485   5.574  1.2206  0.7511  0.6089
14879TIP3   OH266127   5.005   3.491   3.098  0.7459  0.0412  0.4657
14879TIP3    H166128   4.980   3.553   3.030  2.1924  0.8069  0.5828
14879TIP3    H266129   5.043   3.417   3.050 -0.1467 -0.3597  0.3649
14880TIP3   OH266130   4.247   4.288   2.935  0.0782 -0.6480  0.0959
14880TIP3    H166131   4.201   4.211   2.901  0.9520 -0.8449 -0.6740
14880TIP3    H266132   4.264   4.342   2.858  0.1949 -0.0675  0.5209
14881TIP3   OH266133   3.093   2.127  11.047 -0.8470 -0.4239  0.6028
14881TIP3    H166134   3.162   2.075  11.089 -0.2392  0.1913  0.3783
14881TIP3    H266135   3.014   2.074  11.057 -0.5612 -0.6481  1.8230
14882TIP3   OH266136   0.054   4.324  13.445 -0.5093  0.1448  0.5097
14882TIP3    H166137   0.090   4.283  13.366  2.1331  0.3319  1.4816
14882TIP3    H266138   0.043   4.416  13.422  0.4386  0.2361  0.3636
14883TIP3   OH266139   6.385   3.540  14.470  0.1214  0.1145  0.2058
14883TIP3    H166140   6.476   3.561  14.492  0.1206 -0.9177  1.2821
14883TIP3    H266141   6.373   3.450  14.500 -1.2701  0.2456  0.1169
14884TIP3   OH266142   0.390   5.833  16.951  0.3535  0.1711 -0.4288
14884TIP3    H166143   0.395   5.745  16.988  0.3824 -0.2901 -1.4821
14884TIP3    H266144   0.339   5.883  17.015 -0.1033 -0.7465 -0.0572
14885TIP3   OH266145   6.499   5.948  14.091  0.4420 -0.1915  0.4680
14885TIP3    H166146   6.433   5.962  14.159  0.8112 -1.4135  1.1183
14885TIP3    H266147   6.555   5.878  14.126  1.1208 -0.2932 -0.7531
14886TIP3   OH266148   2.664   2.479  13.344  0.1212 -0.2254  0.4455
14886TIP3    H166149   2.647   2.485  13.250 -1.0886  0.3995  0.6768
14886TIP3    H266150   2.713   2.558  13.364 -0.5653  0.2006  0.5034
14887TIP3   OH266151   1.879   6.091  12.106  0.0638 -0.4491  0.2023
14887TIP3    H166152   1.888   6.094  12.011 -1.6841 -0.8600 -0.0150
14887TIP3    H266153   1.885   6.182  12.134  1.0946 -0.3732 -0.2269
14888TIP3   OH266154   1.170   0.304   4.825  0.1505  0.2782  0.1702
14888TIP3    H166155   1.212   0.329   4.908  0.6579  0.5198 -0.1551
14888TIP3    H266156   1.077   0.314   4.843  0.2930  1.5084  0.3587
14889TIP3   OH266157   6.596   3.346  16.403  0.6154 -0.4618  0.1699
14889TIP3    H166158   6.600   3.268  16.348 -1.0331  0.2052 -0.9880
14889TIP3    H266159   6.687   3.374  16.414  1.0618 -1.3349 -1.1592
14890TIP3   OH266160   0.352   1.852  16.498  0.0744  0.5186 -0.1299
14890TIP3    H166161   0.385   1.811  16.578 -1.8333 -0.3321  0.2852
14890TIP3    H266162   0.303   1.782  16.454  0.2746  1.2431 -1.5663
14891TIP3   OH266163   0.298   5.603  12.277  0.2077 -0.0463  0.1387
14891TIP3    H166164   0.389   5.586  12.299 -0.2353  0.4963  2.6598
14891TIP3    H266165   0.300   5.633  12.186  2.4448 -0.6658 -0.0581
14892TIP3   OH266166   0.413   2.018   5.983  0.2872  0.0272 -0.2082
14892TIP3    H166167   0.403   2.050   5.894 -1.3576  0.6279  0.1443
14892TIP3    H266168   0.336   1.962   5.997 -0.1751  0.9665  1.2223
14893TIP3   OH266169   4.375   0.157   6.154  0.2582 -0.3428 -0.2672
14893TIP3    H166170   4.308   0.167   6.221  0.4633  1.3632 -0.2841
14893TIP3    H266171   4.359   0.070   6.116 -1.9876  0.0596 -0.3296
14894TIP3   OH266172   3.322   4.312  14.257  0.1114  0.2618 -0.4551
14894TIP3    H166173   3.228   4.322  14.247 -0.3433 -2.5330  0.2341
14894TIP3    H266174   3.356   4.314  14.167 -0.9776 -1.3418 -0.9389
14895TIP3   OH266175   1.772   2.799  13.828 -0.2043 -0.3469 -0.6351
14895TIP3    H166176   1.733   2.869  13.881 -1.4751  0.1174 -2.1225
14895TIP3    H266177   1.752   2.718  13.876  3.0408  0.2898  2.1995
14896TIP3   OH266178   4.527   6.746   4.466 -0.0016  0.6489 -0.3741
14896TIP3    H166179   4.476   6.666   4.451 -0.1351  0.9640 -1.6744
14896TIP3    H266180   4.473   6.816   4.430  1.9308  0.8447 -3.2325
14897TIP3   OH266181   0.292   3.340  13.521 -0.2656  0.2687 -0.2319
14897TIP3    H166182   0.339   3.383  13.593 -0.4549  2.0750 -1.1205
14897TIP3    H266183   0.339   3.258  13.507  0.3859  0.3367  1.2688
14898TIP3   OH266184   0.112   5.311  11.097 -0.1472  0.4053  0.2792
14898TIP3    H166185   0.094   5.217  11.103  1.2302  0.0810 -0.3490
14898TIP3    H266186   0.079   5.347  11.180 -1.7346 -0.4225  0.0526
14899TIP3   OH266187   5.223   2.988  16.802 -0.1787 -0.8261 -0.0367
14899TIP3    H166188   5.272   3.064  16.771 -1.7422 -0.4476 -1.7414
14899TIP3    H266189   5.291   2.922  16.820  1.2684  1.1007  2.1683
14900TIP3   OH266190   6.567   3.219  11.677 -0.0941  0.5088  0.1208
14900TIP3    H166191   6.530   3.248  11.760  0.8020  2.1929 -0.0212
14900TIP3    H266192   6.651   3.179  11.701 -0.5719 -0.5302  0.1487
14901TIP3   OH266193   4.179   4.019  15.059 -0.0884 -0.3766 -0.3407
14901TIP3    H166194   4.105   3.966  15.090  0.3978  0.9384  3.6004
14901TIP3    H266195   4.251   3.956  15.050 -0.9264 -1.2219 -1.4670
14902TIP3   OH266196   5.796   5.311  17.042  0.6390 -0.6919  0.3365
14902TIP3    H166197   5.795   5.277  16.952  0.8474  1.8121 -0.7122
14902TIP3    H266198   5.881   5.353  17.050 -0.0601  0.6268  1.0785
14903TIP3   OH266199   5.991   0.861   0.747  0.3554  0.3413 -0.1718
14903TIP3    H166200   5.926   0.790   0.754  0.2441  0.2684 -1.6384
14903TIP3    H266201   6.055   0.828   0.684 -0.7449  2.2914 -2.4590
14904TIP3   OH266202   3.596   3.294  13.508  0.0254  0.4774 -0.4735
14904TIP3    H166203   3.660   3.362  13.488 -1.6149  1.7123 -1.8278
14904TIP3    H266204   3.513   3.328  13.474 -1.1736 -1.4976  0.2870
14905TIP3   OH266205   3.369   0.447   3.715 -0.6351 -0.2513  0.7870
14905TIP3    H166206   3.379   0.411   3.627  1.9946 -1.6221  1.5493
14905TIP3    H266207   3.371   0.542   3.703  0.2242 -0.4254 -0.5961
14906TIP3   OH266208   3.201   2.046   3.863 -0.3428  0.2413  0.2027
14906TIP3    H166209   3.156   2.130   3.861  1.8425  1.4856 -1.8519
14906TIP3    H266210   3.246   2.045   3.948 -0.6812  0.9684  0.3973
14907TIP3   OH266211   3.633   2.971   6.215 -0.2300 -0.1376  0.3453
14907TIP3    H166212   3.672   2.885   6.228  1.6369  0.5021 -0.5399
14907TIP3    H266213   3.544   2.954   6.185  0.0740 -1.7378  0.2837
14908TIP3   OH266214   4.534   1.508  12.493 -0.1463  0.2114 -0.8207
14908TIP3    H166215   4.516   1.436  12.433 -0.4072 -0.5726  0.1714
14908TIP3    H266216   4.629   1.511  12.500 -0.1603 -0.7851 -0.0032
14909TIP3   OH266217   6.383   2.425  15.010 -0.7269  0.4588 -0.9005
14909TIP3    H166218   6.400   2.331  15.005 -1.3685  0.1221  1.7539
14909TIP3    H266219   6.340   2.446  14.927 -1.9570 -1.9117 -0.9381
14910TIP3   OH266220   1.612   0.051  14.696 -0.3974  0.4005  0.6057
14910TIP3    H166221   1.637   0.013  14.780  0.7629 -2.8946 -1.0402
14910TIP3    H266222   1.540  -0.005  14.666  0.1736  0.5946 -1.2013
14911TIP3   OH266223   0.257   2.294   3.105  0.5992  0.3092 -0.0597
14911TIP3    H166224   0.314   2.292   3.028 -0.4517 -2.0186 -0.8793
14911TIP3    H266225   0.199   2.368   3.090  2.2062  1.6426 -0.0560
14912TIP3   OH266226   5.713   1.557   0.607 -0.2868 -0.0420  0.4374
14912TIP3    H166227   5.626   1.527   0.582  0.2001 -0.2357 -1.1118
14912TIP3    H266228   5.770   1.482   0.592 -0.0724 -0.5275  3.1769
14913TIP3   OH266229   4.183   6.586   3.452  0.0139 -0.0113  0.1546
14913TIP3    H166230   4.151   6.497   3.470  1.5458 -1.0141 -1.7083
14913TIP3    H266231   4.278   6.580   3.462  0.3549  0.8422 -2.0202
14914TIP3   OH266232   2.750   4.324   2.028 -0.1431  0.1420  0.4318
14914TIP3    H166233   2.781   4.254   2.085 -0.2280 -1.0626 -0.9451
14914TIP3    H266234   2.668   4.291   1.991  0.7451  0.1449 -1.6748
14915TIP3   OH266235   0.648   0.996  13.089 -0.3973 -0.0091  0.4976
14915TIP3    H166236   0.606   0.920  13.130  0.6172 -0.6802  0.3398
14915TIP3    H266237   0.700   1.035  13.160  0.0027 -0.1592  0.2892
14916TIP3   OH266238   6.329   1.279  16.734  0.0899  0.0044 -0.4057
14916TIP3    H166239   6.318   1.330  16.653  2.2249 -0.5883 -1.1427
14916TIP3    H266240   6.320   1.188  16.707 -1.0214 -0.1468  0.4082
14917TIP3   OH266241   5.609   3.107  10.835  0.4060 -0.8008  0.0122
14917TIP3    H166242   5.696   3.145  10.830  0.7202 -1.3056  1.3218
14917TIP3    H266243   5.557   3.174  10.880 -0.1244 -0.1372 -1.5137
14918TIP3   OH266244   2.799   4.699   2.439  0.5383  0.1098 -0.6697
14918TIP3    H166245   2.828   4.617   2.399 -1.9756 -1.0918 -0.2022
14918TIP3    H266246   2.733   4.733   2.379 -0.4481  0.3199  0.5085
14919TIP3   OH266247   2.718   4.982  13.064 -0.0790  0.3372 -0.4372
14919TIP3    H166248   2.648   4.983  12.999 -0.9511  0.8430  0.4751
14919TIP3    H266249   2.780   4.917  13.031 -0.8695  0.0298 -1.3796
14920TIP3   OH266250   0.569   6.727   5.722 -0.5848  0.0631 -0.1295
14920TIP3    H166251   0.629   6.706   5.794  0.1231  0.4283 -0.6054
14920TIP3    H266252   0.619   6.787   5.667  0.1372 -2.6641 -2.6879
14921TIP3   OH266253   2.389   2.439  15.166 -0.3897  0.5661 -0.5466
14921TIP3    H166254   2.361   2.373  15.229 -0.0915 -2.6162 -3.4924
14921TIP3    H266255   2.485   2.436  15.168 -0.3361  1.8692  0.1440
14922TIP3   OH266256   4.958   1.983  13.967 -0.1225  0.0705 -0.4820
14922TIP3    H166257   5.003   2.049  14.020 -1.0632 -0.5599  1.1708
14922TIP3    H266258   4.895   2.032  13.916 -0.4668  0.5259  0.3568
14923TIP3   OH266259   6.440   3.231   2.129 -0.7279  0.1448  0.2569
14923TIP3    H166260   6.448   3.187   2.214  0.8176  0.3174  0.2403
14923TIP3    H266261   6.366   3.289   2.139 -0.4427  0.3136  1.5794
14924TIP3   OH266262   1.569   4.971   3.764  0.2283 -0.2530 -0.2295
14924TIP3    H166263   1.480   4.970   3.730 -0.2520  1.3150  0.8601
14924TIP3    H266264   1.569   4.905   3.833  1.0374 -2.9958 -2.6354
14925TIP3   OH266265   3.926   0.739   5.685  0.4673 -0.2998  0.2671
14925TIP3    H166266   3.896   0.680   5.615  1.8738 -0.6974 -0.0217
14925TIP3    H266267   4.020   0.746   5.672  0.5119  0.9721  1.1192
14926TIP3   OH266268   6.254   5.793   1.677 -0.5539 -0.4605  0.2309
14926TIP3    H166269   6.259   5.857   1.606 -0.3361 -0.8235 -0.0853
14926TIP3    H266270   6.279   5.842   1.755 -1.0994  0.0209  0.1112
14927TIP3   OH266271   2.519   5.421   5.165  0.3977 -0.7108 -0.2141
14927TIP3    H166272   2.458   5.466   5.223  3.5035  0.3246  2.5442
14927TIP3    H266273   2.520   5.330   5.196  0.1164 -0.8013 -0.4560
14928TIP3   OH266274   1.911   3.486   5.779 -0.2743  0.1417  0.9006
14928TIP3    H166275   1.917   3.392   5.795 -0.5043  0.0022  0.2234
14928TIP3    H266276   1.883   3.523   5.863  1.6038 -0.1585  1.6940
14929TIP3   OH266277   5.324   1.298  14.333  0.3645  0.0108 -0.2257
14929TIP3    H166278   5.261   1.368  14.355  0.1011 -0.1262 -0.5339
14929TIP3    H266279   5.290   1.261  14.251  0.5696 -0.3988 -0.1254
14930TIP3   OH266280   6.698   2.968  13.966  0.2675  0.4914  0.0638
14930TIP3    H166281   6.698   2.878  13.932  0.2598  0.0243  1.2589
14930TIP3    H266282   6.778   3.007  13.931  0.5105 -0.1304 -0.0920
14931TIP3   OH266283   2.129   4.449  14.118 -0.2238  0.2270 -0.2023
14931TIP3    H166284   2.110   4.447  14.025 -0.0818  0.1466 -0.2297
14931TIP3    H266285   2.197   4.516  14.127  1.7357 -1.6108 -0.5252
14932TIP3   OH266286   1.454   2.656   5.566  0.0770  0.4399 -0.5128
14932TIP3    H166287   1.432   2.740   5.605  0.4841  0.2989  0.0364
14932TIP3    H266288   1.549   2.660   5.551  0.0446  0.2065 -0.7957
14933TIP3   OH266289   3.892   3.624  16.219 -0.3695 -0.4792  0.0108
14933TIP3    H166290   3.920   3.589  16.134  1.3457 -0.2738  0.4583
14933TIP3    H266291   3.851   3.708  16.198  0.8213 -0.0176 -0.5712
14934TIP3   OH266292   3.870   1.669   5.908  0.1950 -0.0547  0.3934
14934TIP3    H166293   3.793   1.719   5.935 -0.4857 -0.1641 -1.2623
14934TIP3    H266294   3.942   1.731   5.914  0.2068 -0.1979  2.8576
14935TIP3   OH266295   1.754   3.676  16.153 -0.6625  0.4122 -0.0769
14935TIP3    H166296   1.708   3.687  16.070 -1.7772 -0.0675  0.4579
14935TIP3    H266297   1.768   3.766  16.184 -3.4184  0.6240  0.8767
14936TIP3   OH266298   4.019   6.466   2.509  0.4875 -0.3820 -0.0687
14936TIP3    H166299   4.048   6.551   2.542 -1.3025  0.3603 -0.3040
14936TIP3    H266300   4.100   6.421   2.485  1.5272  0.8922  0.8941
14937TIP3   OH266301   5.956   1.113  12.051  0.0540 -0.3709  0.5792
14937TIP3    H166302   6.015   1.130  11.977 -3.3284 -2.8361 -3.0703
14937TIP3    H266303   5.891   1.183  12.046  1.1854  0.9872  3.1057
14938TIP3   OH266304   3.515   1.791   2.101  0.0865 -0.0855 -0.4217
14938TIP3    H166305   3.510   1.886   2.098  2.4464  0.1716  0.9446
14938TIP3    H266306   3.513   1.764   2.009 -0.0606  1.3206 -0.8578
14939TIP3   OH266307   2.688   0.911  15.228 -0.1443 -0.2727 -0.0453
14939TIP3    H166308   2.756   0.845  15.237 -0.5727 -0.7161 -0.0451
14939TIP3    H266309   2.736   0.994  15.222  0.3842 -0.5599  0.1545
14940TIP3   OH266310   5.432   5.018   6.988  0.7244 -0.2606 -0.1685
14940TIP3    H166311   5.409   5.050   6.901 -1.7359  1.7160  1.0581
14940TIP3    H266312   5.363   4.957   7.011  1.7131 -1.2829  0.1926
14941TIP3   OH266313   0.194   2.255   3.378  0.0263  0.2090  0.8769
14941TIP3    H166314   0.212   2.172   3.422 -2.6949 -0.9356  0.0150
14941TIP3    H266315   0.244   2.249   3.297  1.2391  0.2256  1.5934
14942TIP3   OH266316   5.664   0.036  15.869 -0.1451  0.2413 -0.7937
14942TIP3    H166317   5.667   0.129  15.845  1.0767  0.4943  0.2424
14942TIP3    H266318   5.601   0.032  15.941  0.8151  0.5078  0.0779
14943TIP3   OH266319   0.825   0.631   2.485 -0.3464 -0.1208 -0.5074
14943TIP3    H166320   0.821   0.720   2.520 -1.5594  0.2451 -1.4760
14943TIP3    H266321   0.749   0.588   2.524 -0.1737 -0.5180 -0.6131
14944TIP3   OH266322   4.492   3.680  11.930  0.2281  0.3410  0.2932
14944TIP3    H166323   4.502   3.721  11.844  2.7654 -1.4601 -0.3910
14944TIP3    H266324   4.401   3.696  11.954 -1.0478 -0.4547 -3.4151
14945TIP3   OH266325   0.410   1.149  14.826  0.0521  0.1457  0.2715
14945TIP3    H166326   0.484   1.144  14.886 -0.8861 -0.9969  1.3915
14945TIP3    H266327   0.414   1.068  14.775 -0.2376  0.2294  0.1105
14946TIP3   OH266328   0.635   0.401   1.702  0.0511  0.0295 -0.3250
14946TIP3    H166329   0.610   0.314   1.733  0.8287 -0.2621 -0.5010
14946TIP3    H266330   0.566   0.424   1.639 -0.3430 -0.3100 -0.0229
14947TIP3   OH266331   2.863   4.618  13.854  0.3107  0.7493  0.4029
14947TIP3    H166332   2.928   4.597  13.921 -0.4748 -0.2520  0.8936
14947TIP3    H266333   2.792   4.555  13.870 -0.4800  1.3796 -0.5295
14948TIP3   OH266334   5.680   4.113   3.412 -0.2135 -0.1266  0.1843
14948TIP3    H166335   5.756   4.075   3.369 -0.1162  0.9626 -0.6525
14948TIP3    H266336   5.639   4.168   3.345 -2.9455 -2.2510 -0.0860
14949TIP3   OH266337   4.442   0.373   0.784 -0.2409  0.7217  0.0739
14949TIP3    H166338   4.480   0.288   0.805 -2.1770 -0.1764  0.1291
14949TIP3    H266339   4.384   0.392   0.857  0.9679  2.6555  0.5980
14950TIP3   OH266340   3.566   1.536  13.027 -0.1563  0.3495  0.7524
14950TIP3    H166341   3.642   1.521  13.083  0.4495 -0.6934 -0.3150
14950TIP3    H266342   3.560   1.458  12.972  1.0389  2.4609 -2.6892
14951TIP3   OH266343   0.750   1.306   4.359  0.2631  0.4088  0.2689
14951TIP3    H166344   0.753   1.395   4.325  1.6505  0.6579  0.9975
14951TIP3    H266345   0.841   1.284   4.377 -0.0565 -1.1704  0.0980
14952TIP3   OH266346   6.150   2.823  14.113 -0.4980  0.0862 -0.5428
14952TIP3    H166347   6.148   2.865  14.027 -0.8676  0.7702 -0.2139
14952TIP3    H266348   6.067   2.776  14.118 -0.3799 -0.1345 -0.6445
14953TIP3   OH266349   1.929   0.974  11.625  0.1487 -0.4915 -0.3224
14953TIP3    H166350   1.851   1.027  11.637  0.2343 -0.7250  1.5306
14953TIP3    H266351   1.903   0.886  11.652  0.3821 -1.1450 -2.0879
14954TIP3   OH266352   4.527   6.332   1.190 -0.6768 -0.5634 -0.5745
14954TIP3    H166353   4.579   6.254   1.206  0.4464 -0.2995 -2.5786
14954TIP3    H266354   4.443   6.299   1.157 -0.3670 -0.9428 -0.9898
14955TIP3   OH266355   0.369   2.908   3.049  0.1415  0.3464  0.2270
14955TIP3    H166356   0.324   2.824   3.036  0.2075  0.4905 -1.0868
14955TIP3    H266357   0.440   2.907   2.985 -0.0502  1.5289 -0.0313
14956TIP3   OH266358   1.769   2.137  14.018 -0.1029  0.2842  0.2802
14956TIP3    H166359   1.684   2.101  14.040 -0.2342  1.1197  1.2268
14956TIP3    H266360   1.803   2.170  14.101 -0.0402  2.3861 -0.5220
14957TIP3   OH266361   4.921   6.355  17.133  0.3703 -0.1420  0.0617
14957TIP3    H166362   4.941   6.301  17.209  1.7929 -0.3905 -0.4647
14957TIP3    H266363   4.911   6.443  17.168  1.7038 -0.1324  0.4691
14958TIP3   OH266364   1.856   3.605  10.702 -0.0236 -0.9256 -0.2612
14958TIP3    H166365   1.781   3.662  10.685  0.0171 -0.9208 -0.4228
14958TIP3    H266366   1.843   3.530  10.643  0.1375 -0.8893 -0.3439
14959TIP3   OH266367   1.938   0.664  11.934  0.4291 -0.6032 -0.5697
14959TIP3    H166368   1.949   0.676  11.840  0.6565  0.3727 -0.4288
14959TIP3    H266369   1.967   0.574  11.950 -1.7363 -1.5820 -1.7450
14960TIP3   OH266370   1.688   6.606  17.178 -0.3545 -0.3350  0.0455
14960TIP3    H166371   1.752   6.674  17.198  0.8086 -1.3834  0.0412
14960TIP3    H266372   1.696   6.543  17.250 -1.2406 -0.5899 -0.0655
14961TIP3   OH266373   3.203   3.352  14.401 -0.2786 -0.4740 -0.3663
14961TIP3    H166374   3.229   3.317  14.316  3.4667  0.2095  0.3485
14961TIP3    H266375   3.203   3.276  14.459 -3.2325 -1.0162 -0.8917
14962TIP3   OH266376   3.511   2.172   3.138  0.3078  0.0568  0.1830
14962TIP3    H166377   3.571   2.179   3.213 -0.9433 -0.9095  1.3450
14962TIP3    H266378   3.428   2.206   3.171 -0.3666 -0.7243 -0.6472
14963TIP3   OH266379   2.168   4.359  16.941  0.4906  0.6438 -0.4943
14963TIP3    H166380   2.111   4.295  16.899  1.2223 -0.1498 -0.3168
14963TIP3    H266381   2.110   4.409  16.998  0.0893 -0.7454  0.3847
14964TIP3   OH266382   5.497   5.193  16.453  0.5509  0.3546  0.2133
14964TIP3    H166383   5.427   5.254  16.475 -1.0220 -1.4286  0.4316
14964TIP3    H266384   5.495   5.128  16.523  2.0044 -0.0910 -0.1337
14965TIP3   OH266385   6.532   0.349  16.189 -0.2544 -0.1591  0.0604
14965TIP3    H166386   6.470   0.280  16.166  0.7304 -1.5422  1.3686
14965TIP3    H266387   6.486   0.431  16.169 -2.1632 -1.1513  0.2091
14966TIP3   OH266388   4.440   5.527  13.737  0.0344 -0.3126  0.0506
14966TIP3    H166389   4.408   5.444  13.772  1.0672 -0.3560  0.9471
14966TIP3    H266390   4.527   5.538  13.776  0.0780  1.0046 -0.3588
14967TIP3   OH266391   6.399   1.945  13.284  0.1577 -0.2534 -0.4051
14967TIP3    H166392   6.465   1.942  13.215 -0.6578  0.7859 -1.2687
14967TIP3    H266393   6.369   1.854  13.293 -1.4388 -0.1200 -3.2017
14968TIP3   OH266394   1.065   3.862  14.535  0.1525  0.0169 -0.2420
14968TIP3    H166395   1.032   3.952  14.530  1.5008  0.5685  0.2204
14968TIP3    H266396   1.076   3.845  14.629 -0.7971 -0.9179 -0.2852
14969TIP3   OH266397   5.449   3.198  17.218 -0.0213  0.0996 -0.4379
14969TIP3    H166398   5.422   3.268  17.158 -1.7070  0.8581  1.1419
14969TIP3    H266399   5.455   3.121  17.162  1.7144  1.3961 -2.1990
14970TIP3   OH266400   0.354   0.770   4.583 -0.4514  0.9138 -0.1742
14970TIP3    H166401   0.286   0.835   4.565  0.3501  1.7189 -0.4284
14970TIP3    H266402   0.343   0.704   4.515  0.4285  2.2139 -1.6639
14971TIP3   OH266403   2.425   4.204  14.981 -0.3471 -0.2284 -0.1119
14971TIP3    H166404   2.415   4.169  15.070  0.0425 -0.5778 -0.2028
14971TIP3    H266405   2.467   4.289  14.994  0.0934 -0.4597  0.0168
14972TIP3   OH266406   4.852   3.717  15.250 -0.0807  0.0847  0.1552
14972TIP3    H166407   4.866   3.623  15.260  0.6293  0.0808 -0.7539
14972TIP3    H266408   4.879   3.755  15.334  0.8134 -0.4130  0.1056
14973TIP3   OH266409   0.335   6.451  11.989 -0.6410  0.3791 -0.3277
14973TIP3    H166410   0.414   6.504  11.992  0.4690 -1.2128 -0.0561
14973TIP3    H266411   0.267   6.506  12.028  0.7182  1.1578  1.0151
14974TIP3   OH266412   4.779   4.472   6.559 -0.1947 -0.0272 -0.4198
14974TIP3    H166413   4.771   4.564   6.535  0.6428  0.0324 -0.5221
14974TIP3    H266414   4.691   4.446   6.586 -0.7277  0.4529 -1.6164
14975TIP3   OH266415   2.092   1.876  11.867 -0.2007 -0.2452 -0.1086
14975TIP3    H166416   2.075   1.970  11.856 -2.4899 -0.7012 -1.0011
14975TIP3    H266417   2.120   1.847  11.780  0.6990 -0.3679  0.2177
14976TIP3   OH266418   0.659   5.084  10.729  0.5142 -0.1356  0.3702
14976TIP3    H166419   0.652   5.117  10.819  2.3767 -0.1697  0.5737
14976TIP3    H266420   0.569   5.065  10.703 -0.1914  1.1220  1.7538
14977TIP3   OH266421   5.692   0.357   1.233 -0.6181 -0.5605 -0.1392
14977TIP3    H166422   5.758   0.315   1.178 -1.1871 -1.2460 -0.3285
14977TIP3    H266423   5.623   0.384   1.172 -0.5437  0.0989  0.0583
14978TIP3   OH266424   4.083   6.186  17.471  0.2734  0.2863  0.1965
14978TIP3    H166425   4.010   6.163  17.528 -1.0462 -0.1542 -1.5841
14978TIP3    H266426   4.071   6.278  17.451 -0.3244  0.0153 -0.7717
14979TIP3   OH266427   6.329   3.015  13.420  0.1166  0.0080  0.3184
14979TIP3    H166428   6.391   2.994  13.491 -0.4619 -2.0688  0.2722
14979TIP3    H266429   6.250   2.965  13.442 -1.3103  2.0209 -0.0168
14980TIP3   OH266430   4.953   5.761  11.611  0.7736  0.0886  0.6525
14980TIP3    H166431   4.974   5.804  11.529 -3.8928  3.7377  0.9417
14980TIP3    H266432   4.986   5.820  11.679  0.8515 -0.6909  1.3119
14981TIP3   OH266433   4.245   4.618   4.018 -0.7069 -0.6925 -0.0114
14981TIP3    H166434   4.315   4.582   3.963 -0.3276  0.7746 -0.5465
14981TIP3    H266435   4.209   4.542   4.064  0.0517 -1.7275 -1.0639
14982TIP3   OH266436   6.297   4.181  16.291 -0.0317  0.1411  0.4841
14982TIP3    H166437   6.281   4.138  16.375  0.4800 -0.3841  0.3195
14982TIP3    H266438   6.357   4.123  16.245 -2.4825 -1.0679 -1.4370
14983TIP3   OH266439   4.439   3.696  15.680  0.5064 -0.2708 -0.4496
14983TIP3    H166440   4.452   3.637  15.605 -0.9817 -0.8562 -0.2703
14983TIP3    H266441   4.388   3.645  15.742  2.5892 -0.1704  1.4789
14984TIP3   OH266442   2.623   6.204   0.791  0.5495  0.5337  0.7836
14984TIP3    H166443   2.562   6.198   0.718  0.0740  0.7906  1.1537
14984TIP3    H266444   2.622   6.117   0.831  1.0594  0.2975  0.2915
14985TIP3   OH266445   4.518   3.487   5.142 -0.2983  0.9261  0.3580
14985TIP3    H166446   4.611   3.489   5.120 -0.4383 -0.3273 -0.4149
14985TIP3    H266447   4.515   3.445   5.228 -0.1049  1.6410  0.7223
14986TIP3   OH266448   4.006   4.715  12.777 -0.6273 -0.0845 -0.0953
14986TIP3    H166449   3.976   4.655  12.846  0.1270 -1.0217 -0.5576
14986TIP3    H266450   3.933   4.719  12.716 -1.5898  1.3280  1.0993
14987TIP3   OH266451   4.958   4.087   3.317 -0.2653 -0.0656  0.0351
14987TIP3    H166452   4.892   4.133   3.370 -0.5188 -0.9684  0.5231
14987TIP3    H266453   5.029   4.150   3.306 -0.5471  0.3938  0.8028
14988TIP3   OH266454   0.833   3.742   3.763 -0.8144 -0.0792 -0.7165
14988TIP3    H166455   0.806   3.787   3.683 -1.0583  1.4973  0.2029
14988TIP3    H266456   0.926   3.763   3.772  0.0457 -2.8164 -2.1597
14989TIP3   OH266457   6.065   4.861  16.418  0.2836 -0.5750 -0.2855
14989TIP3    H166458   6.034   4.800  16.485  0.6962  1.4591  1.9174
14989TIP3    H266459   6.141   4.817  16.380  2.2228 -0.5350  3.0783
14990TIP3   OH266460   6.408   3.119   6.505  0.2107  0.3835 -0.3716
14990TIP3    H166461   6.503   3.130   6.496  0.1952  1.0852  0.2384
14990TIP3    H266462   6.391   3.133   6.598 -0.4559 -0.0747 -0.4177
14991TIP3   OH266463   6.200   1.097  10.823  0.0883  0.0528 -0.5261
14991TIP3    H166464   6.128   1.114  10.884 -1.8234 -1.0822 -2.3665
14991TIP3    H266465   6.274   1.077  10.880 -1.1466  0.7701  1.4428
14992TIP3   OH266466   6.712   5.850   5.030  0.0931 -0.0406 -0.2353
14992TIP3    H166467   6.691   5.786   4.962 -0.7296 -1.5927  1.3964
14992TIP3    H266468   6.663   5.929   5.006 -2.3166 -1.4270 -0.0966
14993TIP3   OH266469   5.983   5.616   5.690 -0.0426  0.1078 -0.3795
14993TIP3    H166470   6.005   5.585   5.778  1.5595  0.2947 -0.6732
14993TIP3    H266471   5.888   5.607   5.684 -0.5751  2.6569  2.3242
14994TIP3   OH266472   4.277   3.481  11.488  0.2337 -0.2692 -1.0622
14994TIP3    H166473   4.185   3.480  11.515  0.5697 -0.2351  0.1343
14994TIP3    H266474   4.286   3.406  11.429 -0.4568 -0.5728 -0.7887
14995TIP3   OH266475   3.043   4.322  14.231  0.1092 -1.0905  0.0734
14995TIP3    H166476   2.976   4.324  14.300  0.3493 -2.2595  0.3678
14995TIP3    H266477   3.015   4.250  14.173  0.7028 -1.0859 -0.2280
14996TIP3   OH266478   6.102   6.019   2.046  0.7698 -0.2295  0.2005
14996TIP3    H166479   6.082   6.073   1.969 -0.0846 -0.8176 -0.0072
14996TIP3    H266480   6.030   5.956   2.050  0.4368  0.2148  1.8750
14997TIP3   OH266481   3.194   6.575  17.376  0.4162  0.5567  0.5380
14997TIP3    H166482   3.159   6.499  17.330 -2.4252  1.3500  1.1578
14997TIP3    H266483   3.240   6.625  17.308 -3.1542  1.4102 -1.5447
14998TIP3   OH266484   6.220   1.866   5.784  0.3984  0.4834  0.0919
14998TIP3    H166485   6.257   1.948   5.817 -0.1134  0.5753  0.4369
14998TIP3    H266486   6.174   1.828   5.858 -0.8829  0.7522 -0.5351
14999TIP3   OH266487   3.375   0.024  12.245  0.2757  0.3048 -0.6148
14999TIP3    H166488   3.442   0.080  12.284 -0.6353 -0.0222  1.5117
14999TIP3    H266489   3.413  -0.064  12.248  1.2990  0.5806 -3.0508
15000TIP3   OH266490   3.635   4.362  11.360  0.0390 -0.0102 -0.0296
15000TIP3    H166491   3.723   4.326  11.350  0.8950  2.2459 -1.2611
15000TIP3    H266492   3.585   4.321  11.289  0.3786 -0.4788 -0.0064
15001TIP3   OH266493   4.477   1.945  15.961 -1.0360 -0.8072 -0.4696
15001TIP3    H166494   4.441   1.902  15.883 -0.1837 -0.1504 -1.2463
15001TIP3    H266495   4.442   2.035  15.957 -1.8885 -1.0775  0.5238
15002TIP3   OH266496   1.843   0.166  16.882  0.3384  0.0564 -0.1677
15002TIP3    H166497   1.869   0.220  16.956 -0.7003  2.2198 -1.3013
15002TIP3    H266498   1.779   0.105  16.918  0.5228  0.4701  0.8867
15003TIP3   OH266499   2.359   3.941  13.557  0.1466 -0.5861  0.0116
15003TIP3    H166500   2.447   3.959  13.590  0.3433 -1.5635  0.0349
15003TIP3    H266501   2.350   3.998  13.481  0.6738 -0.2462  0.1963
15004TIP3   OH266502   5.905   3.484  11.621  0.6974  0.6742 -0.4159
15004TIP3    H166503   5.900   3.417  11.552 -1.4099  1.4261 -1.0834
15004TIP3    H266504   5.852   3.449  11.692  1.6783  0.5478  0.2696
15005TIP3   OH266505   0.043   2.913  12.497  0.0079 -0.2168 -0.0587
15005TIP3    H166506  -0.027   2.849  12.483 -1.3559  1.2108 -0.0448
15005TIP3    H266507   0.097   2.907  12.418 -0.4573 -0.9197 -0.3346
15006TIP3   OH266508   0.036   6.650   4.123  0.0552  0.2532 -0.5776
15006TIP3    H166509   0.020   6.742   4.101 -0.2581 -0.3197 -3.0778
15006TIP3    H266510  -0.051   6.610   4.125  0.2413 -0.1391 -0.1889
15007TIP3   OH266511   5.270   2.692   6.061 -0.3058  0.6105  0.8127
15007TIP3    H166512   5.236   2.603   6.047 -1.1584  1.0794 -0.3058
15007TIP3    H266513   5.214   2.748   6.007  3.0471  1.3037 -2.4264
15008TIP3   OH266514   6.477   6.471  17.385  0.0588  0.1133 -0.3625
15008TIP3    H166515   6.472   6.546  17.444  1.0201 -0.4064  0.4179
15008TIP3    H266516   6.530   6.501  17.311 -2.2564  1.1876 -1.6801
15009TIP3   OH266517   6.400   4.981   4.918 -0.1402  0.2056  0.4087
15009TIP3    H166518   6.401   5.064   4.967  0.3258 -0.2830  1.2466
15009TIP3    H266519   6.401   4.913   4.986 -1.8205 -0.5094 -0.2320
15010TIP3   OH266520   3.596   4.480  11.939 -0.3228 -0.4622  0.4502
15010TIP3    H166521   3.666   4.534  11.902 -0.5812 -0.5702 -0.2133
15010TIP3    H266522   3.521   4.495  11.880 -0.9734 -0.0531  1.3573
15011TIP3   OH266523   3.987   0.147   2.006 -0.1000 -0.2212 -0.9874
15011TIP3    H166524   3.989   0.066   1.956  2.0992 -0.9898  0.1807
15011TIP3    H266525   4.048   0.206   1.960 -1.3262  0.6385 -1.5656
15012TIP3   OH266526   0.023   2.470   3.284  0.4244  0.5364 -0.1902
15012TIP3    H166527   0.113   2.500   3.287  0.7582 -0.3233 -1.0281
15012TIP3    H266528   0.026   2.380   3.315 -0.1445  0.4885 -0.2559
15013TIP3   OH266529   2.235   1.844   5.284 -0.8573 -0.3250  0.9398
15013TIP3    H166530   2.153   1.893   5.272 -1.5930 -1.7836 -0.5645
15013TIP3    H266531   2.220   1.792   5.363 -1.2649 -0.3251  0.8690
15014TIP3   OH266532   0.315   6.445  15.214 -0.1564  0.3407 -0.7574
15014TIP3    H166533   0.370   6.512  15.256  0.5414  0.4951 -1.8584
15014TIP3    H266534   0.357   6.362  15.236  1.0032  0.4920 -2.1620
15015TIP3   OH266535   3.750   4.697   2.000  0.5066  0.7955  0.4081
15015TIP3    H166536   3.841   4.720   2.018  0.6792  0.9051 -0.5357
15015TIP3    H266537   3.733   4.619   2.053  1.6507 -0.1875 -0.6094
15016TIP3   OH266538   6.217   6.327  17.417  0.5545 -0.2104 -0.3671
15016TIP3    H166539   6.259   6.396  17.366 -2.4620  0.7101 -1.8180
15016TIP3    H266540   6.188   6.371  17.497 -0.0401 -0.1563 -0.6099
15017TIP3   OH266541   0.903   0.091  14.943  0.3136 -0.1203 -0.0452
15017TIP3    H166542   0.947   0.059  15.023 -0.7329 -0.3140  0.4663
15017TIP3    H266543   0.866   0.175  14.968  0.3061 -0.0028 -0.4505
15018TIP3   OH266544   0.612   3.760  13.586 -0.3296 -0.4061  0.1054
15018TIP3    H166545   0.631   3.793  13.673  0.6970 -1.0716  0.1492
15018TIP3    H266546   0.689   3.709  13.562 -0.6942 -0.4254 -1.0986
15019TIP3   OH266547   1.117   1.993  16.927 -0.3395  0.4261 -0.5743
15019TIP3    H166548   1.211   2.006  16.936 -0.5977  2.0419  0.2264
15019TIP3    H266549   1.104   1.972  16.835  0.8906 -0.8515 -0.4853
15020TIP3   OH266550   1.654   6.600   3.878 -0.0418 -0.4115  0.0661
15020TIP3    H166551   1.632   6.586   3.970  0.1210 -0.7538  0.0515
15020TIP3    H266552   1.700   6.684   3.877 -0.6157 -0.0892  0.2089
15021TIP3   OH266553   6.297   5.543  16.022 -0.1066 -0.6527 -0.1810
15021TIP3    H166554   6.207   5.520  16.045  0.1379 -1.3387  0.1148
15021TIP3    H266555   6.289   5.624  15.973 -1.1158 -2.0015 -2.3998
15022TIP3   OH266556   2.057   2.773  12.971  0.6901  0.0130  0.3083
15022TIP3    H166557   2.051   2.679  12.988 -0.3599 -0.0228 -0.1792
15022TIP3    H266558   2.125   2.804  13.031  0.1140 -0.8290  1.4417
15023TIP3   OH266559   1.030   2.039   1.256 -0.5538 -0.1132 -0.1236
15023TIP3    H166560   0.969   1.984   1.305 -0.0452  0.3635  1.0767
15023TIP3    H266561   0.983   2.122   1.244  0.1131  0.5183  1.4639
15024TIP3   OH266562   4.103   4.275  13.861  0.1982  0.0319  0.1999
15024TIP3    H166563   4.136   4.189  13.884 -1.7406 -0.4933  1.2396
15024TIP3    H266564   4.009   4.262  13.846 -0.1619  1.9624  0.4551
15025TIP3   OH266565   4.092   4.419  15.104 -0.6332  0.2096 -0.1839
15025TIP3    H166566   4.054   4.347  15.054 -0.6279  0.1934 -0.1643
15025TIP3    H266567   4.065   4.498  15.057 -0.8172  0.2061 -0.0857
15026TIP3   OH266568   0.484   3.345  11.395  0.0314 -0.4375 -0.3796
15026TIP3    H166569   0.501   3.415  11.332 -0.3355 -0.6360 -0.7045
15026TIP3    H266570   0.402   3.370  11.437 -0.1050 -0.6719 -0.5019
15027TIP3   OH266571   4.216   0.384  17.295 -0.0311  0.2027  0.5955
15027TIP3    H166572   4.130   0.350  17.317  0.0147 -0.1980  0.1694
15027TIP3    H266573   4.219   0.383  17.199  0.0950  1.0967  0.5796
15028TIP3   OH266574   3.661   4.148  15.126 -0.3973 -0.3322 -0.2821
15028TIP3    H166575   3.663   4.079  15.059 -0.3347 -1.0148  0.4014
15028TIP3    H266576   3.702   4.108  15.203 -0.4873  0.4291  0.1745
15029TIP3   OH266577   0.285   1.520   1.611 -0.1446  0.0877  0.1196
15029TIP3    H166578   0.258   1.445   1.665 -1.1720  0.5607  0.2857
15029TIP3    H266579   0.220   1.523   1.541  0.4376  0.2603 -0.4165
15030TIP3   OH266580   0.405   1.787   0.275 -0.1431 -0.5657  0.0838
15030TIP3    H166581   0.350   1.793   0.197  0.7043  0.6663 -0.4357
15030TIP3    H266582   0.348   1.816   0.347 -0.0621  1.2106 -0.5234
15031TIP3   OH266583   6.191   6.109   2.574 -0.5969 -0.2026 -0.2152
15031TIP3    H166584   6.197   6.131   2.482  0.2732 -0.9528 -0.3491
15031TIP3    H266585   6.264   6.049   2.590 -0.6056  0.0798  1.0055
15032TIP3   OH266586   5.856   0.503  14.253 -0.6552 -0.2500 -0.3256
15032TIP3    H166587   5.910   0.426  14.235  0.3632  0.4760 -0.4289
15032TIP3    H266588   5.914   0.564  14.299 -1.5565  0.3045  0.1099
15033TIP3   OH266589   3.436   6.650  16.929 -0.1543  0.4766  0.3411
15033TIP3    H166590   3.347   6.633  16.898 -0.0569  1.6961 -0.7150
15033TIP3    H266591   3.436   6.623  17.021 -1.4141 -0.1597  0.1670
15034TIP3   OH266592   3.552   6.083   1.752  0.9413 -0.1704  0.6191
15034TIP3    H166593   3.624   6.041   1.800  0.6156 -0.0811  1.1936
15034TIP3    H266594   3.477   6.026   1.767  0.6295  0.3118  0.9437
15035TIP3   OH266595   6.088   0.608  13.844  0.2439  0.2707  0.1824
15035TIP3    H166596   6.095   0.626  13.938  1.9107 -1.7693  0.5258
15035TIP3    H266597   6.080   0.694  13.804 -1.1930  1.1699  2.2217
15036TIP3   OH266598   0.666   5.919  15.563 -0.2578  0.3315  0.7082
15036TIP3    H166599   0.638   5.955  15.479 -0.2738  0.5209  0.7934
15036TIP3    H266600   0.761   5.920  15.560 -0.2489 -0.5054  0.3326
15037TIP3   OH266601   5.220   2.890   3.376  0.2117  0.3829 -0.0868
15037TIP3    H166602   5.244   2.917   3.287 -2.4483 -0.8830 -1.2838
15037TIP3    H266603   5.147   2.947   3.400 -0.7304 -0.9100  0.2377
15038TIP3   OH266604   0.106   5.424  10.720  0.1724  0.0550  0.1089
15038TIP3    H166605   0.166   5.362  10.679  1.0140  0.3118  0.9069
15038TIP3    H266606   0.136   5.509  10.689 -0.4012  0.1275 -0.2539
15039TIP3   OH266607   0.594   1.185  10.760  0.6066  0.0642  0.2839
15039TIP3    H166608   0.624   1.097  10.779  0.4269 -0.0207  0.1783
15039TIP3    H266609   0.652   1.242  10.810  0.3306 -0.1433  0.8483
15040TIP3   OH266610   2.481   6.679   5.819  0.1006  0.1953 -0.1033
15040TIP3    H166611   2.446   6.745   5.759 -1.6332  0.0168  0.6610
15040TIP3    H266612   2.541   6.728   5.876  1.1959  0.4986 -1.4713
15041TIP3   OH266613   4.678   0.629  13.893  0.0422  0.2517 -0.2699
15041TIP3    H166614   4.734   0.626  13.970  0.6673  1.8302 -0.6207
15041TIP3    H266615   4.738   0.627  13.819 -0.3805  1.2664 -0.6593
15042TIP3   OH266616   3.953   2.473  11.999 -0.0571  0.0237  0.4375
15042TIP3    H166617   3.888   2.415  12.039  1.2596 -1.3479  0.6966
15042TIP3    H266618   4.036   2.424  12.007  0.9344  1.5433 -0.2159
15043TIP3   OH266619   2.885   0.896   1.090 -0.3789  0.3717 -0.2886
15043TIP3    H166620   2.858   0.953   1.018  0.8375  0.9049 -0.3490
15043TIP3    H266621   2.934   0.825   1.047 -0.1705  0.3621 -0.0321
15044TIP3   OH266622   2.637   2.408   0.750  0.2882 -0.3357  0.1491
15044TIP3    H166623   2.694   2.340   0.786  0.9818  0.8935  1.4624
15044TIP3    H266624   2.578   2.360   0.691 -0.0746 -2.2826  1.9369
15045TIP3   OH266625   2.963   2.888   4.105  0.1325  0.3012  0.1989
15045TIP3    H166626   3.001   2.975   4.121  2.2776 -0.0930 -2.1363
15045TIP3    H266627   2.977   2.840   4.187 -0.3711  1.8622  1.2561
15046TIP3   OH266628   0.189   4.934   0.009  0.3286  0.5714 -0.4831
15046TIP3    H166629   0.277   4.910   0.038  0.6671  1.2002 -0.9718
15046TIP3    H266630   0.169   5.015   0.056 -0.5145 -0.2138  0.5896
15047TIP3   OH266631   4.126   0.350  15.963  0.0076 -0.0763 -0.2283
15047TIP3    H166632   4.078   0.314  15.888  0.1614 -0.6085 -0.0759
15047TIP3    H266633   4.078   0.430  15.985  0.6384  0.7245 -1.6156
15048TIP3   OH266634   2.334   5.336   3.333 -0.8375  0.3857  0.6988
15048TIP3    H166635   2.400   5.391   3.290 -0.1739  0.2580  1.5365
15048TIP3    H266636   2.351   5.346   3.426  0.2654 -2.3354  0.8859
15049TIP3   OH266637   3.089   1.570  16.871  0.1108  0.1201  0.0693
15049TIP3    H166638   3.142   1.582  16.792  1.5774  2.3648  1.2866
15049TIP3    H266639   3.010   1.622  16.855  0.0753 -0.0163 -0.2009
15050TIP3   OH266640   5.200   6.023   5.595 -0.3020  0.2697 -0.3942
15050TIP3    H166641   5.164   6.109   5.616 -2.0143 -0.2356 -1.1049
15050TIP3    H266642   5.174   6.007   5.504  1.4263 -0.3076 -0.8317
15051TIP3   OH266643   4.321   3.155  12.728 -0.0025 -0.2750 -0.1535
15051TIP3    H166644   4.391   3.095  12.701  0.1614 -0.6622  1.0541
15051TIP3    H266645   4.344   3.179  12.818 -0.6514  0.7614 -0.2467
15052TIP3   OH266646   1.508   5.388   2.090 -0.0335 -0.1317 -0.1307
15052TIP3    H166647   1.542   5.429   2.170  1.2404 -1.2053 -0.0920
15052TIP3    H266648   1.561   5.426   2.020 -2.0796  1.8735 -0.6869
15053TIP3   OH266649   5.786   5.028   3.433 -0.1769  0.4502 -0.4570
15053TIP3    H166650   5.784   5.108   3.486 -2.9162  0.0392  0.2375
15053TIP3    H266651   5.872   4.990   3.449  0.9883  2.9691 -0.4022
15054TIP3   OH266652   0.691   0.080   1.494  0.2074 -0.0143  0.8313
15054TIP3    H166653   0.784   0.101   1.494  0.1799  0.1886 -0.4430
15054TIP3    H266654   0.683   0.007   1.432 -0.6768  0.9655 -0.2505
15055TIP3   OH266655   3.040   5.592  16.345 -0.1915 -0.2291  0.1270
15055TIP3    H166656   2.983   5.632  16.411 -2.1092 -0.3347 -1.3900
15055TIP3    H266657   2.986   5.524  16.305  0.7117  0.1860 -1.9183
15056TIP3   OH266658   0.064   5.538  13.649 -0.7182 -0.3706  0.9641
15056TIP3    H166659   0.106   5.457  13.622 -0.4079  0.1027 -0.0219
15056TIP3    H266660   0.018   5.515  13.729 -2.0927 -1.9874 -0.1943
15057TIP3   OH266661   3.660   4.141   1.131  0.1554 -0.0875 -0.1611
15057TIP3    H166662   3.644   4.174   1.042 -1.4668 -2.0635 -0.6860
15057TIP3    H266663   3.717   4.066   1.118 -0.0077 -0.3248  0.4902
15058TIP3   OH266664   5.266   4.710   3.920 -0.3617 -0.5720 -0.2171
15058TIP3    H166665   5.217   4.778   3.874 -0.6963 -0.6585  0.0049
15058TIP3    H266666   5.241   4.628   3.876 -1.8753 -0.8435  1.0713
15059TIP3   OH266667   1.261   6.060  17.182 -0.0292 -0.3723 -0.1655
15059TIP3    H166668   1.282   6.040  17.091  2.9212 -0.6702  0.4542
15059TIP3    H266669   1.229   6.150  17.181 -0.5556 -0.5559 -1.5338
15060TIP3   OH266670   4.635   0.330  15.837  0.2248  0.3075 -0.1154
15060TIP3    H166671   4.701   0.338  15.907 -0.1119  0.1756  0.2208
15060TIP3    H266672   4.551   0.325  15.884  0.0585 -0.5993 -0.4963
15061TIP3   OH266673   3.614   6.198  13.660  0.2994  0.2194  0.2107
15061TIP3    H166674   3.665   6.275  13.634 -0.9899  1.2232  0.5178
15061TIP3    H266675   3.528   6.212  13.622  0.2711 -1.5252 -0.4445
15062TIP3   OH266676   2.485   5.879  15.344  0.6381 -0.0775 -0.3980
15062TIP3    H166677   2.556   5.919  15.294  1.5420 -1.2805 -0.1277
15062TIP3    H266678   2.523   5.861  15.430 -0.0871 -0.4430 -0.1411
15063TIP3   OH266679   2.263   1.778   1.772  0.0599 -0.2693 -0.7860
15063TIP3    H166680   2.272   1.832   1.851  1.3820  0.6766 -1.5537
15063TIP3    H266681   2.248   1.690   1.806  1.9752 -0.1389  0.5933
15064TIP3   OH266682   2.868   3.479  13.434 -0.0980  0.3402 -0.0436
15064TIP3    H166683   2.791   3.443  13.391 -0.5333 -0.2585  1.2173
15064TIP3    H266684   2.935   3.481  13.365 -0.3710 -1.8679 -0.4213
15065TIP3   OH266685   5.064   3.279  13.950  0.0313 -0.0002  0.1253
15065TIP3    H166686   5.144   3.274  13.898 -0.1494  0.2770 -0.1835
15065TIP3    H266687   5.038   3.371  13.947 -0.9305 -0.2659 -0.7665
15066TIP3   OH266688   0.365   2.892   4.267 -0.1252 -0.4498  0.1860
15066TIP3    H166689   0.450   2.931   4.249 -0.4561  0.2176  0.0122
15066TIP3    H266690   0.341   2.926   4.353  0.0111 -1.0434  0.4578
15067TIP3   OH266691   4.816   1.638   2.279 -0.5504 -0.2247  0.0893
15067TIP3    H166692   4.826   1.729   2.306  0.4947  0.2212 -1.6083
15067TIP3    H266693   4.851   1.587   2.352 -0.0957  0.7858  0.5927
15068TIP3   OH266694   1.100   6.676   3.780  0.1178  0.5082  0.0984
15068TIP3    H166695   1.010   6.687   3.750  0.5989  2.2584 -0.8384
15068TIP3    H266696   1.152   6.673   3.700  1.0168  0.8568  0.6490
15069TIP3   OH266697   2.753   0.003  15.843 -0.0151  0.5399 -0.7155
15069TIP3    H166698   2.773   0.094  15.864  0.9698  0.1629  0.0198
15069TIP3    H266699   2.663  -0.010  15.874 -0.4623  1.4712 -1.5563
15070TIP3   OH266700   2.362   2.724   2.581  0.3229  0.6109  0.5641
15070TIP3    H166701   2.435   2.665   2.565 -0.1555  0.1011  0.2301
15070TIP3    H266702   2.311   2.682   2.650  0.6103  1.2127  1.1580
15071TIP3   OH266703   5.379   0.680   5.123 -0.7321  0.4233 -0.2219
15071TIP3    H166704   5.344   0.712   5.206 -1.1486  1.0690 -0.6395
15071TIP3    H266705   5.333   0.731   5.056 -0.3851 -0.0717 -0.8511
15072TIP3   OH266706   2.194   1.077  16.595  0.5860  0.2230  0.3319
15072TIP3    H166707   2.192   1.169  16.571  0.6813  1.0926  3.2068
15072TIP3    H266708   2.117   1.064  16.650  0.9573 -1.2281  0.5668
15073TIP3   OH266709   5.442   4.058  11.203  0.1242 -0.3152  0.1254
15073TIP3    H166710   5.422   3.983  11.258 -2.7884  0.7831  0.7364
15073TIP3    H266711   5.446   4.132  11.264 -0.5362  0.5274 -0.8128
15074TIP3   OH266712   0.796   2.461  14.461  0.4384 -0.5243  0.4031
15074TIP3    H166713   0.813   2.370  14.436  1.0941 -0.4034  0.3708
15074TIP3    H266714   0.820   2.466  14.554  0.7953 -0.2951  0.3034
15075TIP3   OH266715   0.741   2.536   0.904  0.6051 -0.6856 -0.2069
15075TIP3    H166716   0.711   2.465   0.847 -0.0016 -0.4069 -0.2308
15075TIP3    H266717   0.825   2.504   0.939 -0.0242 -1.7426  0.3871
15076TIP3   OH266718   6.397   1.385  17.413  0.7318  0.3950 -0.0963
15076TIP3    H166719   6.338   1.373  17.339  0.1096  1.1525  0.2669
15076TIP3    H266720   6.404   1.480  17.423  0.1327  0.3025  1.3386
15077TIP3   OH266721   6.588   4.344   5.988 -0.4199  0.1108 -0.0963
15077TIP3    H166722   6.622   4.420   5.942  0.3320  0.2196  0.6236
15077TIP3    H266723   6.641   4.271   5.958  0.3116  0.2386  0.8272
15078TIP3   OH266724   4.284   3.492   3.186 -0.1968  0.0497  0.3041
15078TIP3    H166725   4.379   3.481   3.185 -0.2303 -0.5066 -1.8583
15078TIP3    H266726   4.271   3.586   3.201  0.7584  0.3632 -0.7458
15079TIP3   OH266727   6.212   0.119   0.507 -0.0454  0.1558  0.0827
15079TIP3    H166728   6.268   0.045   0.531 -0.6150 -0.6460 -0.9789
15079TIP3    H266729   6.132   0.105   0.558  0.0077  0.2677  0.1962
15080TIP3   OH266730   2.332   1.407  13.895 -0.0706  0.2185  0.0736
15080TIP3    H166731   2.323   1.376  13.805 -0.2720 -0.4951  0.3366
15080TIP3    H266732   2.326   1.503  13.888 -0.3596  0.1538 -0.6314
15081TIP3   OH266733   0.396   4.385  16.409 -0.3056 -0.7114 -0.3414
15081TIP3    H166734   0.409   4.291  16.397  0.4387 -0.5505 -0.8660
15081TIP3    H266735   0.365   4.416  16.324  0.5516 -0.3036 -0.5165
15082TIP3   OH266736   6.615   0.553   4.293 -0.1682 -0.4923  0.4515
15082TIP3    H166737   6.667   0.488   4.244  1.5210  0.6687  0.6404
15082TIP3    H266738   6.618   0.522   4.383 -1.7449 -1.6417  0.1439
15083TIP3   OH266739   5.991   3.885  14.597  0.0381  0.5256  0.2627
15083TIP3    H166740   5.902   3.896  14.564  0.6581  0.7770 -1.3852
15083TIP3    H266741   6.017   3.973  14.626 -0.3314  0.4000  0.9943
15084TIP3   OH266742   1.747   3.124  16.229 -0.4857  0.2143 -1.1542
15084TIP3    H166743   1.708   3.142  16.314 -0.6914 -0.2362 -1.1491
15084TIP3    H266744   1.818   3.063  16.247  1.1583  2.1043 -0.9841
15085TIP3   OH266745   0.313   5.403  15.111 -0.2449  0.1276  0.6895
15085TIP3    H166746   0.346   5.356  15.187  0.4184  0.0568  0.3628
15085TIP3    H266747   0.218   5.390  15.114 -0.1131 -0.8489  0.8606
15086TIP3   OH266748   3.699   6.628   2.946 -0.1647 -0.3315  0.1526
15086TIP3    H166749   3.762   6.609   2.876 -0.1057 -1.1136  0.4029
15086TIP3    H266750   3.750   6.619   3.027 -1.0542 -3.2251  0.4973
15087TIP3   OH266751   1.415   5.535  15.081 -0.0501 -0.1074 -0.1074
15087TIP3    H166752   1.495   5.561  15.126 -0.7104  0.8916  0.5244
15087TIP3    H266753   1.375   5.617  15.053  0.8756 -0.6742 -3.5593
15088TIP3   OH266754   6.766   3.805  11.770 -0.4890 -0.5440 -0.3432
15088TIP3    H166755   6.695   3.847  11.722  0.9757  1.1546 -1.1658
15088TIP3    H266756   6.748   3.711  11.764 -2.8499 -0.1547 -0.1498
15089TIP3   OH266757   3.932   4.054   1.978  0.5613 -0.4029 -0.2546
15089TIP3    H166758   4.025   4.073   1.972  0.5639 -0.5252 -0.6004
15089TIP3    H266759   3.889   4.139   1.974  0.7334 -0.1783  1.6793
15090TIP3   OH266760   4.336   6.538  16.543 -0.0224  0.3275  0.0320
15090TIP3    H166761   4.348   6.458  16.492  1.2031 -0.3096  1.2491
15090TIP3    H266762   4.426   6.567  16.562 -0.4572  0.7916  1.4352
15091TIP3   OH266763   3.080   0.479  10.928 -0.0718  0.5178 -0.0556
15091TIP3    H166764   3.125   0.396  10.947  0.3641  1.2775  2.5869
15091TIP3    H266765   3.011   0.484  10.994 -0.2387  2.1696 -0.3206
15092TIP3   OH266766   4.068   3.088  16.773  0.5277  0.3460  0.0889
15092TIP3    H166767   4.121   3.160  16.809  0.1645  0.5615  0.2027
15092TIP3    H266768   4.088   3.013  16.830 -1.6040  1.1907  2.1176
15093TIP3   OH266769   6.469   2.638  12.344  0.4234 -0.6848 -0.5578
15093TIP3    H166770   6.427   2.580  12.281 -0.1061  1.1842 -2.0260
15093TIP3    H266771   6.457   2.726  12.308 -0.0828  0.5311  2.2491
15094TIP3   OH266772   3.482   4.562   4.121 -0.6974  0.5177  0.1092
15094TIP3    H166773   3.427   4.506   4.066 -2.2176  0.7179  1.3474
15094TIP3    H266774   3.566   4.516   4.125 -1.5200 -1.0558  0.1120
15095TIP3   OH266775   0.230   5.442   4.219 -0.2750  0.3218  0.1664
15095TIP3    H166776   0.286   5.393   4.159  0.6623  0.6297  0.7686
15095TIP3    H266777   0.237   5.396   4.303 -0.7876  0.4606  0.2910
15096TIP3   OH266778   6.478   3.709  13.950 -0.6890  0.2386 -0.0728
15096TIP3    H166779   6.512   3.631  13.993 -0.3346  0.9999  1.0720
15096TIP3    H266780   6.456   3.680  13.862 -0.3587 -1.0952  0.2636
15097TIP3   OH266781   3.219   5.500   2.160  0.0575  0.6372  0.5173
15097TIP3    H166782   3.195   5.592   2.168 -1.8563  0.0297  3.0182
15097TIP3    H266783   3.172   5.470   2.082  0.9027  1.7738 -0.4727
15098TIP3   OH266784   1.927   1.433  16.180  0.4739 -0.5243 -0.0131
15098TIP3    H166785   1.987   1.464  16.248 -0.1288 -0.0420  0.3074
15098TIP3    H266786   1.969   1.353  16.146 -0.3390 -2.1755  2.5719
15099TIP3   OH266787   6.650   3.078  16.141  0.4119 -0.0996  0.0576
15099TIP3    H166788   6.585   3.140  16.176 -0.0134 -1.3825  1.6660
15099TIP3    H266789   6.684   3.121  16.063 -0.8767  1.5376  0.3328
15100TIP3   OH266790   3.167   0.921   5.355 -0.3485  0.3657  0.2084
15100TIP3    H166791   3.183   0.883   5.269  1.7233  1.0585  0.2387
15100TIP3    H266792   3.072   0.913   5.367 -0.8641  1.2093 -2.5771
15101TIP3   OH266793   6.527   1.781   6.160  0.5215  0.1749 -0.2665
15101TIP3    H166794   6.507   1.875   6.162 -0.9637 -0.1287  0.4888
15101TIP3    H266795   6.598   1.773   6.096  2.0669  2.0667  1.0557
15102TIP3   OH266796   6.026   1.349  16.983 -0.4331  0.0545 -0.5460
15102TIP3    H166797   5.988   1.281  16.927  0.1476  0.3972 -1.3924
15102TIP3    H266798   6.089   1.394  16.926 -1.3030  1.7704 -0.2395
15103TIP3   OH266799   5.976   5.609  15.247  0.2691  0.0290 -0.1321
15103TIP3    H166800   6.057   5.603  15.197  1.8879 -0.2258  2.3446
15103TIP3    H266801   5.934   5.523  15.234  1.3453 -0.5417  0.0184
15104TIP3   OH266802   5.931   4.191  12.527  0.0580  0.3278  0.0035
15104TIP3    H166803   5.894   4.278  12.539  0.1114  0.4032 -0.3804
15104TIP3    H266804   5.855   4.135  12.509  0.1242  0.4838 -0.7905
15105TIP3   OH266805   0.118   4.133   0.991  0.2302 -0.1061  0.5985
15105TIP3    H166806   0.066   4.057   0.967  0.4575  0.0644 -0.4753
15105TIP3    H266807   0.054   4.203   1.005  0.1788  0.4661 -2.0350
15106TIP3   OH266808   3.825   6.585  14.225 -0.1704  0.5049 -0.3268
15106TIP3    H166809   3.834   6.576  14.130  2.5038 -2.1506  0.0095
15106TIP3    H266810   3.778   6.667  14.237 -1.8833  0.2560 -3.9554
15107TIP3   OH266811   5.513   3.551  14.905  0.4080  0.2465  0.2625
15107TIP3    H166812   5.447   3.604  14.952 -0.0603 -0.8882  0.9218
15107TIP3    H266813   5.464   3.476  14.872  1.0585  0.2441 -0.7055
15108TIP3   OH266814   2.956   3.981  11.480  0.2811 -0.2129  0.0460
15108TIP3    H166815   3.004   4.059  11.505 -0.1698  0.4364 -1.0604
15108TIP3    H266816   3.002   3.949  11.402  1.8146 -2.3379  1.6901
15109TIP3   OH266817   3.096   5.136  12.777 -0.7118  0.1665  0.0652
15109TIP3    H166818   3.013   5.122  12.731 -0.9636 -0.5534  0.7274
15109TIP3    H266819   3.154   5.069  12.743 -0.9179 -0.4085  0.8351
15110TIP3   OH266820   2.662   3.132  14.420  0.3309  0.0173  0.7864
15110TIP3    H166821   2.610   3.108  14.497  0.4046 -0.1282  0.7895
15110TIP3    H266822   2.647   3.226  14.409  0.0806 -0.0225  0.7977
15111TIP3   OH266823   4.444   5.392  14.263 -0.3246  0.4308  0.1519
15111TIP3    H166824   4.418   5.461  14.203  0.0697 -1.3149 -2.1526
15111TIP3    H266825   4.375   5.327  14.257  0.4330 -0.4300  0.4740
15112TIP3   OH266826   4.749   2.491  17.268  0.3698  0.3327  0.4352
15112TIP3    H166827   4.816   2.560  17.268 -1.2923  2.0145 -0.2212
15112TIP3    H266828   4.668   2.537  17.288 -0.8178 -1.4466 -0.1091
15113TIP3   OH266829   6.569   3.715   3.353 -0.0935  0.0163  0.3363
15113TIP3    H166830   6.488   3.686   3.310 -0.5579 -1.8332  2.2832
15113TIP3    H266831   6.539   3.769   3.426  0.5836  1.1721 -0.2049
15114TIP3   OH266832   4.828   6.545   2.568 -0.1514  0.0328  0.1087
15114TIP3    H166833   4.754   6.494   2.537 -0.5543  0.0568  0.9892
15114TIP3    H266834   4.887   6.551   2.493  0.3208 -2.4685  0.1957
15115TIP3   OH266835   1.884   2.726   4.189  0.1051  0.1147  0.1856
15115TIP3    H166836   1.844   2.751   4.106 -1.0419 -2.5043 -0.1641
15115TIP3    H266837   1.825   2.759   4.256 -1.0110 -0.9769 -0.2252
15116TIP3   OH266838   4.447   4.711  15.858  0.4542  0.2762 -0.3007
15116TIP3    H166839   4.505   4.742  15.928 -1.7300 -0.1764  1.8442
15116TIP3    H266840   4.477   4.621  15.841  0.8904  0.3089  0.2361
15117TIP3   OH266841   4.227   2.951  13.648  0.0577 -0.4716 -0.5173
15117TIP3    H166842   4.269   3.004  13.580  0.0227  0.5627  0.2557
15117TIP3    H266843   4.173   2.888  13.599  0.2312  0.0858 -1.4499
15118TIP3   OH266844   0.428   2.660  14.199  0.1241  0.0296 -0.0337
15118TIP3    H166845   0.383   2.626  14.122 -1.4943  1.4817  0.2082
15118TIP3    H266846   0.404   2.600  14.269 -0.3886  0.0652 -0.1733
15119TIP3   OH266847   4.913   4.679  10.931 -0.1420 -0.1503  0.3718
15119TIP3    H166848   4.848   4.633  10.879 -1.0038  0.7854  0.5921
15119TIP3    H266849   4.954   4.740  10.870  0.7099 -0.8961  0.1773
15120TIP3   OH266850   4.122   2.718  16.395  0.5975 -0.1552  0.0289
15120TIP3    H166851   4.210   2.680  16.399  0.6031 -0.2062 -0.4447
15120TIP3    H266852   4.063   2.642  16.391  0.3436 -0.1987  2.8253
15121TIP3   OH266853   4.330   1.592   6.402  0.1193 -0.0212  0.6211
15121TIP3    H166854   4.402   1.654   6.412  0.4116  0.0237 -1.3374
15121TIP3    H266855   4.372   1.506   6.404 -0.4357 -0.3666  4.7347
15122TIP3   OH266856   1.370   5.441  14.260  0.2634 -0.3702  0.4025
15122TIP3    H166857   1.385   5.530  14.228  0.6818 -1.3269 -2.3878
15122TIP3    H266858   1.457   5.401  14.260 -0.2016 -1.4522 -0.8134
15123TIP3   OH266859   0.038   0.348  17.069  0.5474 -0.3811  0.5185
15123TIP3    H166860   0.033   0.423  17.009  1.6370  1.2221  2.3323
15123TIP3    H266861  -0.040   0.296  17.048 -1.7984  2.6622  0.9924
15124TIP3   OH266862   5.685   6.420  16.990  0.0724  0.2867 -0.4342
15124TIP3    H166863   5.594   6.451  16.991 -0.6679 -1.7358  0.4228
15124TIP3    H266864   5.736   6.495  17.019 -1.5293  0.9312  0.9157
15125TIP3   OH266865   4.587   0.545   4.123  0.3506 -0.1213 -0.0035
15125TIP3    H166866   4.503   0.524   4.164 -0.8816  1.5606 -1.5340
15125TIP3    H266867   4.572   0.534   4.030  2.6460 -2.3171 -0.2306
15126TIP3   OH266868   4.693   2.190  14.004 -0.1954  0.1847 -0.6670
15126TIP3    H166869   4.626   2.221  13.942  0.4501  2.2197 -0.4173
15126TIP3    H266870   4.690   2.253  14.076  0.5884 -0.8819  0.3243
15127TIP3   OH266871   0.903   4.405  11.741 -0.5622  0.1645 -0.0911
15127TIP3    H166872   0.944   4.430  11.658  1.3434 -1.5735  0.2351
15127TIP3    H266873   0.811   4.392  11.721  0.1212 -1.8104 -2.3674
15128TIP3   OH266874   4.097   5.763   3.040  0.2635 -0.5493  0.4480
15128TIP3    H166875   4.082   5.717   3.123 -0.1605 -0.9914  0.1281
15128TIP3    H266876   4.081   5.697   2.973 -1.4117  0.3030 -0.0576
15129TIP3   OH266877   0.922   2.862  12.471 -0.3263 -0.6636 -0.0290
15129TIP3    H166878   1.008   2.899  12.453 -0.6244 -0.5926 -1.4659
15129TIP3    H266879   0.938   2.771  12.495  0.1136 -0.9227 -1.2231
15130TIP3   OH266880   5.216   0.315   2.800  0.1620 -0.1191 -0.4436
15130TIP3    H166881   5.158   0.298   2.725 -1.3133 -1.7733  0.9813
15130TIP3    H266882   5.215   0.233   2.850  1.5807  0.7405  1.0947
15131TIP3   OH266883   6.416   1.445  16.474  0.6326  0.2518  0.3251
15131TIP3    H166884   6.408   1.368  16.418  0.4509  1.8468 -1.9805
15131TIP3    H266885   6.441   1.516  16.415  0.9484  1.9624  2.3722
15132TIP3   OH266886   0.670   2.630  14.814  0.4305 -0.0274 -0.3551
15132TIP3    H166887   0.600   2.679  14.772  1.3024  1.0058 -0.6328
15132TIP3    H266888   0.708   2.691  14.878  0.9171 -0.6567 -0.0262
15133TIP3   OH266889   2.144   5.291  16.372  0.5677  0.7577  0.0145
15133TIP3    H166890   2.157   5.236  16.295 -1.2426  1.3731 -0.7872
15133TIP3    H266891   2.061   5.261  16.409  1.7424  0.0073  2.1720
15134TIP3   OH266892   6.124   2.017  15.724  0.0929 -0.2186  0.1291
15134TIP3    H166893   6.093   1.931  15.753  0.9452 -1.5721 -2.6571
15134TIP3    H266894   6.208   2.029  15.768  0.1937 -1.0436  0.1739
15135TIP3   OH266895   0.233   4.729   0.961 -0.1092 -0.5234  0.5911
15135TIP3    H166896   0.148   4.699   0.929 -0.7002  0.3529  1.2796
15135TIP3    H266897   0.217   4.750   1.053  0.9366 -0.6559  0.8051
15136TIP3   OH266898   0.850   6.120  17.368 -0.3842  0.2223  0.3158
15136TIP3    H166899   0.887   6.157  17.448  0.4808  0.7098 -0.2926
15136TIP3    H266900   0.855   6.026  17.380  0.8840  0.2804  0.3362
15137TIP3   OH266901   6.421   3.062   3.152  0.1621  0.4657  1.0659
15137TIP3    H166902   6.454   3.150   3.136  2.2358 -0.4331 -0.0704
15137TIP3    H266903   6.356   3.048   3.083  1.0941  0.5107  0.1576
15138TIP3   OH266904   1.532   1.536  15.529 -0.2817  0.0099  0.3523
15138TIP3    H166905   1.592   1.596  15.574  1.5464 -0.3798 -1.4215
15138TIP3    H266906   1.458   1.591  15.504 -0.2153  0.7526  1.6476
15139TIP3   OH266907   6.074   2.841   0.360  0.3122 -0.6513  0.2130
15139TIP3    H166908   6.140   2.775   0.339  0.2136 -1.0890  1.2451
15139TIP3    H266909   6.117   2.924   0.341  0.1691 -1.0013 -1.8872
15140TIP3   OH266910   4.361   0.041   3.201 -0.1887  0.1628  0.1689
15140TIP3    H166911   4.266   0.031   3.193 -0.2818  0.9155  0.2815
15140TIP3    H266912   4.397  -0.033   3.151 -0.8301 -0.3762  0.4853
15141TIP3   OH266913   5.303   4.973  15.191 -0.5134 -0.4049 -0.3204
15141TIP3    H166914   5.226   4.955  15.244 -0.2799  1.2951  0.6896
15141TIP3    H266915   5.325   4.889  15.151 -0.8143 -1.7408  2.1186
15142TIP3   OH266916   2.157   1.201  11.972  0.1105  0.1119  0.3559
15142TIP3    H166917   2.241   1.240  11.996  0.3133 -0.5311  0.7089
15142TIP3    H266918   2.178   1.110  11.950 -0.3441  0.2120 -0.5512
15143TIP3   OH266919   2.834   6.629  16.949 -0.4063  0.0292 -0.0117
15143TIP3    H166920   2.811   6.546  16.991 -0.2063 -0.2211 -0.3886
15143TIP3    H266921   2.750   6.674  16.937 -0.7031 -0.7723 -1.1617
15144TIP3   OH266922   4.619   1.354   5.333  0.2826 -0.1596  0.1377
15144TIP3    H166923   4.657   1.306   5.259 -0.7872 -0.7666 -0.0284
15144TIP3    H266924   4.689   1.415   5.359  0.5011  0.4869 -1.7421
15145TIP3   OH266925   5.029   2.199   5.650  0.3614 -0.5263 -0.3481
15145TIP3    H166926   5.038   2.208   5.555  0.5937  1.3613 -0.1847
15145TIP3    H266927   5.089   2.127   5.673  1.3476 -0.1081 -1.4750
15146TIP3   OH266928   3.019   0.116  16.537  0.2974  0.1718 -0.3222
15146TIP3    H166929   3.005   0.037  16.589  1.8076  0.5881  0.8152
15146TIP3    H266930   3.052   0.180  16.600 -1.3435  1.8892 -1.1120
15147TIP3   OH266931   2.667   6.490  13.266 -0.2022  0.4001 -0.2076
15147TIP3    H166932   2.757   6.482  13.299 -0.0059 -0.8962 -0.9555
15147TIP3    H266933   2.677   6.535  13.182 -0.3315  0.8275  0.0040
15148TIP3   OH266934   2.177   0.365   3.720  0.1130  0.4511  0.1988
15148TIP3    H166935   2.154   0.400   3.634  1.4735 -0.3028 -0.5182
15148TIP3    H266936   2.108   0.395   3.778 -0.4833  1.5457 -1.0291
15149TIP3   OH266937   1.338   3.828   3.128  0.2378  0.4529  0.5344
15149TIP3    H166938   1.301   3.744   3.157 -1.0833  0.8913  0.2125
15149TIP3    H266939   1.413   3.804   3.075 -0.8227 -0.6114 -0.5660
15150TIP3   OH266940   5.948   6.560   0.851  0.0618  0.0137 -0.1456
15150TIP3    H166941   6.029   6.550   0.801 -1.0672 -3.0836 -1.6213
15150TIP3    H266942   5.948   6.652   0.879  3.2162  0.5560 -1.5098
15151TIP3   OH266943   3.353   3.074  15.504  0.4709 -0.0288  0.5045
15151TIP3    H166944   3.413   3.064  15.430 -1.3407  2.1572 -1.3927
15151TIP3    H266945   3.330   3.167  15.504 -3.0126 -0.7662  1.0044
15152TIP3   OH266946   5.398   5.837  12.408  0.2525 -0.2896  0.2422
15152TIP3    H166947   5.395   5.778  12.333 -0.0165  0.3537 -0.2548
15152TIP3    H266948   5.448   5.913  12.378 -0.0895  0.0909  0.6223
15153TIP3   OH266949   3.455   2.067   5.930 -0.2296 -0.2097 -0.2604
15153TIP3    H166950   3.419   2.027   5.851 -0.4602  1.5823 -1.1047
15153TIP3    H266951   3.534   2.111   5.900 -1.2876  2.0455  0.0831
15154TIP3   OH266952   3.717   1.853  14.396 -0.6326 -0.6801 -0.4639
15154TIP3    H166953   3.741   1.945  14.385  1.7280 -1.1847 -0.2101
15154TIP3    H266954   3.686   1.847  14.486 -0.4891 -0.1784 -0.3787
15155TIP3   OH266955   0.013   2.335  12.644  0.2872 -0.0774  0.1661
15155TIP3    H166956  -0.073   2.364  12.614  0.5031  2.6302  1.8573
15155TIP3    H266957  -0.006   2.265  12.706 -0.8744  1.5138  1.6939
15156TIP3   OH266958   0.470   3.404   4.645  0.7023  0.0686  0.8376
15156TIP3    H166959   0.488   3.374   4.555 -1.0922 -1.1188  0.8186
15156TIP3    H266960   0.506   3.493   4.648  1.6396 -0.2082 -0.7575
15157TIP3   OH266961   5.491   3.539   5.428  0.1012  0.5403 -0.0514
15157TIP3    H166962   5.528   3.591   5.358  1.4905  1.4757  1.3142
15157TIP3    H266963   5.438   3.600   5.478 -0.3401  0.0408  0.0976
15158TIP3   OH266964   2.187   5.596   4.393  0.1682 -0.0168  0.2293
15158TIP3    H166965   2.194   5.545   4.312  0.1294 -0.0618  0.2544
15158TIP3    H266966   2.128   5.668   4.371  0.1250 -0.0521  0.2297
15159TIP3   OH266967   5.577   6.409  13.797  0.3649 -0.0962 -0.1889
15159TIP3    H166968   5.493   6.375  13.828  0.0054  1.7040  0.9619
15159TIP3    H266969   5.639   6.337  13.809 -1.3061 -2.2179 -3.0003
15160TIP3   OH266970   1.960   2.169   0.918  0.1734  0.0880 -0.2378
15160TIP3    H166971   1.901   2.180   0.844  1.0623 -0.2392 -1.0110
15160TIP3    H266972   2.016   2.247   0.916 -1.4080  1.3572  1.6298
15161TIP3   OH266973   6.641   2.325  11.817 -0.7216 -0.1093 -0.1548
15161TIP3    H166974   6.675   2.243  11.781 -1.2855 -1.6719  2.5658
15161TIP3    H266975   6.546   2.314  11.815 -0.8022  0.4611  0.2839
15162TIP3   OH266976   2.141   6.391   4.575 -0.2742  0.2267  0.3935
15162TIP3    H166977   2.069   6.453   4.588 -0.3119 -0.2993  3.3842
15162TIP3    H266978   2.220   6.442   4.594 -0.1550 -0.1219  0.8474
15163TIP3   OH266979   5.221   5.234   5.921 -0.1744 -0.1904 -0.0164
15163TIP3    H166980   5.146   5.292   5.912 -0.1560 -0.2372 -0.4766
15163TIP3    H266981   5.226   5.187   5.838  0.9804  0.5516 -0.3902
15164TIP3   OH266982   0.906   2.190  11.354 -0.1984 -0.2738  0.2935
15164TIP3    H166983   0.921   2.098  11.378  1.1959  0.0206  0.6344
15164TIP3    H266984   0.836   2.219  11.412 -0.3451 -1.0044  0.4915
15165TIP3   OH266985   0.787   1.130  13.320  0.3077  0.0426  0.0997
15165TIP3    H166986   0.852   1.063  13.338 -0.4908 -0.6074  0.6243
15165TIP3    H266987   0.769   1.171  13.405  0.8686  1.0117 -0.2298
15166TIP3   OH266988   4.642   4.493   5.596  0.1047 -0.7928 -0.4136
15166TIP3    H166989   4.685   4.517   5.678  0.0736  0.4151 -0.7279
15166TIP3    H266990   4.707   4.440   5.549  1.2218  0.7943 -0.7752
15167TIP3   OH266991   2.747   2.660   4.243 -0.4453 -0.8543  0.2829
15167TIP3    H166992   2.840   2.677   4.253 -0.4146  0.2382 -1.4555
15167TIP3    H266993   2.706   2.715   4.311  0.0863  0.2473 -0.2592
15168TIP3   OH266994   4.790   3.775   1.397 -0.1334 -0.4540  0.1755
15168TIP3    H166995   4.800   3.716   1.322  1.3533 -0.5381  0.4088
15168TIP3    H266996   4.704   3.754   1.433 -0.8324 -0.4929 -1.4253
15169TIP3   OH266997   0.964   0.707  17.493 -0.2138 -0.2598  0.0641
15169TIP3    H166998   0.881   0.666  17.520 -0.7130  2.2952  2.9551
15169TIP3    H266999   1.028   0.636  17.500 -1.7520 -1.7370  0.0329
15170TIP3   OH267000   3.706   5.741   3.840  0.2139  0.0389 -0.0851
15170TIP3    H167001   3.666   5.655   3.830  1.2899 -0.5202  0.1941
15170TIP3    H267002   3.692   5.763   3.932 -2.2437  1.3292 -0.6894
15171TIP3   OH267003   0.824   0.266  12.910 -0.2756  0.3407 -0.0755
15171TIP3    H167004   0.744   0.317  12.924 -0.1727  0.3371  0.5123
15171TIP3    H267005   0.895   0.330  12.917 -0.1727  0.1911  0.2567
15172TIP3   OH267006   5.489   4.840  17.040 -0.4048 -0.2618 -0.4785
15172TIP3    H167007   5.424   4.900  17.002 -1.6549 -1.1806  0.1319
15172TIP3    H267008   5.571   4.888  17.035 -1.6067  2.2557  1.5469
15173TIP3   OH267009   2.566   4.445  16.457 -0.1634 -0.1245 -0.9444
15173TIP3    H167010   2.587   4.378  16.523  1.8725  1.3287 -0.0059
15173TIP3    H267011   2.619   4.420  16.381  0.3548  0.2439 -0.7043
15174TIP3   OH267012   2.319   0.525  16.913 -0.3829  0.1335  0.2873
15174TIP3    H167013   2.256   0.500  16.980 -1.3062 -1.4311 -1.0925
15174TIP3    H267014   2.277   0.595  16.864 -0.5631 -0.1078  0.0963
15175TIP3   OH267015   5.280   0.749  16.254 -0.1055  0.3406  0.4672
15175TIP3    H167016   5.286   0.654  16.239  0.3197  0.6300 -1.5909
15175TIP3    H267017   5.187   0.766  16.262 -0.1669 -0.2924  1.2422
15176TIP3   OH267018   0.149   2.053  10.825 -0.2090 -0.6078  0.1159
15176TIP3    H167019   0.175   2.116  10.758 -0.5585 -0.0719  0.4815
15176TIP3    H267020   0.062   2.082  10.853  0.1785 -0.4761  1.2169
15177TIP3   OH267021   2.218   0.680  11.682 -0.1423 -0.4970  0.4738
15177TIP3    H167022   2.229   0.747  11.749  0.7673  1.2231 -1.2902
15177TIP3    H267023   2.134   0.701  11.641  0.0063 -0.5886  0.1115
15178TIP3   OH267024   5.963   1.490  17.267  0.4710  0.1626  0.1303
15178TIP3    H167025   5.944   1.487  17.174 -0.7079  1.6108  0.2898
15178TIP3    H267026   5.912   1.564  17.300  2.8125  1.2897  1.4808
15179TIP3   OH267027   5.057   3.424   5.151  0.4234  0.4007 -0.0919
15179TIP3    H167028   5.035   3.400   5.241 -0.5349  4.2526  0.9089
15179TIP3    H267029   5.153   3.428   5.150  0.4634 -0.1301  0.5892
15180TIP3   OH267030   4.915   4.579   1.486 -1.1136 -0.1959  0.0335
15180TIP3    H167031   4.854   4.647   1.460 -1.5684 -0.1141  1.2410
15180TIP3    H267032   4.979   4.624   1.542 -0.9707 -0.6075  0.2100
15181TIP3   OH267033   2.024   0.406  10.845 -0.3570 -0.3406  0.0144
15181TIP3    H167034   1.964   0.353  10.898  0.1862 -1.3244 -0.3357
15181TIP3    H267035   2.084   0.444  10.909  0.4928 -1.7827  0.1083
15182TIP3   OH267036   6.533   0.702   1.535  0.4995 -0.3614 -0.0526
15182TIP3    H167037   6.523   0.617   1.576 -0.1867 -0.4121 -0.3151
15182TIP3    H267038   6.530   0.764   1.608  0.2481 -0.5144  0.0682
15183TIP3   OH267039   6.344   3.907  12.026 -0.1436  0.1365  0.1017
15183TIP3    H167040   6.430   3.870  12.045  0.2259  1.3987  0.9871
15183TIP3    H267041   6.325   3.877  11.937 -0.0760 -2.5083  0.8917
15184TIP3   OH267042   6.224   3.063   2.953  0.4488 -0.4848 -0.4932
15184TIP3    H167043   6.246   3.132   2.890 -0.1642 -1.0288 -1.3213
15184TIP3    H267044   6.209   2.985   2.900 -0.5078 -0.8514  0.2826
15185TIP3   OH267045   2.734   6.706   1.285  0.0036  0.2794  0.2737
15185TIP3    H167046   2.782   6.782   1.318 -0.6703  0.1874  1.5188
15185TIP3    H267047   2.670   6.742   1.224  0.4292  0.5893  0.0052
15186TIP3   OH267048   1.133   3.889   0.810 -0.3292  0.1975 -0.1042
15186TIP3    H167049   1.221   3.897   0.774 -0.4995  1.8151 -0.2332
15186TIP3    H267050   1.082   3.957   0.765 -2.0370 -1.6212 -1.1143
15187TIP3   OH267051   0.296   1.301  12.918 -0.5343 -0.1481 -0.1516
15187TIP3    H167052   0.211   1.285  12.958  0.0738  1.3788  1.9368
15187TIP3    H267053   0.337   1.368  12.974  1.9651 -0.7032 -1.1716
15188TIP3   OH267054   0.272   6.223  13.012 -0.3376  0.5004 -0.1190
15188TIP3    H167055   0.231   6.207  12.927 -0.3074  2.7322 -0.6176
15188TIP3    H267056   0.200   6.251  13.068 -0.0241  1.2606 -0.0803
15189TIP3   OH267057   4.516   0.404  14.282 -0.1326  0.0122  0.0226
15189TIP3    H167058   4.539   0.374  14.194  0.7076  0.2895  0.1320
15189TIP3    H267059   4.591   0.378  14.336 -0.3112  0.4935  0.5109
15190TIP3   OH267060   5.631   6.389   5.352 -0.0031 -0.2953  0.2909
15190TIP3    H167061   5.542   6.423   5.366  0.2695 -0.7135  4.4959
15190TIP3    H267062   5.622   6.326   5.281 -2.7800  0.6004 -0.2951
15191TIP3   OH267063   6.223   5.370  12.043 -0.1897  0.5799  0.0943
15191TIP3    H167064   6.315   5.382  12.017 -0.6809 -1.1809 -3.0298
15191TIP3    H267065   6.175   5.435  11.992 -0.8321  0.4983  0.5811
15192TIP3   OH267066   5.887   5.417   0.906 -0.1514 -0.7044  0.0734
15192TIP3    H167067   5.971   5.456   0.927 -0.1916 -1.6516  2.2520
15192TIP3    H267068   5.823   5.472   0.951 -0.6173 -0.5863 -0.7154
15193TIP3   OH267069   2.165   2.203  16.018 -0.4796 -0.1638  0.1579
15193TIP3    H167070   2.194   2.280  15.969 -1.9846  0.9772  0.9667
15193TIP3    H267071   2.084   2.176  15.975 -0.1970 -1.0410  0.1587
15194TIP3   OH267072   0.641   4.652   5.885 -0.1586 -0.1288  0.5634
15194TIP3    H167073   0.673   4.660   5.795  1.0277  0.3070  1.0080
15194TIP3    H267074   0.720   4.646   5.938 -0.8222  0.7121  1.6796
15195TIP3   OH267075   0.932   5.849   5.811  0.0791  0.2374 -0.3358
15195TIP3    H167076   0.855   5.803   5.844 -0.3093  0.7771 -0.4729
15195TIP3    H267077   0.898   5.931   5.776  0.6967  0.4086 -0.5560
15196TIP3   OH267078   0.858   6.121   1.185  0.0855 -0.0521  0.5694
15196TIP3    H167079   0.939   6.068   1.184 -0.1923 -0.5446  1.7899
15196TIP3    H267080   0.788   6.057   1.174 -0.1399  0.4266 -0.9369
15197TIP3   OH267081   4.052   0.833   1.738  0.1467 -0.4336  0.1001
15197TIP3    H167082   4.146   0.823   1.755  0.3251 -0.3214 -0.7667
15197TIP3    H267083   4.029   0.917   1.779  0.6312 -0.0071 -0.4898
15198TIP3   OH267084   2.246   4.494   5.859 -0.6836  0.1372 -0.0600
15198TIP3    H167085   2.335   4.528   5.864 -1.5209  2.5886 -0.2480
15198TIP3    H267086   2.245   4.420   5.919  1.0625  1.0864  1.2528
15199TIP3   OH267087   1.663   3.138   0.482 -0.7944  0.3748  0.0361
15199TIP3    H167088   1.605   3.202   0.525 -1.8469  0.6707 -1.7604
15199TIP3    H267089   1.638   3.054   0.520 -2.5336  0.4766 -0.8059
15200TIP3   OH267090   5.411   6.514  17.078  0.2831 -0.0163 -0.2506
15200TIP3    H167091   5.432   6.479  17.164  1.6278  0.5306 -0.3328
15200TIP3    H267092   5.390   6.606  17.094 -1.2262 -0.3143 -0.3049
15201TIP3   OH267093   1.584   1.286   3.046  0.1518 -0.2794 -0.8986
15201TIP3    H167094   1.492   1.284   3.075 -0.0555 -0.2482 -1.5499
15201TIP3    H267095   1.580   1.307   2.953  0.8721  0.7540 -0.7131
15202TIP3   OH267096   0.015   3.922   4.629 -0.1639 -0.2434  0.3198
15202TIP3    H167097   0.023   3.959   4.541  0.0997 -0.0253  0.4304
15202TIP3    H267098   0.011   3.828   4.616 -0.9074 -0.1744  0.0270
15203TIP3   OH267099   0.895   5.232  10.624 -0.0019  0.7196  0.7884
15203TIP3    H167100   0.804   5.204  10.620  0.2220 -0.0577  1.1274
15203TIP3    H267101   0.899   5.288  10.701 -0.0965  0.4009  1.0265
15204TIP3   OH267102   0.177   1.866   2.753  0.0606  0.0498  0.0441
15204TIP3    H167103   0.268   1.895   2.752  0.1648 -0.2544  0.8308
15204TIP3    H267104   0.136   1.917   2.822  0.3324 -1.9061  1.7244
15205TIP3   OH267105   3.297   0.091  15.576 -0.3698 -0.2389 -0.1220
15205TIP3    H167106   3.229   0.158  15.564  1.4374  1.7214 -0.1452
15205TIP3    H267107   3.271   0.045  15.656 -2.7693 -0.9893 -1.2336
15206TIP3   OH267108   2.337   2.517   5.972 -0.3337 -0.3764 -0.7867
15206TIP3    H167109   2.383   2.520   6.056 -0.1741 -2.7831 -0.7172
15206TIP3    H267110   2.402   2.548   5.909 -0.1105  0.4730 -0.1508
15207TIP3   OH267111   6.656   2.672   5.083 -0.0456 -0.7187 -0.0771
15207TIP3    H167112   6.619   2.665   5.170  2.4053  0.4250  1.1708
15207TIP3    H267113   6.647   2.764   5.060 -1.4935 -1.1680 -1.4908
15208TIP3   OH267114   2.547   5.505   1.023  0.0851  0.6751 -0.1676
15208TIP3    H167115   2.535   5.491   1.117 -0.7129  1.7963 -0.0846
15208TIP3    H267116   2.473   5.559   0.997 -1.8139 -2.5726 -2.1908
15209TIP3   OH267117   4.249   5.845  15.827  0.4004  0.0942  0.3643
15209TIP3    H167118   4.155   5.841  15.815  0.3811  0.0778  0.5127
15209TIP3    H267119   4.272   5.936  15.809  0.3873  0.0497  0.1175
15210TIP3   OH267120   3.814   3.360  10.539  0.1432  0.2910 -0.2198
15210TIP3    H167121   3.858   3.288  10.493 -0.6068 -1.1228  1.1624
15210TIP3    H267122   3.726   3.362  10.502  0.0392  0.2216  0.0215
15211TIP3   OH267123   5.315   6.685   3.226 -0.1174 -0.3366  0.5309
15211TIP3    H167124   5.386   6.664   3.166 -0.7819 -0.1762 -0.3297
15211TIP3    H267125   5.280   6.768   3.194  0.1553  0.2677  1.7430
15212TIP3   OH267126   4.239   3.915  13.163 -0.3503 -0.6431 -0.0226
15212TIP3    H167127   4.332   3.922  13.182  0.0235 -2.6896 -0.9113
15212TIP3    H267128   4.198   3.908  13.249  0.2180  0.7439  0.4012
15213TIP3   OH267129   4.445   6.598  14.290 -0.1070 -0.1505 -0.5363
15213TIP3    H167130   4.536   6.581  14.266  0.1756  0.2661  0.1927
15213TIP3    H267131   4.450   6.634  14.379 -1.0022 -0.3796 -0.3812
15214TIP3   OH267132   6.636   3.174  10.658 -0.2424  0.0202  0.4408
15214TIP3    H167133   6.711   3.185  10.716 -0.0587 -1.1524  0.4391
15214TIP3    H267134   6.632   3.256  10.609  1.0754  0.0748  0.3898
15215TIP3   OH267135   1.748   5.500  16.012 -0.8213 -0.2888  0.4575
15215TIP3    H167136   1.686   5.509  15.940  1.6777 -0.3039 -1.8719
15215TIP3    H267137   1.706   5.543  16.086 -3.2197  0.3850 -1.1842
15216TIP3   OH267138   3.212   6.148   4.229 -0.3771  0.7392  0.2317
15216TIP3    H167139   3.191   6.062   4.266 -2.4258  1.8628  1.9481
15216TIP3    H267140   3.302   6.165   4.256  0.5513 -1.3582 -1.2734
15217TIP3   OH267141   5.327   2.949   5.771  0.2343  0.3404  0.1860
15217TIP3    H167142   5.413   2.977   5.738 -0.1036  0.1079 -0.9483
15217TIP3    H267143   5.343   2.926   5.862  1.3137  0.6241  0.0883
15218TIP3   OH267144   6.316   1.131   0.016 -0.2955 -0.3912  0.4411
15218TIP3    H167145   6.318   1.227   0.008 -0.5667 -0.1364  2.8415
15218TIP3    H267146   6.392   1.102  -0.034 -0.7335  0.9820 -1.1270
15219TIP3   OH267147   3.821   6.082  13.251 -0.5273  0.3871  0.1289
15219TIP3    H167148   3.888   6.072  13.183 -0.4011  1.5784  0.0584
15219TIP3    H267149   3.747   6.031  13.219  0.4978 -1.3776  0.4520
15220TIP3   OH267150   1.212   3.192  11.615  0.6765  0.8185 -0.1264
15220TIP3    H167151   1.220   3.278  11.575  0.7760  1.2906  0.8831
15220TIP3    H267152   1.169   3.208  11.699  1.4135 -0.0051  0.4293
15221TIP3   OH267153   3.253   6.583   6.521 -0.4529  0.0035 -0.5968
15221TIP3    H167154   3.290   6.642   6.455  1.1035  0.5059  0.6520
15221TIP3    H267155   3.325   6.569   6.583 -1.6755 -0.9445  0.6630
15222TIP3   OH267156   0.074   6.190   3.559 -0.3332  0.2766 -0.3912
15222TIP3    H167157   0.067   6.141   3.642 -2.1086  0.7728 -0.2131
15222TIP3    H267158   0.003   6.155   3.505  0.6802  0.1187 -1.6525
15223TIP3   OH267159   2.471   4.740  11.609 -0.0495  0.3177  0.1468
15223TIP3    H167160   2.529   4.750  11.684  1.0971  1.8288 -0.8737
15223TIP3    H267161   2.448   4.829  11.584 -1.1824 -0.1890 -0.7237
15224TIP3   OH267162   4.579   6.067   4.476  0.1584 -0.0479 -0.0946
15224TIP3    H167163   4.535   6.045   4.557  1.6807  2.4529  1.5526
15224TIP3    H267164   4.672   6.059   4.497  0.5913 -0.3406 -1.9478
15225TIP3   OH267165   3.550   3.294  14.373 -0.1675 -0.4528  0.6332
15225TIP3    H167166   3.506   3.221  14.330  0.2326 -0.4210  0.1493
15225TIP3    H267167   3.480   3.355  14.397 -0.3643 -0.2322 -0.4487
15226TIP3   OH267168   2.123   3.439  16.839 -0.0705 -0.5436  0.8513
15226TIP3    H167169   2.209   3.416  16.874  1.1349  1.6176 -0.4865
15226TIP3    H267170   2.142   3.481  16.754 -2.5998 -2.0159 -0.5606
15227TIP3   OH267171   6.630   0.519  13.694 -0.5270 -0.0423 -0.5539
15227TIP3    H167172   6.545   0.495  13.657 -0.3328  1.1952 -1.9200
15227TIP3    H267173   6.692   0.508  13.621 -0.1053  2.3794 -0.6683
15228TIP3   OH267174   2.810   4.845   0.292  0.1333 -0.2586 -0.1471
15228TIP3    H167175   2.873   4.889   0.350 -3.9109  1.7399  3.2706
15228TIP3    H267176   2.822   4.752   0.310  0.8028  0.1752  1.9555
15229TIP3   OH267177   6.404   3.904   3.495  0.1950 -0.0443 -0.3102
15229TIP3    H167178   6.364   3.969   3.438 -0.7769 -1.6280 -1.5241
15229TIP3    H267179   6.383   3.934   3.584 -0.7482  0.9678 -0.8483
15230TIP3   OH267180   1.402   1.788   4.804  0.2976  0.3516 -0.4815
15230TIP3    H167181   1.482   1.744   4.834 -1.2016 -1.3557  1.3246
15230TIP3    H267182   1.400   1.869   4.854 -0.1475 -0.6296  1.1816
15231TIP3   OH267183   0.290   3.015  16.962  0.0304  0.0225 -0.1307
15231TIP3    H167184   0.258   2.930  16.932 -0.5089  0.6202 -1.3382
15231TIP3    H267185   0.297   3.067  16.882  2.2881  0.5128  0.3402
15232TIP3   OH267186   1.053   6.469   0.248  0.1452 -0.2070 -0.1324
15232TIP3    H167187   1.061   6.374   0.246  1.3991 -0.1098 -0.9194
15232TIP3    H267188   1.037   6.489   0.340  2.1451 -1.0482  0.4506
15233TIP3   OH267189   5.612   2.357  17.137 -0.1911 -0.1601 -0.0604
15233TIP3    H167190   5.580   2.388  17.222 -0.7298 -0.3706 -0.1784
15233TIP3    H267191   5.574   2.269  17.128  1.5079 -0.9831  0.3808
15234TIP3   OH267192   1.782   6.122   1.752  0.8220  0.6851  0.4054
15234TIP3    H167193   1.837   6.200   1.749  0.7681  0.7280  0.5300
15234TIP3    H267194   1.700   6.152   1.791  0.9582  0.4736  0.8707
15235TIP3   OH267195   5.483   3.373   1.622  0.3022  0.0887 -0.5806
15235TIP3    H167196   5.450   3.354   1.710 -0.8619  1.5775 -0.6400
15235TIP3    H267197   5.532   3.455   1.633  1.4935 -0.5332 -1.0607
15236TIP3   OH267198   5.293   0.200   0.935  0.5718 -0.7938  0.0557
15236TIP3    H167199   5.332   0.115   0.954 -0.1287 -1.2069 -0.2968
15236TIP3    H267200   5.199   0.185   0.941  0.3886 -0.3714 -1.3186
15237TIP3   OH267201   3.101   0.753  12.535  0.3694 -0.4986 -0.1384
15237TIP3    H167202   3.050   0.672  12.527  0.5954 -0.7566  0.8589
15237TIP3    H267203   3.124   0.757  12.628  1.9811 -0.2818 -0.5250
15238TIP3   OH267204   6.484   3.507  12.405 -0.2092 -0.2846  0.0067
15238TIP3    H167205   6.521   3.542  12.486  0.0244 -0.4773 -0.0137
15238TIP3    H267206   6.441   3.582  12.364  1.1491  0.2514 -0.5270
15239TIP3   OH267207   1.600   3.560   3.287  0.5322 -0.1401 -0.1257
15239TIP3    H167208   1.639   3.645   3.307 -1.5196  0.9497 -0.5259
15239TIP3    H267209   1.668   3.497   3.310  1.3712  1.4702  2.1336
15240TIP3   OH267210   1.910   2.722   1.747 -0.4821  0.0056  0.5127
15240TIP3    H167211   1.857   2.643   1.756  1.7635 -1.3773  3.1003
15240TIP3    H267212   1.995   2.690   1.714  0.5574  1.2500  1.8420
15241TIP3   OH267213   0.051   2.110   4.367 -0.3879  0.0294 -0.9441
15241TIP3    H167214  -0.017   2.167   4.401 -0.4663 -0.3446 -0.4593
15241TIP3    H267215   0.093   2.161   4.298 -0.0027  0.9454 -0.0634
15242TIP3   OH267216   5.913   6.225   0.663  0.3442 -0.7374  0.0166
15242TIP3    H167217   5.963   6.223   0.744  0.3325 -0.4731  0.0312
15242TIP3    H267218   5.896   6.133   0.643 -1.1751 -0.7594  1.2414
15243TIP3   OH267219   2.659   2.814  12.474  0.0103 -0.2347  0.1018
15243TIP3    H167220   2.716   2.842  12.402  0.8239  1.7247  1.4146
15243TIP3    H267221   2.570   2.826  12.441  0.3511 -0.4491 -0.9385
15244TIP3   OH267222   5.728   5.591  16.475 -0.3291 -0.0343  0.2057
15244TIP3    H167223   5.641   5.614  16.507 -0.1452 -1.2391  1.6955
15244TIP3    H267224   5.713   5.515  16.418 -0.2960 -0.0495  0.2164
15245TIP3   OH267225   1.937   6.184  12.567 -0.3920  0.5235  0.6983
15245TIP3    H167226   1.897   6.123  12.506 -0.5476  1.6793 -0.4098
15245TIP3    H267227   1.921   6.270  12.528  2.3173  1.1144  0.6649
15246TIP3   OH267228   2.694   0.414  13.086  0.5691 -0.2961  0.0862
15246TIP3    H167229   2.770   0.443  13.136  0.3843 -1.0445  0.8173
15246TIP3    H267230   2.701   0.461  13.003  0.6205  1.3477  0.9777
15247TIP3   OH267231   2.087   3.664  12.449  0.0242  0.3145 -0.0215
15247TIP3    H167232   2.066   3.724  12.378  0.7643  1.8859  1.0318
15247TIP3    H267233   2.033   3.587  12.432  1.0935  0.1044 -2.9564
15248TIP3   OH267234   1.161   1.587   3.826 -0.0295 -0.0164 -0.7685
15248TIP3    H167235   1.256   1.585   3.821  0.2334  0.9083  2.0554
15248TIP3    H267236   1.138   1.680   3.822 -0.2284  0.3475  3.5802
15249TIP3   OH267237   2.909   4.812  12.974  0.0040  0.3922 -0.4011
15249TIP3    H167238   2.933   4.748  12.907  1.1130  0.6619 -0.2881
15249TIP3    H267239   2.927   4.767  13.057  0.0745  0.5789 -0.3144
15250TIP3   OH267240   4.144   6.093   1.718  0.2036  0.1448  0.6009
15250TIP3    H167241   4.228   6.135   1.701  0.7127 -0.4170  1.6708
15250TIP3    H267242   4.083   6.165   1.730 -0.1927  0.6481 -3.1651
15251TIP3   OH267243   6.726   3.079  16.564 -0.1344 -0.0068 -0.3001
15251TIP3    H167244   6.651   3.129  16.597  0.8528  0.3051  1.6438
15251TIP3    H267245   6.696   2.988  16.562 -0.6258  0.1365  0.2891
15252TIP3   OH267246   0.257   5.336   1.941 -0.3078  0.1120 -0.5292
15252TIP3    H167247   0.170   5.377   1.941 -0.5149 -0.3272 -0.6267
15252TIP3    H267248   0.309   5.392   1.999 -1.5911 -1.5772  2.4606
15253TIP3   OH267249   3.915   0.902  11.700  0.6133  0.2874  0.8227
15253TIP3    H167250   3.900   0.911  11.794  0.3091  1.1371  0.6993
15253TIP3    H267251   3.842   0.949  11.659  0.6784 -0.1658  0.1543
15254TIP3   OH267252   6.482   0.606  16.117  0.1743 -0.2660 -0.8890
15254TIP3    H167253   6.433   0.684  16.091 -1.3662 -1.0556 -0.5049
15254TIP3    H267254   6.573   0.627  16.097 -0.3168  1.2300 -1.7377
15255TIP3   OH267255   4.174   4.497   4.607  0.6577  0.6957 -0.3182
15255TIP3    H167256   4.200   4.474   4.518 -0.3566 -1.3284 -0.1565
15255TIP3    H267257   4.251   4.475   4.661  0.2524 -1.0203 -0.3717
15256TIP3   OH267258   0.152   1.861   0.727  0.0620 -0.4523 -0.1378
15256TIP3    H167259   0.117   1.921   0.660 -0.4691  1.9765  2.1390
15256TIP3    H267260   0.077   1.806   0.750 -0.3836  0.1673 -0.0594
15257TIP3   OH267261   6.679   5.703   3.653 -0.0757 -0.3764 -0.0745
15257TIP3    H167262   6.713   5.613   3.652 -0.3901 -0.5455 -2.3139
15257TIP3    H267263   6.746   5.754   3.697  0.7525 -1.5133  0.0148
15258TIP3   OH267264   2.598   0.852  12.600  0.0706 -0.3648  0.7950
15258TIP3    H167265   2.638   0.834  12.515 -0.7584  0.8977  0.0993
15258TIP3    H267266   2.648   0.926  12.635 -0.5397  0.1152  0.6853
15259TIP3   OH267267   4.281   4.765  12.234 -0.1798  0.2162  0.2491
15259TIP3    H167268   4.197   4.719  12.227 -1.2303  1.8833  1.2012
15259TIP3    H267269   4.258   4.855  12.257  1.8984  0.5882  1.1770
15260TIP3   OH267270   4.466   5.926   2.943 -0.0740 -0.6429 -0.0848
15260TIP3    H167271   4.475   5.981   3.021 -0.6968 -0.1526 -0.3498
15260TIP3    H267272   4.472   5.837   2.977  4.7166 -0.5501 -0.0589
15261TIP3   OH267273   3.447   3.174   5.643 -0.0168 -0.2062  0.0365
15261TIP3    H167274   3.452   3.123   5.724  1.2485  0.6676  0.5573
15261TIP3    H267275   3.502   3.251   5.661  0.2787  0.0030 -1.6525
15262TIP3   OH267276   2.437   6.730   3.283 -0.4585  0.9828  0.1089
15262TIP3    H167277   2.451   6.747   3.376  0.4439 -0.4563  0.2671
15262TIP3    H267278   2.408   6.639   3.279 -0.7163  1.1008 -1.0020
15263TIP3   OH267279   4.487   2.391   3.329  0.6157  0.4956 -0.5554
15263TIP3    H167280   4.488   2.299   3.353 -0.2987  0.2645 -1.3364
15263TIP3    H267281   4.561   2.401   3.269  1.1801  0.4491  0.1235
15264TIP3   OH267282   4.829   6.721  12.346  0.1720  0.0261  0.8154
15264TIP3    H167283   4.755   6.662  12.361  0.7487 -0.5065  1.6770
15264TIP3    H267284   4.902   6.663  12.325  0.9149  0.3532  2.3414
15265TIP3   OH267285   4.524   4.585   0.369 -0.1430  0.2638 -0.4520
15265TIP3    H167286   4.610   4.622   0.351 -0.4572  1.1739 -0.1514
15265TIP3    H267287   4.510   4.522   0.299  1.2414 -0.7365  0.1231
15266TIP3   OH267288   1.554   2.306  16.773  0.8308  0.7759 -0.1715
15266TIP3    H167289   1.523   2.239  16.712  2.0597  1.0315 -1.1366
15266TIP3    H267290   1.638   2.272  16.805  0.0036  0.4406  1.7727
15267TIP3   OH267291   0.501   5.984   0.708  0.3620 -0.6662 -0.2001
15267TIP3    H167292   0.459   5.904   0.675  2.6129 -1.8910 -0.2356
15267TIP3    H267293   0.590   5.958   0.730  0.6627  1.4638  1.4389
15268TIP3   OH267294   0.904   0.891  16.385  0.1614 -0.5726 -0.6431
15268TIP3    H167295   0.838   0.910  16.451  1.1233  0.1333  0.1391
15268TIP3    H267296   0.958   0.823  16.424  1.7940  1.0731  0.0699
15269TIP3   OH267297   5.890   0.256  10.496  0.1957 -0.1380  0.2928
15269TIP3    H167298   5.799   0.284  10.504  0.2593 -0.0935  0.9410
15269TIP3    H267299   5.941   0.334  10.519  0.4123  0.0528 -0.7926
15270TIP3   OH267300   5.787   2.273   4.881  0.1467  0.0223  0.2981
15270TIP3    H167301   5.878   2.282   4.851 -0.1724 -1.9442 -1.4455
15270TIP3    H267302   5.793   2.228   4.965  0.8516  1.9087  1.3117
15271TIP3   OH267303   3.558   3.614   1.740 -0.1966  0.4891  0.3497
15271TIP3    H167304   3.594   3.527   1.758  1.6367  0.5182 -2.4640
15271TIP3    H267305   3.603   3.671   1.803 -2.1559 -0.5870  2.9121
15272TIP3   OH267306   1.396   2.737  14.972 -0.0521  0.1134  0.7526
15272TIP3    H167307   1.452   2.788  14.913  1.7927 -0.8452  1.5832
15272TIP3    H267308   1.458   2.690  15.028 -1.7322 -0.0017  2.5992
15273TIP3   OH267309   2.226   1.532   4.085  0.4403  0.1780  0.7683
15273TIP3    H167310   2.274   1.449   4.088  0.5031  0.2128  0.7418
15273TIP3    H267311   2.163   1.526   4.157  0.0399 -0.1348  0.3986
15274TIP3   OH267312   0.979   6.405   6.162 -0.0021 -0.3826  0.6792
15274TIP3    H167313   1.031   6.374   6.236  1.7000 -0.0093 -0.2876
15274TIP3    H267314   0.967   6.499   6.179  0.5510 -0.2587  0.4003
15275TIP3   OH267315   4.417   5.416   3.194 -0.3304  0.1034  0.3364
15275TIP3    H167316   4.503   5.435   3.156 -0.6029 -0.6760 -0.7315
15275TIP3    H267317   4.409   5.321   3.188 -1.5191  0.2181 -0.1853
15276TIP3   OH267318   5.196   1.316  12.818 -0.4740 -0.5904 -0.3102
15276TIP3    H167319   5.156   1.359  12.893 -0.1516  0.2545 -0.6146
15276TIP3    H267320   5.131   1.325  12.748 -1.0587 -1.9466  0.0091
15277TIP3   OH267321   2.644   0.619   1.417  0.2464  0.0283  0.4164
15277TIP3    H167322   2.716   0.594   1.475  0.4479 -0.0206  0.1442
15277TIP3    H267323   2.635   0.544   1.357 -0.5558 -0.3207  0.9567
15278TIP3   OH267324   0.905   5.523  15.608 -0.1206 -0.0247  0.0375
15278TIP3    H167325   0.848   5.542  15.534 -0.4742  0.6748  0.4774
15278TIP3    H267326   0.856   5.459  15.660  0.2117 -0.6620 -0.4271
15279TIP3   OH267327   3.690   1.399   1.119 -0.1493  0.5085  0.3656
15279TIP3    H167328   3.765   1.450   1.149  0.1937  1.4945 -1.9228
15279TIP3    H267329   3.614   1.445   1.155  0.2699  0.3695  1.4614
15280TIP3   OH267330   1.322   5.687   5.834 -0.3092  0.5407  0.0477
15280TIP3    H167331   1.336   5.634   5.913 -0.9386  0.2237 -0.0476
15280TIP3    H267332   1.278   5.765   5.866 -0.0693  0.6627  0.0826
15281TIP3   OH267333   5.736   0.532  11.944 -0.0312 -0.1003 -0.2315
15281TIP3    H167334   5.666   0.470  11.923  0.1634 -0.3309 -0.1910
15281TIP3    H267335   5.690   0.610  11.976 -0.2298 -0.7694  1.2004
15282TIP3   OH267336   1.270   5.408   3.865 -0.3574 -0.5927 -0.5019
15282TIP3    H167337   1.305   5.496   3.850 -0.1106 -0.6528 -0.2857
15282TIP3    H267338   1.323   5.373   3.937 -0.2026 -1.0632 -0.8435
15283TIP3   OH267339   3.908   1.919  17.140 -0.2300 -0.6460  0.5498
15283TIP3    H167340   3.880   1.980  17.209  0.1775 -0.6244  0.7008
15283TIP3    H267341   3.901   1.833  17.181 -0.4065 -0.6669  0.4743
15284TIP3   OH267342   5.977   1.749   1.661  0.1373 -0.3352  0.1916
15284TIP3    H167343   5.900   1.697   1.636 -0.0613  0.1644 -0.2558
15284TIP3    H267344   6.043   1.684   1.686  0.0463 -0.8415 -0.8109
15285TIP3   OH267345   0.007   1.209  13.671  0.3319 -0.4233 -0.2425
15285TIP3    H167346   0.065   1.198  13.746 -2.8614  1.0599  2.7305
15285TIP3    H267347  -0.053   1.279  13.697 -3.0886 -2.1163 -2.7634
15286TIP3   OH267348   3.968   2.258   1.684  0.0180 -0.3631  0.3541
15286TIP3    H167349   3.889   2.259   1.630  1.2085  0.5317 -1.4817
15286TIP3    H267350   3.986   2.350   1.703 -0.8435 -0.6670  3.1608
15287TIP3   OH267351   4.359   4.474   5.080 -0.1951 -0.5683  0.1916
15287TIP3    H167352   4.445   4.499   5.047  0.0981 -0.9586  0.6337
15287TIP3    H267353   4.312   4.441   5.004 -1.2369  2.8611 -0.8185
15288TIP3   OH267354   2.623   1.883   0.278 -0.2280  0.3113  1.0772
15288TIP3    H167355   2.663   1.799   0.255  0.2437  0.3366  1.7554
15288TIP3    H267356   2.589   1.870   0.366  0.4359  1.0240  1.4524
15289TIP3   OH267357   0.288   2.743  16.897 -0.2299 -0.4488 -0.6398
15289TIP3    H167358   0.201   2.707  16.876 -0.2462 -0.0268 -1.3070
15289TIP3    H267359   0.321   2.685  16.965 -2.1033  0.8406  1.5311
15290TIP3   OH267360   0.195   3.389   1.740 -0.1211 -0.2541 -0.0569
15290TIP3    H167361   0.189   3.455   1.671 -0.1885  0.2103  0.3872
15290TIP3    H267362   0.287   3.391   1.767 -0.1457 -0.2673  0.0278
15291TIP3   OH267363   3.338   5.746  14.350 -0.8380 -0.0028 -0.0529
15291TIP3    H167364   3.429   5.718  14.364 -0.8071 -0.1781 -0.5780
15291TIP3    H267365   3.286   5.684  14.402 -0.6129  0.7341  1.1051
15292TIP3   OH267366   5.713   2.274  14.814  0.1018  0.3024 -0.5135
15292TIP3    H167367   5.703   2.195  14.867  1.5185 -1.0335 -2.1334
15292TIP3    H267368   5.799   2.308  14.837  0.5184 -0.0134 -1.5367
15293TIP3   OH267369   2.822   3.073  14.752 -0.1537  0.4591 -0.0047
15293TIP3    H167370   2.865   3.016  14.816 -0.9360  1.5017  1.5150
15293TIP3    H267371   2.894   3.123  14.713  0.2215  0.8812  1.1703
15294TIP3   OH267372   3.983   6.295  15.872 -0.6945 -0.1377 -0.5699
15294TIP3    H167373   3.979   6.378  15.920  1.3390  0.4728 -1.3434
15294TIP3    H267374   3.985   6.321  15.780 -1.4620 -1.1415 -0.8887
15295TIP3   OH267375   1.154   6.319   1.766  0.1010 -0.4633 -0.0374
15295TIP3    H167376   1.119   6.268   1.693 -1.6485  1.2958 -0.5152
15295TIP3    H267377   1.146   6.261   1.842  2.5292 -2.5682 -1.2247
15296TIP3   OH267378   6.350   1.366  15.915  0.1056 -0.0792 -0.2055
15296TIP3    H167379   6.372   1.417  15.838 -0.0562 -0.5798 -0.5932
15296TIP3    H267380   6.304   1.289  15.881 -1.5511  0.5394  0.5068
15297TIP3   OH267381   2.670   1.661  17.125 -0.6192 -0.0212  0.5006
15297TIP3    H167382   2.581   1.626  17.118  0.3644 -2.5196 -0.9139
15297TIP3    H267383   2.713   1.601  17.186 -0.0600  1.6177  1.7827
15298TIP3   OH267384   2.232   5.332   5.443 -0.0511  0.1313  0.0923
15298TIP3    H167385   2.289   5.255   5.435 -1.9826 -1.5552  1.4637
15298TIP3    H267386   2.265   5.377   5.521 -0.5037 -0.7967  0.8406
15299TIP3   OH267387   1.475   4.339   3.999  0.3616  0.4220  0.3703
15299TIP3    H167388   1.558   4.335   4.048  0.3773  1.2706  0.4359
15299TIP3    H267389   1.422   4.401   4.049 -0.0054  0.5100 -0.1316
15300TIP3   OH267390   1.185   5.114   1.879  0.5289  0.1822  0.3964
15300TIP3    H167391   1.111   5.137   1.935  1.1285 -0.8815  1.6887
15300TIP3    H267392   1.240   5.192   1.878 -0.2300  0.7241  0.0374
15301TIP3   OH267393   0.523   5.439   2.047  0.7172 -0.9313  0.6435
15301TIP3    H167394   0.607   5.480   2.065 -0.6926  1.1207  3.1761
15301TIP3    H267395   0.513   5.373   2.117 -0.3046 -0.1981  1.2290
15302TIP3   OH267396   6.232   3.061  14.908 -0.3570  0.1558 -0.6824
15302TIP3    H167397   6.139   3.064  14.929  0.3915 -0.1981  3.9279
15302TIP3    H267398   6.265   3.148  14.931  0.9739 -0.9753  2.2116
15303TIP3   OH267399   2.997   6.766   2.236  0.3044 -0.0738 -0.2699
15303TIP3    H167400   3.057   6.728   2.172 -0.8051 -0.2403 -1.2416
15303TIP3    H267401   3.042   6.757   2.320  1.3172 -0.8592 -0.8837
15304TIP3   OH267402   2.395   2.767   3.709  0.0950 -0.4476 -0.1591
15304TIP3    H167403   2.414   2.794   3.620 -0.0217  0.1987  0.0046
15304TIP3    H267404   2.403   2.848   3.761 -0.7996 -0.6089  0.2599
15305TIP3   OH267405   6.699   4.150  17.381  0.0064  0.4830 -0.2547
15305TIP3    H167406   6.646   4.071  17.370  1.2513 -0.2580 -1.1282
15305TIP3    H267407   6.713   4.182  17.292  1.8713  0.0733 -0.1553
15306TIP3   OH267408   4.829   6.759   6.321  0.1464 -0.0409 -0.6326
15306TIP3    H167409   4.762   6.803   6.374 -0.4405  0.2756 -1.6198
15306TIP3    H267410   4.903   6.821   6.321  0.6308 -0.5716  0.8021
15307TIP3   OH267411   6.090   5.131  15.498 -0.0902 -0.0540  0.2600
15307TIP3    H167412   6.118   5.098  15.583  2.1073 -1.2571 -0.8502
15307TIP3    H267413   6.171   5.159  15.455 -1.0078 -0.3216 -1.7711
15308TIP3   OH267414   5.157   3.466   2.234 -0.5044  0.2241  0.1067
15308TIP3    H167415   5.249   3.442   2.223  0.0351  1.6800  1.0982
15308TIP3    H267416   5.110   3.408   2.174  1.2213  0.7354 -1.8834
15309TIP3   OH267417   4.746   0.344  13.205  0.3681 -0.2363 -0.3734
15309TIP3    H167418   4.784   0.415  13.152 -0.7480 -0.9963 -2.2837
15309TIP3    H267419   4.791   0.265  13.175 -0.4240 -0.7082 -0.3281
15310TIP3   OH267420   0.064   6.416   3.418 -0.0896  0.2079 -0.0020
15310TIP3    H167421   0.140   6.467   3.447 -0.1773  0.4385 -0.1797
15310TIP3    H267422   0.060   6.342   3.479  0.1663  0.2968  0.1217
15311TIP3   OH267423   4.589   3.823   0.271  0.6716  0.0486  0.2702
15311TIP3    H167424   4.571   3.917   0.270  0.3116 -0.0207 -0.2123
15311TIP3    H267425   4.674   3.815   0.228  0.2809  0.0790 -0.5330
15312TIP3   OH267426   3.483   6.387  16.233 -0.4603 -0.5622 -0.1605
15312TIP3    H167427   3.512   6.427  16.152  1.0499 -2.2936 -0.5421
15312TIP3    H267428   3.503   6.451  16.301  2.4753 -0.8152 -0.6642
15313TIP3   OH267429   3.509   2.094   0.307 -0.2018 -0.6576  0.0032
15313TIP3    H167430   3.533   2.017   0.357 -0.4575 -0.4497  0.4547
15313TIP3    H267431   3.481   2.060   0.222  1.7399 -0.8963 -0.5814
15314TIP3   OH267432   6.658   1.607   5.648 -0.0876 -0.7104  0.1533
15314TIP3    H167433   6.692   1.569   5.729  0.6145  0.3644  0.3910
15314TIP3    H267434   6.721   1.676   5.627 -2.1959  1.5002  0.6894
15315TIP3   OH267435   5.757   5.712   4.780  0.2133 -0.5318  0.2645
15315TIP3    H167436   5.765   5.653   4.855 -1.7759  0.0301  0.9622
15315TIP3    H267437   5.666   5.739   4.779  0.8353  1.7933 -0.6175
15316TIP3   OH267438   5.615   0.555   5.476  0.3486 -0.2810 -0.1774
15316TIP3    H167439   5.678   0.608   5.428  1.5036 -0.6060  0.9251
15316TIP3    H267440   5.548   0.532   5.411  1.0874  0.4928 -1.2458
15317TIP3   OH267441   5.900   2.816  16.760 -0.2490 -0.2185  0.9669
15317TIP3    H167442   5.847   2.851  16.688  0.1195  0.7359  1.1475
15317TIP3    H267443   5.886   2.877  16.832  1.9465  0.7223  0.6854
15318TIP3   OH267444   2.860   4.502  15.237 -0.0818  0.7818 -0.3672
15318TIP3    H167445   2.949   4.491  15.271  0.1900  0.8370 -1.0454
15318TIP3    H267446   2.871   4.512  15.143 -0.7967  0.9716 -0.4395
15319TIP3   OH267447   0.891   0.978   0.619  0.1409 -0.7219  0.1858
15319TIP3    H167448   0.933   1.035   0.684  0.0233 -0.0498 -0.3153
15319TIP3    H267449   0.922   0.891   0.640  1.5208 -0.2851  0.0301
15320TIP3   OH267450   5.690   3.546   3.524 -0.2916 -0.7712  0.0551
15320TIP3    H167451   5.651   3.591   3.599  0.7769 -1.0712  0.8087
15320TIP3    H267452   5.622   3.550   3.456 -2.0012 -2.0999  1.5982
15321TIP3   OH267453   5.088   2.078   3.651  0.1900  0.0656 -0.0917
15321TIP3    H167454   5.042   2.146   3.602 -0.0166 -0.4961 -0.6986
15321TIP3    H267455   5.104   2.009   3.586  1.8565  0.2244  0.1012
15322TIP3   OH267456   3.562   1.217  15.741  0.1802  0.5278 -0.1004
15322TIP3    H167457   3.609   1.215  15.824  0.1298  2.4494  0.0337
15322TIP3    H267458   3.470   1.202  15.764  0.4515 -1.4301 -0.1476
15323TIP3   OH267459   2.594   2.534   1.452  0.0465 -0.6392  0.1256
15323TIP3    H167460   2.585   2.452   1.404  0.0583 -1.4377  1.4328
15323TIP3    H267461   2.520   2.535   1.512 -1.1572  1.3471 -1.2779
15324TIP3   OH267462   4.066   3.401   2.306  0.0228 -0.1164 -1.2141
15324TIP3    H167463   4.038   3.417   2.216  0.1982  1.2445 -1.0402
15324TIP3    H267464   4.068   3.487   2.347  0.2307 -0.6803  0.0229
15325TIP3   OH267465   2.619   4.787   5.604 -0.2289  0.4439 -0.1198
15325TIP3    H167466   2.591   4.872   5.569 -0.4360  1.0162  1.3779
15325TIP3    H267467   2.570   4.723   5.552  0.5612  1.1632 -1.8528
15326TIP3   OH267468   3.735   4.649  12.349  0.4833 -0.4093  0.0296
15326TIP3    H167469   3.645   4.620  12.331  0.0178 -0.6602  2.4356
15326TIP3    H267470   3.733   4.743  12.331 -1.0043  0.0855  2.3298
15327TIP3   OH267471   3.187   2.876   2.344  0.2990 -0.1041  0.2911
15327TIP3    H167472   3.160   2.802   2.289  1.3328  0.6360 -1.2960
15327TIP3    H267473   3.275   2.851   2.374 -0.0436 -0.2614  1.1709
15328TIP3   OH267474   6.135   3.749   2.713  0.3927  0.3252  0.6012
15328TIP3    H167475   6.109   3.766   2.804 -0.2418 -2.1236  0.9596
15328TIP3    H267476   6.102   3.824   2.664 -3.4868 -0.4192  1.7337
15329TIP3   OH267477   2.802   6.043   3.152  0.4964  0.3554 -0.0616
15329TIP3    H167478   2.777   6.053   3.243  0.7475 -0.1103  0.0624
15329TIP3    H267479   2.725   6.005   3.109  0.5398  0.1413  0.0510
15330TIP3   OH267480   4.238   3.041  16.324 -0.7253  0.1516 -0.7569
15330TIP3    H167481   4.145   3.062  16.333 -0.7195 -0.3348  0.7511
15330TIP3    H267482   4.279   3.079  16.402  0.4392  0.7872 -1.6361
15331TIP3   OH267483   1.814   0.171  12.610  0.1927  0.1460  0.2497
15331TIP3    H167484   1.853   0.101  12.662  1.2696 -1.0132 -1.9732
15331TIP3    H267485   1.730   0.136  12.582  0.0319  0.3833  0.4345
15332TIP3   OH267486   3.905   2.689   5.250 -0.6534  0.2897  0.2464
15332TIP3    H167487   3.885   2.625   5.318  0.2646  0.1236  0.3710
15332TIP3    H267488   3.949   2.761   5.297  1.4073 -0.5150 -0.3602
15333TIP3   OH267489   4.878   3.245  13.138  0.2563  0.0701  0.1643
15333TIP3    H167490   4.792   3.221  13.174  1.0079 -4.2636 -0.3791
15333TIP3    H267491   4.932   3.262  13.216 -0.0314 -1.7408  0.8171
15334TIP3   OH267492   4.074   2.562   1.671  0.0898  0.3346 -0.2518
15334TIP3    H167493   4.033   2.589   1.754  0.8953  0.2023  0.1984
15334TIP3    H267494   4.039   2.624   1.607  1.2297  1.9446  0.6085
15335TIP3   OH267495   5.586   4.595  12.653 -0.1692  0.0183  0.1698
15335TIP3    H167496   5.499   4.606  12.692 -0.9364 -0.0194 -1.4520
15335TIP3    H267497   5.610   4.683  12.624  0.1598 -0.0470  0.2413
15336TIP3   OH267498   3.434   2.470   5.001 -0.6453 -0.5025 -0.0548
15336TIP3    H167499   3.522   2.492   4.970 -1.0119 -0.0455 -0.8038
15336TIP3    H267500   3.437   2.486   5.095  0.4311 -1.6915  0.1311
15337TIP3   OH267501   0.455   4.595   0.904  0.0217 -0.1584  0.0020
15337TIP3    H167502   0.372   4.640   0.916 -0.6949 -1.7423  1.3707
15337TIP3    H267503   0.436   4.525   0.842  0.2926 -0.6390  0.4579
15338TIP3   OH267504   5.722   1.469  11.693 -0.1296 -0.4786 -0.6918
15338TIP3    H167505   5.741   1.397  11.632  0.7264 -1.9489  1.1944
15338TIP3    H267506   5.642   1.442  11.737 -1.8025  1.4676 -2.3871
15339TIP3   OH267507   1.062   3.130   5.799 -0.3019 -0.2097  0.3416
15339TIP3    H167508   1.026   3.060   5.745  2.8105  0.4261 -2.8982
15339TIP3    H267509   0.985   3.182   5.824 -2.3174 -2.8149  0.0329
15340TIP3   OH267510   6.633   2.303  14.498 -0.4175 -0.5636 -0.0595
15340TIP3    H167511   6.629   2.387  14.452 -1.0374  0.4591  1.7610
15340TIP3    H267512   6.616   2.325  14.590  0.2675 -2.5796  0.6038
15341TIP3   OH267513   4.579   6.620  11.328  0.4703  0.1880  0.3986
15341TIP3    H167514   4.613   6.677  11.397 -1.1488 -0.1747  1.5502
15341TIP3    H267515   4.490   6.653  11.312 -0.1521 -1.4002  0.4254
15342TIP3   OH267516   4.077   5.702   1.341 -0.0842  0.2068 -0.0745
15342TIP3    H167517   4.081   5.606   1.338 -0.5547  0.1851 -0.1057
15342TIP3    H267518   4.030   5.721   1.422  1.9205  0.4814  1.0929
15343TIP3   OH267519   5.979   3.591   2.431  0.0901 -0.7150 -0.2275
15343TIP3    H167520   5.993   3.512   2.379  1.5246 -0.6559  0.0407
15343TIP3    H267521   5.952   3.558   2.517 -0.3058 -0.8725 -0.4096
15344TIP3   OH267522   0.807   2.953  17.021 -0.4250 -0.2278 -0.0921
15344TIP3    H167523   0.767   3.006  16.952  0.3878  0.1251 -0.3078
15344TIP3    H267524   0.737   2.895  17.051 -0.9007 -0.0912 -0.9172
15345TIP3   OH267525   4.734   1.232  13.367  0.6444  0.2990  0.4812
15345TIP3    H167526   4.649   1.193  13.387  0.3533  0.6986  0.0301
15345TIP3    H267527   4.718   1.326  13.364  1.3102  0.4550  1.3900
15346TIP3   OH267528   5.372   5.511   1.130  0.0008  0.3668  0.4576
15346TIP3    H167529   5.436   5.576   1.158  0.4148  0.1473  0.0279
15346TIP3    H267530   5.334   5.478   1.212  0.4026  0.5339  0.7127
15347TIP3   OH267531   1.629   4.341  11.136 -0.3920  0.0363  0.1676
15347TIP3    H167532   1.567   4.279  11.175 -0.6334  0.6794  0.8428
15347TIP3    H267533   1.620   4.328  11.042 -1.4412  0.0009  0.2614
15348TIP3   OH267534   0.831   4.747  12.350  0.3794  0.1651  0.4142
15348TIP3    H167535   0.869   4.815  12.405 -0.8346  1.4818 -0.3396
15348TIP3    H267536   0.825   4.786  12.263 -0.6712 -0.7887  0.0338
15349TIP3   OH267537   4.161   1.651   2.127  0.0531  0.5004 -0.2740
15349TIP3    H167538   4.194   1.716   2.188 -0.2558 -0.3326  0.8222
15349TIP3    H267539   4.113   1.589   2.183 -1.8265  0.7036 -1.5676
15350TIP3   OH267540   2.707   2.791   5.401  0.6282  0.5829  0.3466
15350TIP3    H167541   2.779   2.852   5.388  0.9382 -0.3467 -3.2961
15350TIP3    H267542   2.749   2.711   5.433  1.2391  0.1802 -1.3609
15351TIP3   OH267543   3.158   2.395  15.013 -0.0487 -0.5425  0.4336
15351TIP3    H167544   3.187   2.457  14.946  2.9529 -2.5551 -0.3625
15351TIP3    H267545   3.191   2.431  15.095 -0.1862 -0.0293  0.2622
15352TIP3   OH267546   4.169   5.906   4.271  0.7730  0.1328 -0.7588
15352TIP3    H167547   4.263   5.889   4.276  0.4813 -2.2088 -2.0179
15352TIP3    H267548   4.130   5.822   4.248 -1.3603  1.6342 -3.1335
15353TIP3   OH267549   4.692   2.340   4.699  0.3582  0.2657 -0.0055
15353TIP3    H167550   4.770   2.370   4.651  2.0510 -2.4479  0.8325
15353TIP3    H267551   4.636   2.304   4.631  0.1852  1.4468 -0.5217
15354TIP3   OH267552   0.464   5.317  11.504 -0.1196 -0.9523 -0.3922
15354TIP3    H167553   0.538   5.302  11.563  1.1459  1.7153 -1.1400
15354TIP3    H267554   0.404   5.371  11.555  0.2972  0.1209 -0.9957
15355TIP3   OH267555   5.214   6.150  15.856  0.7793 -0.0271  0.6675
15355TIP3    H167556   5.296   6.191  15.830  0.3453  0.1418 -0.4932
15355TIP3    H267557   5.238   6.061  15.881  1.5055  0.4399  1.7351
15356TIP3   OH267558   1.236   5.439   4.260  0.2113 -0.8086 -0.3569
15356TIP3    H167559   1.163   5.490   4.295  0.6763  0.1809 -0.7758
15356TIP3    H267560   1.301   5.505   4.234  1.5883 -1.6931  0.7118
15357TIP3   OH267561   2.303   0.275  14.082  0.3320 -0.0549  0.2088
15357TIP3    H167562   2.375   0.242  14.136  1.1565  0.8842 -0.2741
15357TIP3    H267563   2.292   0.366  14.109 -1.1717 -0.3721  0.7579
15358TIP3   OH267564   3.591   2.860   3.739 -0.0241 -0.1524  0.5354
15358TIP3    H167565   3.653   2.876   3.810  1.9918 -0.1796 -1.1536
15358TIP3    H267566   3.573   2.946   3.702 -0.9098 -0.1641  0.9021
15359TIP3   OH267567   3.982   0.336  16.633  0.2439  0.3661 -0.1345
15359TIP3    H167568   3.890   0.313  16.618  0.0968  0.8419  0.0369
15359TIP3    H267569   4.027   0.252  16.637 -0.4082  0.0676  1.2958
15360TIP3   OH267570   2.487   0.277  12.893 -0.3249 -0.0959  0.2984
15360TIP3    H167571   2.429   0.261  12.819  2.7739  1.2443 -2.6989
15360TIP3    H267572   2.461   0.362  12.926  0.1518  0.7236 -1.3364
15361TIP3   OH267573   0.632   0.427  13.036  0.0743  0.3187 -0.3516
15361TIP3    H167574   0.624   0.339  13.073  0.3043  0.5740  0.3092
15361TIP3    H267575   0.550   0.471  13.060  0.7742  0.9211  1.0515
15362TIP3   OH267576   3.461   6.599   2.614 -0.1482  0.1671 -0.1439
15362TIP3    H167577   3.376   6.614   2.656 -0.4899 -1.9919  0.0466
15362TIP3    H267578   3.525   6.631   2.677 -0.7652  0.0168  0.5755
15363TIP3   OH267579   5.675   0.196   2.143 -0.3967  0.3872  0.1259
15363TIP3    H167580   5.706   0.170   2.230 -0.1721  0.8970  0.1982
15363TIP3    H267581   5.708   0.128   2.084  0.1743  0.4992  0.3153
15364TIP3   OH267582   1.709   3.487  13.702  0.3156 -0.2693 -0.0733
15364TIP3    H167583   1.778   3.527  13.755  0.8158 -2.1922  0.8174
15364TIP3    H267584   1.744   3.491  13.613  0.7331  0.4551  0.1052
15365TIP3   OH267585   1.653   1.963  12.700  0.2188  0.2436  0.0222
15365TIP3    H167586   1.604   2.013  12.635 -2.3474  0.7035  2.1693
15365TIP3    H267587   1.676   2.027  12.767  1.8404 -0.4473  0.1907
15366TIP3   OH267588   4.419   6.439  14.965  0.1652  0.0174  0.4226
15366TIP3    H167589   4.326   6.462  14.956  0.5215  0.7047 -2.8260
15366TIP3    H267590   4.461   6.519  14.996 -0.1584  0.0869  0.6914
15367TIP3   OH267591   0.821   1.120  12.858 -0.2213  0.1181  0.0632
15367TIP3    H167592   0.738   1.096  12.816  0.0768 -0.0215 -0.4580
15367TIP3    H267593   0.799   1.197  12.911 -0.5448  0.5020 -0.6027
15368TIP3   OH267594   5.647   0.288  12.118  0.0101 -0.0260 -0.0021
15368TIP3    H167595   5.615   0.322  12.034  1.8249 -0.1562 -0.7866
15368TIP3    H267596   5.673   0.365  12.167 -1.1587  0.0591  0.5292
15369TIP3   OH267597   0.910   2.791   0.069  0.7262 -0.1044 -0.0836
15369TIP3    H167598   0.889   2.701   0.096 -0.4042 -0.7548 -2.8052
15369TIP3    H267599   0.842   2.844   0.109 -0.3255 -0.8851 -0.7939
15370TIP3   OH267600   4.204   5.165  13.989 -0.0589 -0.2154 -0.0835
15370TIP3    H167601   4.219   5.258  14.007 -2.2496 -0.2597  2.9520
15370TIP3    H267602   4.283   5.121  14.021 -0.1524  0.4816  1.2001
15371TIP3   OH267603   2.571   3.152  14.787 -0.1526 -0.1013  0.5681
15371TIP3    H167604   2.656   3.110  14.777 -0.1709  0.0265 -0.1832
15371TIP3    H267605   2.545   3.133  14.878  0.1091 -1.2014  0.4247
15372TIP3   OH267606   4.018   4.494  14.666 -0.2218 -0.0751  0.0875
15372TIP3    H167607   3.997   4.542  14.745 -0.1858 -0.6773  0.4707
15372TIP3    H267608   3.944   4.435  14.653 -0.6163  0.5930 -0.7929
15373TIP3   OH267609   5.186   1.763   5.344  0.5659 -0.4500  0.2136
15373TIP3    H167610   5.161   1.688   5.397  0.7817  0.0174  0.9911
15373TIP3    H267611   5.195   1.728   5.255 -1.7856 -0.8796  0.0641
15374TIP3   OH267612   5.090   1.057  13.058 -0.0677  0.0782  0.1480
15374TIP3    H167613   5.058   0.985  13.112 -0.2879 -0.5989 -0.8482
15374TIP3    H267614   5.032   1.057  12.982  1.9039 -0.8326 -1.4473
15375TIP3   OH267615   5.418   4.740   1.629 -0.0191  0.2948  0.2258
15375TIP3    H167616   5.477   4.729   1.704 -1.2306  0.1415  1.2023
15375TIP3    H267617   5.419   4.834   1.611  0.6616  0.2674  0.1155
15376TIP3   OH267618   2.791   2.409   2.352  0.0432 -0.6226 -0.4676
15376TIP3    H167619   2.796   2.496   2.390 -1.3109 -0.5379 -0.4356
15376TIP3    H267620   2.881   2.387   2.329  0.6370  0.0650  1.1072
15377TIP3   OH267621   3.648   6.401  16.503  0.0115  0.3089 -0.2300
15377TIP3    H167622   3.719   6.465  16.516  0.9521 -0.5685 -0.9148
15377TIP3    H267623   3.573   6.440  16.548  0.4493  2.0669 -0.9223
15378TIP3   OH267624   5.192   5.326   1.728 -0.2979  0.1285 -0.1321
15378TIP3    H167625   5.157   5.356   1.644  1.3080 -1.8007 -1.5880
15378TIP3    H267626   5.198   5.231   1.719  3.6596  0.1490  0.5610
15379TIP3   OH267627   5.195   5.946  13.478  0.1600  0.5212 -0.4084
15379TIP3    H167628   5.243   5.996  13.411  2.2743 -0.0875  0.5626
15379TIP3    H267629   5.249   5.868  13.492 -0.4587  0.4208  1.6942
15380TIP3   OH267630   6.419   6.312  11.197 -0.5715 -0.0201 -0.0682
15380TIP3    H167631   6.474   6.385  11.169  0.2283 -0.4706  0.2866
15380TIP3    H267632   6.370   6.288  11.119  1.5234 -1.1675 -1.1215
15381TIP3   OH267633   6.487   3.524   4.558  0.5464  0.0012  0.1515
15381TIP3    H167634   6.393   3.543   4.567  0.6651  0.2303  1.0483
15381TIP3    H267635   6.501   3.447   4.613  0.5822 -1.0802 -1.3278
15382TIP3   OH267636   5.678   3.115  13.920 -0.2095  0.0355  0.0198
15382TIP3    H167637   5.628   3.152  13.992  0.1946  1.5211 -0.4399
15382TIP3    H267638   5.683   3.021  13.941 -0.3863  0.3717  1.7316
15383TIP3   OH267639   1.100   5.853  15.177  0.2458  0.3567 -0.1358
15383TIP3    H167640   1.179   5.837  15.125  0.0929  0.8105 -0.5265
15383TIP3    H267641   1.104   5.946  15.199 -0.3688  0.4759 -0.4949
15384TIP3   OH267642   6.140   4.791   1.034  0.4767 -0.2777 -0.0894
15384TIP3    H167643   6.225   4.823   1.006  0.5220 -0.9059 -0.6867
15384TIP3    H267644   6.146   4.787   1.130  1.4593 -1.2282 -0.1659
15385TIP3   OH267645   1.010   3.616  16.948 -0.6078  0.0923 -0.1673
15385TIP3    H167646   0.946   3.550  16.974 -0.9443 -0.7470 -2.7851
15385TIP3    H267647   0.986   3.695  16.997 -0.7885 -1.3983  2.3061
15386TIP3   OH267648   4.382   2.366   4.807  0.0293 -0.1846  0.0620
15386TIP3    H167649   4.354   2.417   4.731 -1.2605  0.1712  0.7464
15386TIP3    H267650   4.408   2.431   4.872  0.5824 -0.4735  0.1399
15387TIP3   OH267651   0.946   6.311  12.158  0.2167 -0.3477  0.6101
15387TIP3    H167652   0.971   6.289  12.248 -1.1211 -1.8803  0.6517
15387TIP3    H267653   1.012   6.269  12.104 -0.4789 -1.7661  0.8138
15388TIP3   OH267654   2.973   2.139   5.471 -0.4171  0.2522 -0.6117
15388TIP3    H167655   3.041   2.146   5.405 -0.6012  0.2808 -0.7980
15388TIP3    H267656   2.895   2.112   5.423  0.0065 -2.1793 -0.0900
15389TIP3   OH267657   2.849   1.454   1.874  0.4082 -0.5552 -0.0132
15389TIP3    H167658   2.794   1.376   1.873 -0.7289  0.1523  2.1479
15389TIP3    H267659   2.804   1.515   1.816  0.2359 -0.8243 -0.1662
15390TIP3   OH267660   5.730   4.601   6.095  0.3105  0.4002  0.0706
15390TIP3    H167661   5.732   4.506   6.105  2.4324  0.5212  1.6137
15390TIP3    H267662   5.683   4.632   6.171  0.2330  0.6070 -0.0620
15391TIP3   OH267663   6.466   5.952  10.618  0.2293  0.1870  0.3536
15391TIP3    H167664   6.434   6.029  10.573  1.8788 -1.0699 -3.4245
15391TIP3    H267665   6.552   5.978  10.651 -0.0731  0.5165  0.8879
15392TIP3   OH267666   2.858   0.867   5.751  0.2447 -0.1000 -0.2048
15392TIP3    H167667   2.779   0.828   5.713  0.3550 -0.2667 -0.2602
15392TIP3    H267668   2.914   0.793   5.773  1.0083  0.0669 -1.4844
15393TIP3   OH267669   2.554   3.715   6.772 -0.5353 -0.0911  0.0808
15393TIP3    H167670   2.460   3.713   6.790 -0.5611  1.4116  0.2514
15393TIP3    H267671   2.567   3.794   6.720  0.6962 -0.0505  0.4156
15394TIP3   OH267672   5.721   2.480   4.410 -0.6188  0.0823 -0.2428
15394TIP3    H167673   5.735   2.397   4.364  0.2141  0.3113 -0.4184
15394TIP3    H267674   5.804   2.527   4.400 -0.7873  0.5764  0.5897
15395TIP3   OH267675   1.698   1.044   3.014 -0.1406  0.4231  0.4106
15395TIP3    H167676   1.664   1.133   3.010  0.4257  0.6186 -0.4861
15395TIP3    H267677   1.721   1.023   2.923 -0.9144 -0.8992  0.4939
15396TIP3   OH267678   0.642   5.260   3.252  0.5454  1.1975 -0.5902
15396TIP3    H167679   0.592   5.270   3.170  1.3733 -1.4501 -1.5043
15396TIP3    H267680   0.731   5.237   3.223  0.3453 -2.0569  0.9544
15397TIP3   OH267681   0.327   0.650  11.512 -0.3100 -0.1995 -0.0607
15397TIP3    H167682   0.355   0.659  11.603  2.4249  1.0721 -0.9130
15397TIP3    H267683   0.290   0.562  11.506 -0.5051 -0.3299  2.2434
15398TIP3   OH267684   6.279   3.628  11.307  0.5137 -0.1740  0.0626
15398TIP3    H167685   6.305   3.562  11.371  1.2601 -0.0996 -0.1567
15398TIP3    H267686   6.360   3.673  11.284  0.6266 -1.4896 -2.4100
15399TIP3   OH267687   3.309   5.199   6.393  0.3849 -0.5095 -0.3868
15399TIP3    H167688   3.290   5.184   6.486  0.3301  1.0488 -0.1150
15399TIP3    H267689   3.236   5.251   6.361 -0.7214 -2.8299 -1.9190
15400TIP3   OH267690   0.910   1.612   5.231  0.4048  0.2729  0.2734
15400TIP3    H167691   0.887   1.565   5.151 -0.6620 -0.7205  1.1322
15400TIP3    H267692   0.863   1.695   5.225 -0.7827 -0.3626  0.4670
15401TIP3   OH267693   4.397   1.161  15.776  0.1345 -0.7552 -0.0974
15401TIP3    H167694   4.455   1.154  15.852 -0.1864 -1.2098  0.1095
15401TIP3    H267695   4.353   1.246  15.787  0.0285 -0.8558  0.2731
15402TIP3   OH267696   2.719   1.815  14.404  0.4278 -0.7865 -0.0452
15402TIP3    H167697   2.649   1.880  14.408 -0.3499 -1.5605 -0.6355
15402TIP3    H267698   2.687   1.750  14.342  1.5004 -1.3699 -0.0044
15403TIP3   OH267699   1.483   4.453  16.628 -0.2058  0.2998 -0.9683
15403TIP3    H167700   1.503   4.365  16.595 -0.6182  0.0290 -0.5149
15403TIP3    H267701   1.408   4.482  16.575  0.2583  0.5951 -1.4722
15404TIP3   OH267702   6.426   0.115  14.527 -0.2251  0.2351  0.0129
15404TIP3    H167703   6.413   0.062  14.606 -1.2339  2.2492  1.2593
15404TIP3    H267704   6.437   0.050  14.457  0.0958 -1.6101  1.6790
15405TIP3   OH267705   4.428   1.636  14.884 -0.8332  0.1271  0.5571
15405TIP3    H167706   4.487   1.682  14.825  0.3133 -0.7135  0.9929
15405TIP3    H267707   4.343   1.638  14.841 -0.3519  0.8400 -0.3839
15406TIP3   OH267708   1.454   4.468  15.197  0.2346  0.1682 -0.1064
15406TIP3    H167709   1.376   4.443  15.147 -1.1301 -0.7609  2.3014
15406TIP3    H267710   1.438   4.434  15.285  3.8505 -0.9661  0.2880
15407TIP3   OH267711   5.560   0.168  15.580  0.0592 -0.2320 -0.2564
15407TIP3    H167712   5.563   0.203  15.491  0.7434 -3.8719 -1.8655
15407TIP3    H267713   5.630   0.212  15.626  1.1092  0.2447 -2.2051
15408TIP3   OH267714   6.744   0.725  15.989  0.4429 -0.0263 -0.8230
15408TIP3    H167715   6.760   0.815  16.020 -0.0366 -0.1567 -0.1917
15408TIP3    H267716   6.821   0.705  15.936  2.1921 -0.4211  1.6781
15409TIP3   OH267717   4.059   3.297   1.684 -0.4542 -0.1537  0.5532
15409TIP3    H167718   3.979   3.264   1.644 -1.8014 -0.4979  3.2680
15409TIP3    H267719   4.033   3.381   1.723  1.0503  0.6924 -0.1887
15410TIP3   OH267720   4.647   4.238   4.952 -0.6268 -0.0525  0.0575
15410TIP3    H167721   4.727   4.186   4.956 -0.8882 -0.4989 -0.4818
15410TIP3    H267722   4.600   4.205   4.875 -0.6255  1.2235 -0.5112
15411TIP3   OH267723   5.906   0.667  15.220  0.2988  0.8194  0.5642
15411TIP3    H167724   5.829   0.614  15.198  1.1666  0.3272 -1.6169
15411TIP3    H267725   5.958   0.611  15.278  1.2705 -0.9071 -1.8247
15412TIP3   OH267726   2.557   5.404   5.615 -0.2474  0.1001 -0.0022
15412TIP3    H167727   2.477   5.452   5.594 -0.8701 -0.2002  1.5725
15412TIP3    H267728   2.624   5.442   5.558 -1.2388  1.2108 -0.4543
15413TIP3   OH267729   2.068   4.505  17.170 -0.3711  0.0780  0.0184
15413TIP3    H167730   2.001   4.440  17.189 -0.4792  0.0237 -0.5375
15413TIP3    H267731   2.051   4.576  17.232  0.4333 -0.8936  1.4039
15414TIP3   OH267732   5.965   6.047   5.267 -0.3811  0.0115 -0.6339
15414TIP3    H167733   5.968   6.142   5.256 -1.2476  0.0278 -0.8251
15414TIP3    H267734   5.886   6.032   5.319  0.0987 -0.5606 -0.0554
15415TIP3   OH267735   6.001   5.853  16.136  0.1288  0.3700  0.0156
15415TIP3    H167736   6.018   5.946  16.149  1.4237  0.2221 -0.4653
15415TIP3    H267737   5.960   5.824  16.217 -1.8685  1.6959 -0.4758
15416TIP3   OH267738   0.890   2.263   3.162 -0.0347  0.7129 -0.6776
15416TIP3    H167739   0.856   2.184   3.203 -0.6952 -0.0634 -2.6235
15416TIP3    H267740   0.985   2.250   3.161 -0.0889  0.2570 -0.4147
15417TIP3   OH267741   6.764   0.425   3.916  0.1777 -0.1946  0.7273
15417TIP3    H167742   6.828   0.497   3.915 -1.6226  1.4948  1.3734
15417TIP3    H267743   6.684   0.464   3.951 -0.6985 -2.7161  1.7596
15418TIP3   OH267744   0.325   6.456  16.516  0.4278 -0.3704 -0.5083
15418TIP3    H167745   0.282   6.439  16.432  0.8325 -1.3172 -0.5316
15418TIP3    H267746   0.410   6.493  16.492  1.0075 -1.6931 -0.5636
15419TIP3   OH267747   1.391   3.428   0.240  0.0895 -0.1735 -0.4531
15419TIP3    H167748   1.351   3.443   0.326  1.1531  0.3849 -0.0308
15419TIP3    H267749   1.402   3.516   0.204 -0.1468 -0.3940 -1.0744
15420TIP3   OH267750   5.543   2.668  15.008 -0.0285 -0.0218  0.6109
15420TIP3    H167751   5.585   2.673  14.922 -0.8017  2.5693  0.2843
15420TIP3    H267752   5.461   2.621  14.992  0.6144 -1.0744  0.3165
15421TIP3   OH267753   5.350   4.007   3.423  0.5388  0.0129  0.0666
15421TIP3    H167754   5.350   4.096   3.460  1.9679 -0.6665  1.8462
15421TIP3    H267755   5.424   4.007   3.362 -0.1116  0.3216 -0.7441
15422TIP3   OH267756   4.960   0.948   3.333 -0.3404 -0.7202 -0.3286
15422TIP3    H167757   5.034   0.922   3.387  1.5477  1.4941 -1.6208
15422TIP3    H267758   4.946   0.874   3.274  0.6544 -1.3099  0.1383
15423TIP3   OH267759   4.936   2.689   3.931 -0.1266 -0.1820  0.4259
15423TIP3    H167760   5.028   2.700   3.954 -0.0888 -0.3816  0.3662
15423TIP3    H267761   4.937   2.639   3.850 -0.1356  3.0160 -1.7305
15424TIP3   OH267762   0.444   6.643  17.424  0.9096  0.2058 -0.1235
15424TIP3    H167763   0.359   6.642  17.378  1.5359 -1.9690 -1.4056
15424TIP3    H267764   0.433   6.708  17.493 -1.8913 -0.1489 -0.1026
15425TIP3   OH267765   0.594   0.979  16.240  0.0306 -0.3124  0.1665
15425TIP3    H167766   0.533   0.912  16.271 -0.3975  0.4431  1.0200
15425TIP3    H267767   0.663   0.930  16.196 -1.1911 -1.1847 -0.8484
15426TIP3   OH267768   4.730   0.304   6.385 -0.1302 -0.6807 -0.6430
15426TIP3    H167769   4.770   0.369   6.443 -0.5692  0.1178 -1.2097
15426TIP3    H267770   4.683   0.245   6.443  0.1696 -0.4188 -0.1221
15427TIP3   OH267771   0.159   1.906   6.045  0.1032  0.7283 -0.1322
15427TIP3    H167772   0.162   1.891   6.140 -0.3209 -1.3225 -0.4078
15427TIP3    H267773   0.085   1.965   6.033 -2.0907 -1.7140  0.5661
15428TIP3   OH267774   5.670   1.830  13.449  0.2254 -0.0706 -0.1417
15428TIP3    H167775   5.708   1.901  13.397  1.5112 -2.4475 -2.7029
15428TIP3    H267776   5.743   1.797  13.502  0.0646 -0.5080 -0.1868
15429TIP3   OH267777   2.226   1.839   6.162  0.7131 -0.0015  0.3738
15429TIP3    H167778   2.193   1.771   6.221  0.6919 -0.6346 -0.3478
15429TIP3    H267779   2.174   1.916   6.183  0.4123 -0.3422  0.8898
15430TIP3   OH267780   4.033   0.150   4.320  0.7626  0.8047 -1.3291
15430TIP3    H167781   3.942   0.130   4.341  1.3719  1.1741  2.4156
15430TIP3    H267782   4.037   0.246   4.323  1.4699  0.7524 -0.2685
15431TIP3   OH267783   1.519   0.630  13.481  0.1081 -0.3186  0.3102
15431TIP3    H167784   1.447   0.620  13.418 -1.6878  0.2638  2.1457
15431TIP3    H267785   1.481   0.602  13.564  1.6665  1.1381  1.5698
15432TIP3   OH267786   0.085   1.641   0.330  0.3730  0.9754 -0.5200
15432TIP3    H167787   0.027   1.567   0.346  0.8522  0.3806 -1.4050
15432TIP3    H267788   0.031   1.706   0.284  0.0896  0.9498 -0.2218
15433TIP3   OH267789   5.447   6.232  16.048  0.6089 -0.2099  0.0939
15433TIP3    H167790   5.475   6.253  16.138  2.0086 -1.3576 -0.0373
15433TIP3    H267791   5.425   6.139  16.051 -0.7593  0.0819 -0.4356
15434TIP3   OH267792   2.390   0.691   2.943 -0.0008 -0.5910  0.3793
15434TIP3    H167793   2.396   0.601   2.976 -0.2568 -0.8550 -0.2767
15434TIP3    H267794   2.296   0.708   2.938  0.0375 -0.5520 -0.2009
15435TIP3   OH267795   3.022   3.741   5.438 -0.6956 -0.9731 -0.5760
15435TIP3    H167796   3.100   3.725   5.385 -0.6317  0.0855 -0.8157
15435TIP3    H267797   3.039   3.824   5.483 -1.3561 -1.1224 -0.0284
15436TIP3   OH267798   2.196   4.780   3.055 -0.1681 -0.0036  0.5613
15436TIP3    H167799   2.122   4.737   3.013 -1.3917  1.8624  0.6771
15436TIP3    H267800   2.158   4.830   3.127  1.2610  0.6662  0.9027
15437TIP3   OH267801   3.068   0.544  12.852  0.0899  0.3673  0.3523
15437TIP3    H167802   3.036   0.632  12.831  1.1466  0.1980 -2.3521
15437TIP3    H267803   3.116   0.555  12.934 -2.0005  1.7193  1.4961
15438TIP3   OH267804   2.776   0.588  11.919  0.4828 -0.1380  0.1491
15438TIP3    H167805   2.818   0.507  11.889  1.5801 -0.3340  2.0380
15438TIP3    H267806   2.830   0.658  11.881  1.3579 -0.3665  0.9249
15439TIP3   OH267807   3.935   2.174   0.703  0.1180 -0.2340 -0.3913
15439TIP3    H167808   3.869   2.216   0.758 -0.0636 -0.1579 -0.6678
15439TIP3    H267809   3.890   2.098   0.665  0.2337 -0.2652 -0.4649
15440TIP3   OH267810   6.572   6.329   5.601 -0.1118  0.1940 -0.3395
15440TIP3    H167811   6.627   6.353   5.527 -0.0083 -0.7794 -0.5934
15440TIP3    H267812   6.556   6.411   5.647  0.5540  0.6702 -0.9409
15441TIP3   OH267813   6.633   6.725   4.513  0.0485  0.4969  0.2023
15441TIP3    H167814   6.708   6.758   4.463  0.1174  0.6961  0.4376
15441TIP3    H267815   6.668   6.708   4.601  0.0153 -0.2010  0.0841
15442TIP3   OH267816   1.509   4.262   3.750 -0.3833  0.3999  0.7229
15442TIP3    H167817   1.418   4.254   3.724 -0.4310  1.6563  0.4469
15442TIP3    H267818   1.507   4.311   3.832  0.0363  0.1819  0.8719
15443TIP3   OH267819   1.846   3.893   3.109 -0.0995  0.5820 -0.1075
15443TIP3    H167820   1.917   3.863   3.053 -0.2004  2.4575 -1.3454
15443TIP3    H267821   1.770   3.841   3.083  0.2698  0.2208 -0.4674
15444TIP3   OH267822   6.369   3.697  16.706 -0.3588  0.0203 -0.0191
15444TIP3    H167823   6.308   3.657  16.767 -0.1491  1.0050  0.8647
15444TIP3    H267824   6.449   3.710  16.757  0.1995 -0.1788 -0.8265
15445TIP3   OH267825   6.490   3.784  11.216  0.3624 -0.4559  0.5194
15445TIP3    H167826   6.535   3.753  11.137 -0.7177 -1.3265  0.2132
15445TIP3    H267827   6.544   3.857  11.247  0.0092  0.9963 -1.9341
15446TIP3   OH267828   2.348   5.950   2.613  0.0649 -0.0132  0.2876
15446TIP3    H167829   2.286   5.991   2.552  0.2849 -0.0029  0.0703
15446TIP3    H267830   2.356   6.012   2.685 -0.5985 -0.2589  0.5782
15447TIP3   OH267831   0.362   3.315   0.267 -0.0705  0.0852  0.0302
15447TIP3    H167832   0.324   3.236   0.228 -1.7193  1.0093 -0.3248
15447TIP3    H267833   0.290   3.354   0.317  1.0968  0.6550  1.3353
15448TIP3   OH267834   3.528   0.876  13.382  0.9084  0.2884  0.3179
15448TIP3    H167835   3.533   0.870  13.287  0.7800  0.2546  0.3135
15448TIP3    H267836   3.599   0.936  13.406  0.0554  1.4209  0.0844
15449TIP3   OH267837   4.184   0.461  12.407 -0.0246  0.3906 -0.6053
15449TIP3    H167838   4.240   0.519  12.355  0.2163  0.0060 -0.7796
15449TIP3    H267839   4.096   0.479  12.376  0.1178  0.1634 -1.1551
15450TIP3   OH267840   1.937   2.738  11.364 -0.3825  0.2079  0.4527
15450TIP3    H167841   2.018   2.787  11.382 -0.8662  2.1022 -2.0145
15450TIP3    H267842   1.867   2.796  11.392 -0.9354  0.1283 -0.7221
15451TIP3   OH267843   0.666   2.261  11.458 -0.0756 -0.0061  0.4835
15451TIP3    H167844   0.646   2.333  11.398 -0.2691  0.4869  1.1320
15451TIP3    H267845   0.602   2.194  11.436 -0.2570  0.2379  0.2525
15452TIP3   OH267846   3.462   3.291  16.419 -0.4546 -0.2685 -0.2332
15452TIP3    H167847   3.459   3.307  16.513  0.2165 -0.6358 -0.1438
15452TIP3    H267848   3.554   3.303  16.395 -0.8640  1.4321 -1.1357
15453TIP3   OH267849   5.441   5.795  14.378  0.5053  0.0129  0.0488
15453TIP3    H167850   5.377   5.723  14.378  0.9253 -0.3661 -0.8248
15453TIP3    H267851   5.422   5.843  14.459 -1.0105  0.0149 -0.2791
15454TIP3   OH267852   5.869   0.312   5.321  0.3841  0.9410 -0.1391
15454TIP3    H167853   5.961   0.320   5.293  0.8442 -0.7247  0.7450
15454TIP3    H267854   5.818   0.327   5.242  1.5619 -1.3622 -1.4362
15455TIP3   OH267855   5.484   3.737   5.904  0.8101  0.5146  0.1387
15455TIP3    H167856   5.433   3.685   5.841  1.4513  0.1748 -0.1079
15455TIP3    H267857   5.563   3.761   5.856  1.4120  0.0639  0.8916
15456TIP3   OH267858   2.697   6.257   4.836 -0.2758  0.2198  0.1217
15456TIP3    H167859   2.783   6.217   4.838 -0.6956 -0.7278 -0.0385
15456TIP3    H267860   2.703   6.333   4.894  0.9394  0.7638 -0.6832
15457TIP3   OH267861   1.326   6.113  15.146 -0.2913 -0.0704 -0.2700
15457TIP3    H167862   1.313   6.193  15.196  0.4829  0.5600 -1.0490
15457TIP3    H267863   1.355   6.143  15.060 -0.8088 -1.1610 -0.8461
15458TIP3   OH267864   5.486   3.841  16.341  0.0950 -0.1135  0.4850
15458TIP3    H167865   5.419   3.787  16.300 -1.1395  1.5658  0.1781
15458TIP3    H267866   5.569   3.798  16.320 -0.6764 -0.6022 -1.7502
15459TIP3   OH267867   3.559   3.844   1.499  0.9827 -0.6999  0.7464
15459TIP3    H167868   3.480   3.809   1.458  0.4567  0.2502  0.9361
15459TIP3    H267869   3.528   3.883   1.581  1.5989 -0.0643  0.6852
15460TIP3   OH267870   4.887   4.861   4.640 -0.1528 -0.0152  0.6312
15460TIP3    H167871   4.879   4.766   4.644 -1.2694  0.0566  0.2532
15460TIP3    H267872   4.797   4.894   4.645  0.2245  1.0300  0.9189
15461TIP3   OH267873   1.448   5.688  12.671 -0.4422 -0.1643 -0.6040
15461TIP3    H167874   1.360   5.654  12.690  0.6084 -2.1390  1.2606
15461TIP3    H267875   1.471   5.647  12.588 -0.8955 -0.5203 -0.5645
15462TIP3   OH267876   2.553   5.579  15.794  0.0150  0.3842 -0.1936
15462TIP3    H167877   2.556   5.659  15.847  0.9916  0.8129 -0.8506
15462TIP3    H267878   2.480   5.529  15.829 -0.4078  1.4205  0.4549
15463TIP3   OH267879   4.265   0.525   5.765  0.4126 -0.3379  0.1181
15463TIP3    H167880   4.304   0.452   5.718  1.2526 -0.0410  0.3276
15463TIP3    H267881   4.257   0.594   5.700  1.6266  0.0918  0.3920
15464TIP3   OH267882   5.888   3.382   4.036 -0.0803  0.1321 -0.3413
15464TIP3    H167883   5.793   3.372   4.033 -0.2490  0.3272  2.1805
15464TIP3    H267884   5.916   3.325   4.107  1.6290  0.5376 -0.6340
15465TIP3   OH267885   2.694   5.395  12.755 -0.3518 -0.0519  0.3483
15465TIP3    H167886   2.745   5.327  12.711 -1.6537 -0.5441 -0.4709
15465TIP3    H267887   2.696   5.370  12.848 -2.6607 -2.5851 -0.1504
15466TIP3   OH267888   2.101   3.683  12.147 -0.0816 -0.6953 -0.1835
15466TIP3    H167889   2.091   3.777  12.164  2.6433 -0.7160  2.3215
15466TIP3    H267890   2.143   3.679  12.061 -0.8428  0.3106 -0.6253
15467TIP3   OH267891   1.990   4.603   2.107 -0.2798 -0.1925 -0.2077
15467TIP3    H167892   2.056   4.621   2.041  0.3052 -0.4640  0.2958
15467TIP3    H267893   1.948   4.688   2.123 -0.7260 -0.2074 -1.2312
15468TIP3   OH267894   0.745   1.409  15.427  0.1236 -0.2896  0.1456
15468TIP3    H167895   0.693   1.480  15.391  0.5120 -0.1564 -0.1592
15468TIP3    H267896   0.785   1.367  15.351  1.1357  0.1419  0.4147
15469TIP3   OH267897   6.639   4.747  14.943 -0.4039  0.1317  0.1085
15469TIP3    H167898   6.598   4.822  14.899  0.0494  1.7200  2.2394
15469TIP3    H267899   6.732   4.753  14.918 -0.3363  0.3907  0.4205
15470TIP3   OH267900   2.308   3.442  14.583  0.4269  0.4650  0.1769
15470TIP3    H167901   2.237   3.506  14.589 -0.5759 -0.4064 -1.5027
15470TIP3    H267902   2.319   3.409  14.672 -1.1355  0.7888  0.5188
15471TIP3   OH267903   0.666   5.895   1.202  0.3565  0.2782 -0.3087
15471TIP3    H167904   0.613   5.872   1.126  2.5654  1.2821 -2.2557
15471TIP3    H267905   0.706   5.812   1.230 -0.0147  0.0018 -0.5947
15472TIP3   OH267906   5.598   5.437  12.716  0.2098  0.0298  0.2166
15472TIP3    H167907   5.566   5.415  12.803  0.9152  0.1770  0.5166
15472TIP3    H267908   5.525   5.416  12.658 -0.2695 -0.0555  0.8408
15473TIP3   OH267909   1.068   3.303   4.777 -0.4650  0.7282  0.1133
15473TIP3    H167910   1.156   3.265   4.786  0.1777  2.2880  0.7896
15473TIP3    H267911   1.083   3.386   4.731 -1.5063  1.2490  0.6828
15474TIP3   OH267912   2.210   0.191  10.704 -0.0679  0.7829 -0.3347
15474TIP3    H167913   2.180   0.248  10.775  1.3620  1.1362  0.0295
15474TIP3    H267914   2.245   0.251  10.638  5.0711  0.5452  1.6484
15475TIP3   OH267915   0.845   6.355   3.753 -0.5682 -0.3273  0.5079
15475TIP3    H167916   0.900   6.315   3.821  0.4799 -1.9619 -1.1808
15475TIP3    H267917   0.792   6.282   3.720 -1.4391  0.5478 -0.0461
15476TIP3   OH267918   1.671   6.387  13.501 -0.1092  0.0929 -0.0523
15476TIP3    H167919   1.753   6.432  13.480 -0.2629  0.5518  0.3154
15476TIP3    H267920   1.625   6.447  13.559  0.2029 -1.0252  1.4268
15477TIP3   OH267921   1.270   3.401  11.274  0.0764  0.2042  0.1547
15477TIP3    H167922   1.317   3.340  11.217  1.2951 -0.1915  1.5196
15477TIP3    H267923   1.316   3.396  11.358 -1.5002  0.9572  1.1124
15478TIP3   OH267924   2.949   6.364   0.059 -0.0785  0.0834  0.2760
15478TIP3    H167925   2.949   6.406   0.145  1.3899 -0.4307  0.5654
15478TIP3    H267926   2.871   6.310   0.058  0.9302 -1.5278  2.1480
15479TIP3   OH267927   4.978   3.767   4.914 -0.0156  0.3360 -0.2169
15479TIP3    H167928   4.955   3.697   4.852  3.5211  0.3482 -1.7716
15479TIP3    H267929   5.073   3.776   4.906 -0.0341  3.7853  1.6211
15480TIP3   OH267930   4.269   5.860  16.556  0.1167 -0.6644 -0.5183
15480TIP3    H167931   4.348   5.810  16.538 -0.4029 -1.0509 -1.8180
15480TIP3    H267932   4.293   5.917  16.630  1.6433 -0.6625 -0.9816
15481TIP3   OH267933   0.698   3.881   4.914  0.4196  0.5956 -0.4164
15481TIP3    H167934   0.630   3.836   4.864  0.7808  0.5633 -0.8934
15481TIP3    H267935   0.780   3.841   4.884  0.6300  0.4158  0.3761
15482TIP3   OH267936   0.757   4.338  13.874 -0.3942 -0.4801  0.2219
15482TIP3    H167937   0.820   4.266  13.881 -0.0993 -0.1743  0.7621
15482TIP3    H267938   0.673   4.299  13.899 -0.6795 -1.2022 -1.6860
15483TIP3   OH267939   1.526   4.365  14.093  0.4481  0.4761  0.1846
15483TIP3    H167940   1.560   4.418  14.165 -1.9984  0.9595  1.0972
15483TIP3    H267941   1.436   4.345  14.119  0.8901 -3.3981 -0.5264
15484TIP3   OH267942   3.239   6.617  14.825  0.1518 -0.1443  0.2467
15484TIP3    H167943   3.267   6.572  14.745  0.1304 -0.0631  0.1925
15484TIP3    H267944   3.172   6.560  14.862  0.2459 -0.2408  0.2699
15485TIP3   OH267945   5.731   0.921  16.834 -0.2035  0.1222 -0.4076
15485TIP3    H167946   5.691   0.892  16.752 -0.3372  1.0039 -0.6598
15485TIP3    H267947   5.715   0.850  16.895 -1.0796 -0.0600 -0.8402
15486TIP3   OH267948   1.333   0.878  14.952  0.2741 -0.1283  0.4271
15486TIP3    H167949   1.267   0.810  14.937 -0.2219  0.4463 -0.0519
15486TIP3    H267950   1.336   0.889  15.047 -0.1675 -0.3083  0.4636
15487TIP3   OH267951   5.030   2.225   0.536 -0.1615  0.5625 -0.6871
15487TIP3    H167952   5.061   2.316   0.532  0.4571  0.3424 -1.0268
15487TIP3    H267953   4.934   2.232   0.529 -0.3436  1.3416  1.7622
15488TIP3   OH267954   0.820   0.800   2.743  0.3690 -0.3094  0.2523
15488TIP3    H167955   0.777   0.883   2.724  0.5675 -0.3101 -0.2244
15488TIP3    H267956   0.752   0.734   2.728  0.7033 -0.3674 -1.2156
15489TIP3   OH267957   5.329   0.706  12.035  0.0602 -0.1209 -0.0651
15489TIP3    H167958   5.414   0.682  12.072  0.5721  1.4076 -0.1774
15489TIP3    H267959   5.276   0.627  12.042  0.3333 -0.1214  3.2707
15490TIP3   OH267960   4.232   1.467  11.067 -0.1562  0.3448  0.1119
15490TIP3    H167961   4.149   1.497  11.029  0.4230  1.4277 -0.3513
15490TIP3    H267962   4.266   1.404  11.004 -1.0580 -0.8258  0.7587
15491TIP3   OH267963   5.409   2.036   3.267  0.0946  0.1089  0.2426
15491TIP3    H167964   5.352   2.035   3.189  1.3755  0.6283 -0.7364
15491TIP3    H267965   5.413   1.945   3.295 -0.0783 -0.1525 -0.5369
15492TIP3   OH267966   1.017   0.428   1.825 -0.0699  0.4853  0.6438
15492TIP3    H167967   0.933   0.470   1.807 -0.3710 -0.2434  0.2880
15492TIP3    H267968   1.079   0.471   1.765 -0.3866  0.3761  0.2342
15493TIP3   OH267969   2.528   3.617  11.566  0.3616  0.0473 -0.2511
15493TIP3    H167970   2.461   3.683  11.583  0.2474 -0.3212  0.8128
15493TIP3    H267971   2.555   3.588  11.653  0.8181 -0.8917 -0.6948
15494TIP3   OH267972   4.039   1.265   4.500  0.0228  0.0222  0.6277
15494TIP3    H167973   4.064   1.195   4.439  0.0421  0.2709  0.3519
15494TIP3    H267974   4.112   1.327   4.496  0.5517 -0.4962  1.7299
15495TIP3   OH267975   4.419   5.982   6.187 -0.0914  0.0594  0.0913
15495TIP3    H167976   4.394   5.896   6.154  1.3934 -0.0239 -0.9089
15495TIP3    H267977   4.348   6.005   6.248 -1.3336 -1.1412 -0.8195
15496TIP3   OH267978   5.202   3.812   2.342  0.0208 -0.5881 -0.0651
15496TIP3    H167979   5.233   3.824   2.253 -3.2320 -0.1692 -1.2786
15496TIP3    H267980   5.221   3.895   2.386  0.3493 -0.2858 -0.7708
15497TIP3   OH267981   2.563   0.446  16.207  0.5493 -0.0034  0.5199
15497TIP3    H167982   2.623   0.506  16.249 -0.3113 -0.3353  2.3362
15497TIP3    H267983   2.575   0.461  16.113  2.2676  1.0527  0.8668
15498TIP3   OH267984   5.806   1.955  15.884  0.0103  0.5135 -0.3598
15498TIP3    H167985   5.897   1.930  15.869 -0.3871 -0.1785 -1.7511
15498TIP3    H267986   5.782   1.911  15.966  0.4222 -0.7359 -0.8848
15499TIP3   OH267987   1.190   2.485  13.997 -0.1933  0.5447  0.3802
15499TIP3    H167988   1.246   2.555  13.964 -1.0843  0.0439 -2.5093
15499TIP3    H267989   1.106   2.527  14.013 -0.3544  0.4105 -0.0824
15500TIP3   OH267990   2.421   5.199  14.963 -0.6914 -0.2907  0.0920
15500TIP3    H167991   2.456   5.269  15.017 -1.9109  0.4512 -0.0446
15500TIP3    H267992   2.326   5.207  14.971 -0.8718 -1.7830 -0.1136
15501TIP3   OH267993   5.267   1.835   1.830  0.3209 -0.0691 -0.2785
15501TIP3    H167994   5.247   1.765   1.892 -2.6350  1.2341  0.4307
15501TIP3    H267995   5.302   1.790   1.753 -2.3690 -2.5127 -0.2405
15502TIP3   OH267996   3.080   2.399   5.562  0.4537  0.0209 -0.2134
15502TIP3    H167997   3.059   2.305   5.563  1.0146 -0.1241  1.3767
15502TIP3    H267998   3.104   2.417   5.471 -0.1342 -1.2617 -0.6533
15503TIP3   OH267999   3.398   2.249   4.569 -0.0248 -0.1864 -0.6220
15503TIP3    H168000   3.322   2.304   4.587 -1.5752 -1.3269 -3.0630
15503TIP3    H268001   3.462   2.307   4.529 -0.2577  0.4745 -0.0456
15504TIP3   OH268002   1.189   0.502   1.634 -0.3177 -0.1196 -0.0413
15504TIP3    H168003   1.280   0.480   1.618 -0.1914 -0.0426  0.5235
15504TIP3    H268004   1.150   0.513   1.547  0.7303  1.9930 -0.2984
15505TIP3   OH268005   3.523   1.915   6.701 -0.5331  0.1467  0.1433
15505TIP3    H168006   3.494   1.842   6.756 -0.6546 -1.5073 -1.9906
15505TIP3    H268007   3.612   1.892   6.676  0.7339  2.4751  2.1579
15506TIP3   OH268008   4.824   0.499  13.670  0.0358  0.1960  0.0646
15506TIP3    H168009   4.735   0.510  13.636  0.0965 -0.4930 -0.3317
15506TIP3    H268010   4.829   0.406  13.693  1.1234 -0.1079 -1.2895
15507TIP3   OH268011   2.438   6.150   0.254  0.3615 -0.4003  0.4781
15507TIP3    H168012   2.343   6.146   0.267  0.2118 -0.9718 -0.6099
15507TIP3    H268013   2.453   6.097   0.176  1.5601 -0.1377  0.5122
15508TIP3   OH268014   3.601   3.958  11.731  0.7701  0.0572  0.0381
15508TIP3    H168015   3.695   3.943  11.746  1.2974  1.1502 -1.7990
15508TIP3    H268016   3.567   3.872  11.707  1.0045 -0.6017  1.9326
15509TIP3   OH268017   5.084   2.932   5.913  0.3609 -0.7115 -0.1844
15509TIP3    H168018   5.129   3.015   5.895  0.3132 -0.4838  0.6666
15509TIP3    H268019   5.034   2.914   5.834 -1.2952  1.1746  0.3312
15510TIP3   OH268020   5.750   3.814   5.351 -0.2452  0.5295 -0.4025
15510TIP3    H168021   5.794   3.748   5.404 -0.5875 -0.1721 -0.9865
15510TIP3    H268022   5.820   3.869   5.317  0.2758 -1.0547 -1.9886
15511TIP3   OH268023   5.662   0.907  10.982 -0.2557 -0.5714  0.2743
15511TIP3    H168024   5.595   0.951  11.034 -0.2349  0.5322 -0.6156
15511TIP3    H268025   5.613   0.855  10.918 -0.2947  0.8425 -0.8843
15512TIP3   OH268026   1.334   5.429   3.327  0.2431 -0.5018 -0.1613
15512TIP3    H168027   1.259   5.482   3.355  1.0570  0.8450 -0.4027
15512TIP3    H268028   1.319   5.414   3.233 -0.9208 -2.3517  0.2692
15513TIP3   OH268029   6.595   2.593   3.694 -0.7827 -0.2767  0.6615
15513TIP3    H168030   6.564   2.618   3.607 -0.1345  0.1112  0.5398
15513TIP3    H268031   6.639   2.671   3.728 -1.1285 -0.3891  1.3873
15514TIP3   OH268032   3.275   3.668   2.383  0.4877  0.3826  0.0539
15514TIP3    H168033   3.323   3.632   2.459  1.5625  1.9566  0.1791
15514TIP3    H268034   3.233   3.746   2.417  1.9445  1.7773 -1.1995
15515TIP3   OH268035   3.248   2.854  14.814  0.1211 -0.5628  0.2419
15515TIP3    H168036   3.200   2.891  14.740  2.1065  0.0184 -0.8464
15515TIP3    H268037   3.223   2.909  14.889  0.2218  0.6604 -0.5968
15516TIP3   OH268038   5.978   2.980   0.597 -0.5813  0.0792 -0.2605
15516TIP3    H168039   6.009   2.907   0.650 -1.1360  0.2128  0.2512
15516TIP3    H268040   5.979   2.946   0.507  0.8487  0.0188 -0.2395
15517TIP3   OH268041   1.145   4.661  14.625 -0.7293  0.7518 -0.1608
15517TIP3    H168042   1.101   4.701  14.700 -1.3251  1.3416 -0.8082
15517TIP3    H268043   1.149   4.731  14.559  0.7310  0.5702 -0.3103
15518TIP3   OH268044   0.930   2.225  11.955  0.6863  0.0796 -0.3409
15518TIP3    H168045   0.935   2.165  12.030  0.7486  0.5242  0.0218
15518TIP3    H268046   0.870   2.294  11.985  0.4865  0.1145 -0.8117
15519TIP3   OH268047   4.831   5.694   4.418 -0.3356  0.0035  0.5673
15519TIP3    H168048   4.887   5.685   4.340 -1.2154  0.6429 -0.1595
15519TIP3    H268049   4.815   5.605   4.447  0.9357 -0.2011  0.6997
15520TIP3   OH268050   5.482   1.728   2.450 -0.0237  0.0542  0.3668
15520TIP3    H168051   5.539   1.663   2.492  1.1025  0.6232 -0.2255
15520TIP3    H268052   5.536   1.807   2.444 -0.1860  0.0599 -1.9183
15521TIP3   OH268053   6.581   6.581  17.151 -0.3783  0.4006 -0.3696
15521TIP3    H168054   6.626   6.499  17.130 -0.1826  0.5251 -0.4327
15521TIP3    H268055   6.600   6.639  17.077 -0.5329  0.4975 -0.3338
15522TIP3   OH268056   4.397   3.104  14.918 -0.1676  0.2211  0.0810
15522TIP3    H168057   4.326   3.045  14.893 -0.6349  0.5212  0.6893
15522TIP3    H268058   4.390   3.111  15.013  0.7751  0.1335  0.1652
15523TIP3   OH268059   3.712   5.429  16.490 -0.5818  0.2467 -0.0538
15523TIP3    H168060   3.721   5.339  16.524 -1.0190 -0.2497 -1.1975
15523TIP3    H268061   3.671   5.418  16.404  2.2603  1.2764 -1.6857
15524TIP3   OH268062   6.679   3.912   5.788  0.4803 -0.0040  0.1878
15524TIP3    H168063   6.763   3.872   5.809  0.2911 -0.4428  0.1173
15524TIP3    H268064   6.662   3.886   5.697 -0.1784 -0.7252  0.5001
15525TIP3   OH268065   0.894   5.663   0.725 -0.2406 -0.2569  1.1396
15525TIP3    H168066   0.852   5.713   0.655  0.4080 -0.2016  0.7860
15525TIP3    H268067   0.878   5.572   0.703 -1.6614 -0.2330  1.9286
15526TIP3   OH268068   0.727   1.972   2.416  0.4595 -0.5993  0.5387
15526TIP3    H168069   0.744   1.920   2.337 -0.2700 -0.6404  0.4002
15526TIP3    H268070   0.733   1.909   2.488  0.6137 -0.6655  0.4676
15527TIP3   OH268071   0.471   6.131   2.505 -0.2480 -0.4917 -0.2562
15527TIP3    H168072   0.544   6.139   2.443  0.3448 -0.0682  0.4911
15527TIP3    H268073   0.404   6.081   2.456  0.7214 -1.3275 -0.7757
15528TIP3   OH268074   3.593   5.966  13.157  0.8012  0.5554  0.0159
15528TIP3    H168075   3.631   5.943  13.072  1.1132 -0.5312  0.4281
15528TIP3    H268076   3.535   6.039  13.138  1.5723  0.9476 -0.9762
15529TIP3   OH268077   4.551   5.284   7.025  0.5749 -0.3469 -0.5135
15529TIP3    H168078   4.620   5.334   7.068  0.0981 -0.4074  0.3511
15529TIP3    H268079   4.596   5.213   6.980  1.0184 -1.0690  0.9783
15530TIP3   OH268080   6.069   5.603  16.406  0.5981  0.0945  0.3687
15530TIP3    H168081   6.043   5.512  16.400 -0.3871  0.3952 -0.0879
15530TIP3    H268082   5.987   5.652  16.403  1.1551  1.0335 -0.1353
15531TIP3   OH268083   4.391   2.889   0.200 -0.7094  0.2068 -0.0834
15531TIP3    H168084   4.299   2.877   0.226 -0.5772  0.8339  0.6760
15531TIP3    H268085   4.439   2.824   0.251 -0.7824 -0.4722 -0.8614
15532TIP3   OH268086   6.591   3.111   1.730  0.5693  0.2244  0.4028
15532TIP3    H168087   6.539   3.187   1.754  0.0898  0.1206 -0.2818
15532TIP3    H268088   6.681   3.135   1.753  0.2976  0.6110  1.0987
15533TIP3   OH268089   3.783   3.610   3.520  0.8352 -0.0947 -0.3773
15533TIP3    H168090   3.746   3.568   3.442 -0.5951 -0.5343  0.5097
15533TIP3    H268091   3.810   3.538   3.576  0.7468  0.1962  0.0422
15534TIP3   OH268092   2.111   0.101  15.271 -0.1545 -0.0450 -0.6272
15534TIP3    H168093   2.038   0.152  15.237 -0.3728  0.5657  0.6853
15534TIP3    H268094   2.188   0.136  15.226 -0.4975  0.3269 -0.9266
15535TIP3   OH268095   1.030   2.414   4.448  0.1779 -0.2498  0.3191
15535TIP3    H168096   0.946   2.460   4.448  1.1903  1.8321 -1.9043
15535TIP3    H268097   1.029   2.363   4.367  1.5707  0.9838 -0.5290
15536TIP3   OH268098   6.761   4.747   4.195 -0.3337  0.2600 -0.3258
15536TIP3    H168099   6.674   4.715   4.219 -0.2636 -0.5456 -1.0908
15536TIP3    H268100   6.816   4.669   4.198  0.4645  0.8386  0.5734
15537TIP3   OH268101   5.602   0.497   3.250  0.5998 -0.1011 -0.0938
15537TIP3    H168102   5.573   0.551   3.177  0.0687  0.9748  0.8721
15537TIP3    H268103   5.545   0.420   3.247  0.0803  0.2876 -0.3739
15538TIP3   OH268104   5.191   4.146   2.010 -0.9546  0.1240  0.7318
15538TIP3    H168105   5.166   4.180   2.096 -1.6445 -0.5530  0.8078
15538TIP3    H268106   5.222   4.057   2.027 -2.3734 -0.5178  0.1339
15539TIP3   OH268107   5.551   5.687   3.464 -0.5235  0.5662 -0.0083
15539TIP3    H168108   5.629   5.669   3.412 -0.6072 -0.3801  0.1785
15539TIP3    H268109   5.570   5.647   3.550 -1.7293 -0.8649 -0.3682
15540TIP3   OH268110   6.119   2.952  11.817 -0.0311  0.5722  0.0563
15540TIP3    H168111   6.051   2.973  11.881 -0.0438  3.5531 -0.7637
15540TIP3    H268112   6.130   3.033  11.767  1.9166 -0.7932 -1.9139
15541TIP3   OH268113   1.006   2.659   3.251  0.1087 -0.3991  0.3446
15541TIP3    H168114   1.064   2.615   3.188 -0.5838 -0.4316 -0.2733
15541TIP3    H268115   0.945   2.591   3.279  0.3100 -0.3429  0.9362
15542TIP3   OH268116   5.701   0.236  14.755  0.1963  0.6285  0.0441
15542TIP3    H168117   5.686   0.269  14.667  0.7734  0.1538 -0.2408
15542TIP3    H268118   5.784   0.189  14.749  0.8958  1.6547  1.1261
15543TIP3   OH268119   0.636   5.946  14.839 -0.0490 -0.5185  0.2592
15543TIP3    H168120   0.714   5.996  14.862 -0.1187  0.3560 -1.2693
15543TIP3    H268121   0.669   5.857  14.825  0.2314 -0.7349  2.0345
15544TIP3   OH268122   0.911   0.172  13.301 -0.5141  0.1050 -0.2684
15544TIP3    H168123   0.971   0.238  13.267  1.3517  0.4131  3.1846
15544TIP3    H268124   0.840   0.222  13.340 -0.6785 -0.0657 -0.3493
15545TIP3   OH268125   1.217   4.850  11.956 -0.1206 -0.0080 -0.4161
15545TIP3    H168126   1.299   4.872  11.912  1.1185  0.8129  2.1463
15545TIP3    H268127   1.236   4.769  12.003 -0.8324  0.1076  0.0771
15546TIP3   OH268128   4.539   3.150  15.763  0.0510 -0.4277  0.8229
15546TIP3    H168129   4.605   3.215  15.737 -0.5126  0.8388  2.3713
15546TIP3    H268130   4.484   3.140  15.686 -0.6659  2.0313  0.9217
15547TIP3   OH268131   2.459   1.264  15.894  0.5369  0.1152 -0.1129
15547TIP3    H168132   2.523   1.325  15.931  2.2902 -1.9701  0.4580
15547TIP3    H268133   2.423   1.310  15.818  1.1308  2.1800  0.7926
15548TIP3   OH268134   6.000   0.532   5.000 -0.8191 -0.3459  0.1183
15548TIP3    H168135   6.006   0.443   4.965 -1.3020 -0.9911  1.5988
15548TIP3    H268136   5.927   0.529   5.061  0.3943  0.5273  1.6854
15549TIP3   OH268137   2.876   4.448   2.359 -0.0814  0.0267 -0.0734
15549TIP3    H168138   2.952   4.449   2.417 -0.3091  2.5565  0.3259
15549TIP3    H268139   2.911   4.469   2.273 -0.1771 -0.0365 -0.1281
15550TIP3   OH268140   5.932   5.746   6.237  0.0715  0.5133  0.1601
15550TIP3    H168141   5.858   5.714   6.288  0.1110 -0.8029 -0.5508
15550TIP3    H268142   5.918   5.840   6.230 -1.0884  0.4017  0.7296
15551TIP3   OH268143   4.590   1.962  15.576  0.3527 -0.3694 -0.6214
15551TIP3    H168144   4.542   1.918  15.506 -0.4469 -2.5756  1.1917
15551TIP3    H268145   4.673   1.914  15.581  0.5205 -0.0368 -0.2285
15552TIP3   OH268146   4.284   4.283  11.927 -0.5300  0.4982  0.0982
15552TIP3    H168147   4.195   4.261  11.955 -0.4992  1.2599  0.8315
15552TIP3    H268148   4.274   4.319  11.839 -0.9772  0.8299  0.2825
15553TIP3   OH268149   0.776   1.857   6.139 -0.1515 -0.1300 -0.1950
15553TIP3    H168150   0.842   1.877   6.205  0.0516 -0.6394 -0.2358
15553TIP3    H268151   0.771   1.935   6.085 -0.7180  0.5121  0.7468
15554TIP3   OH268152   0.924   2.962   0.453 -0.2815  0.0788 -0.1710
15554TIP3    H168153   0.840   2.932   0.490 -1.1789  1.2954 -1.1279
15554TIP3    H268154   0.905   3.050   0.421  1.9752  1.3155  1.6007
15555TIP3   OH268155   4.953   2.195   3.906 -0.0095  0.3013  0.2664
15555TIP3    H168156   5.021   2.194   3.839 -0.0744 -1.5684  0.1689
15555TIP3    H268157   4.887   2.255   3.873  0.4996  0.3121 -0.7742
15556TIP3   OH268158   2.715   1.737   4.598  0.2991  0.6888 -0.1437
15556TIP3    H168159   2.809   1.750   4.608  1.2555 -2.2644 -3.4766
15556TIP3    H268160   2.697   1.652   4.638 -0.5418  0.3003 -1.2849
15557TIP3   OH268161   4.138   6.040  11.235  0.5442  0.0013 -0.1540
15557TIP3    H168162   4.192   5.991  11.173 -0.4724 -0.1660 -0.9377
15557TIP3    H268163   4.048   6.026  11.205  0.0708  0.4636  0.9750
15558TIP3   OH268164   0.686   5.736   5.874 -0.0200 -0.2089  0.3145
15558TIP3    H168165   0.641   5.748   5.790  0.4190  2.9401  0.3995
15558TIP3    H268166   0.615   5.725   5.938 -0.5113  0.5222 -0.0882
15559TIP3   OH268167   3.689   4.583  13.523  0.1604 -0.4194  0.2457
15559TIP3    H168168   3.693   4.661  13.468 -0.7212 -0.4397  0.1357
15559TIP3    H268169   3.728   4.610  13.606  1.8444 -0.4832 -0.4664
15560TIP3   OH268170   2.179   1.078  14.132 -0.0115 -0.3408  0.2795
15560TIP3    H168171   2.104   1.126  14.167 -0.3888 -0.5854 -0.1977
15560TIP3    H268172   2.254   1.114  14.180 -0.1781  1.2766 -0.6059
15561TIP3   OH268173   1.173   0.187   4.534  0.6081  0.0431 -0.5988
15561TIP3    H168174   1.123   0.105   4.535  0.0011  0.3893 -1.4926
15561TIP3    H268175   1.145   0.231   4.454  0.3935  1.4711  0.2313
15562TIP3   OH268176   3.788   3.700  17.151 -0.7184 -0.1388 -0.8953
15562TIP3    H168177   3.805   3.720  17.059  0.7806 -0.3445 -0.6800
15562TIP3    H268178   3.796   3.605  17.156 -1.3944 -0.1880 -0.6521
15563TIP3   OH268179   0.214   2.486  12.763  0.5960 -0.1914 -0.4271
15563TIP3    H168180   0.146   2.530  12.814  1.1421 -0.2338  0.3465
15563TIP3    H268181   0.166   2.432  12.701 -0.1308 -1.6228  1.2888
15564TIP3   OH268182   4.573   4.010  12.020  0.0541  0.0666  0.0039
15564TIP3    H168183   4.557   4.079  11.955 -0.9160  0.7410  0.9415
15564TIP3    H268184   4.606   3.936  11.968  0.3071  0.9403 -1.1225
15565TIP3   OH268185   1.126   2.742   5.814 -0.1409  0.3178  0.3950
15565TIP3    H168186   1.107   2.784   5.898 -2.3471 -0.6324  0.4185
15565TIP3    H268187   1.104   2.809   5.749 -2.4488 -0.3163  0.4739
15566TIP3   OH268188   0.993   6.547   0.796 -0.0984  0.3013 -0.8317
15566TIP3    H168189   1.087   6.553   0.781 -0.0925  0.0398 -0.9172
15566TIP3    H268190   0.971   6.457   0.770 -0.4409  0.4918 -1.2141
15567TIP3   OH268191   5.711   3.330   1.870 -0.1616 -0.6004 -0.1771
15567TIP3    H168192   5.781   3.331   1.805  0.6438 -1.9289  0.6218
15567TIP3    H268193   5.721   3.412   1.918 -0.2358 -0.0053 -1.1615
15568TIP3   OH268194   2.268   3.565  17.146  0.2191  0.1017  0.4957
15568TIP3    H168195   2.308   3.581  17.061 -1.3687 -1.3023 -0.5835
15568TIP3    H268196   2.338   3.524  17.197  0.4951 -1.4273 -1.0181
15569TIP3   OH268197   5.097   1.084   2.331 -0.3618 -0.0423  0.2115
15569TIP3    H168198   5.175   1.029   2.344  1.1372  2.2859  1.8761
15569TIP3    H268199   5.052   1.081   2.415 -1.0190  0.1744 -0.1316
15570TIP3   OH268200   3.810   1.507   1.546  0.1670  0.5627  0.1581
15570TIP3    H168201   3.758   1.579   1.581 -1.7024 -0.3373 -0.6383
15570TIP3    H268202   3.747   1.436   1.533  1.0797  0.1734 -3.0773
15571TIP3   OH268203   2.189   6.594  11.870  0.3006 -0.1277  0.0103
15571TIP3    H168204   2.260   6.530  11.883 -0.8214 -1.2001  1.1491
15571TIP3    H268205   2.177   6.597  11.775 -0.2174 -2.3599 -0.0686
15572TIP3   OH268206   1.202   0.531   0.300  0.2897 -0.1223 -0.1487
15572TIP3    H168207   1.143   0.548   0.374  0.4280  0.3578 -0.1410
15572TIP3    H268208   1.144   0.506   0.229  0.0241  0.7294 -0.2517
15573TIP3   OH268209   3.597   1.782   1.124  0.1417 -0.4255  0.1375
15573TIP3    H168210   3.537   1.841   1.170 -1.7753 -1.3242 -1.0847
15573TIP3    H268211   3.658   1.754   1.191 -0.7607  0.5967  1.4459
15574TIP3   OH268212   3.913   2.940  15.585 -0.0712 -0.1756  0.1205
15574TIP3    H168213   3.861   2.933  15.505  0.4838 -0.9080 -0.1838
15574TIP3    H268214   3.864   3.002  15.640  0.3421  1.5871 -1.4027
15575TIP3   OH268215   5.892   3.876  14.041 -0.5043 -0.6174  0.0976
15575TIP3    H168216   5.829   3.806  14.056 -1.2285  0.1528  0.7706
15575TIP3    H268217   5.916   3.868  13.949 -1.2306 -1.2055 -0.0467
15576TIP3   OH268218   6.124   4.355  13.020 -0.1172  0.4863  0.0329
15576TIP3    H168219   6.124   4.416  12.946  1.5958 -0.6121 -0.9504
15576TIP3    H268220   6.102   4.270  12.981  1.0253 -0.1483  0.7290
15577TIP3   OH268221   1.261   2.383   2.882  0.0206  0.2420 -0.3205
15577TIP3    H168222   1.244   2.394   2.788 -0.4736  0.9828 -0.1552
15577TIP3    H268223   1.349   2.347   2.886 -1.1067 -2.9448 -1.1780
15578TIP3   OH268224   0.091   4.923  11.705 -0.4483 -0.4413  0.0663
15578TIP3    H168225   0.079   4.897  11.797 -2.4027 -0.5493 -0.1850
15578TIP3    H268226   0.026   4.992  11.691  1.0922  0.9087 -0.7516
15579TIP3   OH268227   1.554   0.787  13.943  0.5973  0.3771  0.7813
15579TIP3    H168228   1.486   0.754  14.001 -0.4791 -0.2403 -0.7754
15579TIP3    H268229   1.634   0.743  13.974  0.5391  1.7471  3.1634
15580TIP3   OH268230   2.401   2.633  17.065 -0.8923 -0.4083 -0.0022
15580TIP3    H168231   2.468   2.581  17.021 -1.7860 -1.1734 -0.4850
15580TIP3    H268232   2.450   2.686  17.128  0.2238 -0.5360 -0.7280
15581TIP3   OH268233   3.692   4.421   1.505 -0.2597  0.3183  0.3684
15581TIP3    H168234   3.654   4.366   1.437  0.7803 -1.1002  0.9057
15581TIP3    H268235   3.635   4.498   1.508 -2.0180 -0.9203 -0.0764
15582TIP3   OH268236   1.892   6.548   5.267  0.0446  0.1881  0.3334
15582TIP3    H168237   1.835   6.504   5.205  2.0640 -0.4279 -1.1733
15582TIP3    H268238   1.900   6.488   5.341 -0.1736 -0.3118 -0.0532
15583TIP3   OH268239   1.674   1.710   3.147  0.3681 -0.4911 -0.4239
15583TIP3    H168240   1.615   1.692   3.220  2.6636 -0.6277  1.4918
15583TIP3    H268241   1.716   1.626   3.129  0.6813 -0.1907 -1.1426
15584TIP3   OH268242   2.012   2.113  10.946  0.2792  0.1126  0.2407
15584TIP3    H168243   2.088   2.164  10.921  0.8517 -0.1244  1.4022
15584TIP3    H268244   1.955   2.175  10.992 -0.3564  0.3473 -0.8439
15585TIP3   OH268245   0.711   4.918   3.139  0.0098  0.2378 -0.0156
15585TIP3    H168246   0.723   4.925   3.234  2.7905 -0.0559 -0.2642
15585TIP3    H268247   0.687   5.006   3.111  3.7584  1.6318  0.5318
15586TIP3   OH268248   1.831   1.161   1.642  0.2255  0.0253  0.4603
15586TIP3    H168249   1.810   1.225   1.574 -0.2281  0.5289  1.0581
15586TIP3    H268250   1.772   1.087   1.625 -1.4417  1.0329  1.5551
15587TIP3   OH268251   1.788   3.543   1.103 -0.1069 -0.2966  0.2867
15587TIP3    H168252   1.697   3.565   1.082  0.5669  0.0559 -2.7324
15587TIP3    H268253   1.837   3.623   1.085  0.9320 -0.7298  1.0505
15588TIP3   OH268254   6.356   5.219  13.846  0.3548  0.0922 -0.6659
15588TIP3    H168255   6.384   5.270  13.769  1.1786 -1.2551 -1.3058
15588TIP3    H268256   6.392   5.266  13.921 -0.5555  1.4957 -1.0823
15589TIP3   OH268257   6.514   6.681   0.292 -0.2721  0.3436  0.5987
15589TIP3    H168258   6.502   6.738   0.367  1.5916 -0.3752  1.5184
15589TIP3    H268259   6.496   6.593   0.325  0.8528 -0.0125  0.3215
15590TIP3   OH268260   4.356   0.888  15.861  0.5906 -0.7917 -0.2947
15590TIP3    H168261   4.377   0.956  15.797  0.1325  0.1294  0.5155
15590TIP3    H268262   4.317   0.818  15.809  2.4089 -1.0855 -1.3608
15591TIP3   OH268263   0.927   5.219  11.187 -0.1262 -0.5548 -0.2778
15591TIP3    H168264   1.005   5.179  11.224  1.4229  2.4542  0.0322
15591TIP3    H268265   0.860   5.207  11.255  1.7584  1.9422  2.2826
15592TIP3   OH268266   1.034   1.601   3.193 -0.1836 -0.2027 -0.5917
15592TIP3    H168267   0.946   1.623   3.224  0.6803  1.7349  0.7398
15592TIP3    H268268   1.079   1.569   3.271  0.3314 -1.1295 -1.2508
15593TIP3   OH268269   1.496   6.444   3.731 -0.5265  0.4456 -0.0530
15593TIP3    H168270   1.559   6.507   3.766 -1.6969  2.2150 -1.0175
15593TIP3    H268271   1.550   6.373   3.696  0.8403  0.9914  0.8595
15594TIP3   OH268272   5.133   1.459  16.931  0.2846  0.0937 -0.4376
15594TIP3    H168273   5.170   1.516  16.998  0.2755 -0.3929 -0.0184
15594TIP3    H268274   5.140   1.371  16.967 -2.2708  0.0486  0.1347
15595TIP3   OH268275   0.577   4.622   6.170  0.1867  0.4095  0.4820
15595TIP3    H168276   0.593   4.677   6.247  0.8291  0.0385  0.6237
15595TIP3    H268277   0.562   4.684   6.099 -0.3858  0.7579  0.8980
15596TIP3   OH268278   1.476   6.363  17.311 -0.1551 -0.3827 -0.4798
15596TIP3    H168279   1.511   6.275  17.298  0.8939 -0.0211 -0.1982
15596TIP3    H268280   1.422   6.379  17.234  1.3236 -0.4735 -1.5879
15597TIP3   OH268281   1.238   6.757  12.653 -0.3888 -0.1533  0.2331
15597TIP3    H168282   1.284   6.809  12.719 -2.2668  1.6814  0.1977
15597TIP3    H268283   1.249   6.667  12.682  1.0198  0.4178  1.6127
15598TIP3   OH268284   1.057   3.004   2.769 -0.3996 -0.6401 -0.5169
15598TIP3    H168285   1.019   2.967   2.689  0.6320 -1.2900 -0.7266
15598TIP3    H268286   1.052   2.932   2.832 -0.8498 -0.2546 -0.1068
15599TIP3   OH268287   2.016   2.671   5.021 -0.4666  0.0980  0.1743
15599TIP3    H168288   2.081   2.736   5.045  0.2350  0.4445 -2.3763
15599TIP3    H268289   2.006   2.617   5.100 -0.3012  2.5803  2.0326
15600TIP3   OH268290   3.448   5.744   4.396  0.8252 -0.2506  0.1309
15600TIP3    H168291   3.481   5.690   4.324 -0.6304 -0.3273 -0.5142
15600TIP3    H268292   3.376   5.694   4.433 -1.0536  1.4893 -0.9496
15601TIP3   OH268293   5.102   4.703  13.687  0.5607 -0.3206  0.2680
15601TIP3    H168294   5.047   4.780  13.700  0.6530 -0.2274  0.1142
15601TIP3    H268295   5.080   4.644  13.759 -1.4377 -1.3000 -1.0721
15602TIP3   OH268296   5.568   2.761  12.893  0.0052  0.5488 -0.5080
15602TIP3    H168297   5.572   2.690  12.829 -1.0386  1.1190 -1.2398
15602TIP3    H268298   5.614   2.834  12.852 -0.5530  0.8769 -0.5583
15603TIP3   OH268299   1.868   4.687  12.691  0.2783  0.7401 -0.2350
15603TIP3    H168300   1.954   4.668  12.730  0.1776  0.8483  0.0341
15603TIP3    H268301   1.860   4.622  12.621  1.7444  2.3565 -2.0284
15604TIP3   OH268302   0.558   5.457   1.747 -0.5511 -0.2800  0.1664
15604TIP3    H168303   0.539   5.443   1.840 -2.1518 -0.8000 -0.2215
15604TIP3    H268304   0.563   5.369   1.709 -1.5277 -0.0435 -0.5411
15605TIP3   OH268305   4.339   6.175   0.844  0.1960  0.3684  0.1084
15605TIP3    H168306   4.287   6.111   0.894  0.6056 -2.4354 -2.7346
15605TIP3    H268307   4.280   6.249   0.831 -1.0398 -0.2350  1.8194
15606TIP3   OH268308   3.647   3.926   3.023  0.1657 -0.1078  0.2004
15606TIP3    H168309   3.649   3.883   2.938  0.6526  0.2043  0.0478
15606TIP3    H268310   3.619   4.016   3.004  1.7754  0.4221  0.1458
15607TIP3   OH268311   1.351   2.277   0.949 -0.2276 -1.0098  0.2592
15607TIP3    H168312   1.327   2.222   1.024 -2.2084 -1.0592 -0.3493
15607TIP3    H268313   1.289   2.349   0.951  0.6364 -0.2252 -0.5018
15608TIP3   OH268314   1.613   5.872   3.582 -0.2559 -0.2511 -0.3985
15608TIP3    H168315   1.576   5.946   3.535 -0.0904 -0.1748 -0.4100
15608TIP3    H268316   1.690   5.848   3.531  0.6917  0.6723  0.5467
15609TIP3   OH268317   0.796   0.950  16.021  0.0804 -0.1305 -0.9170
15609TIP3    H168318   0.887   0.929  15.997  0.3358  0.4463 -0.4651
15609TIP3    H268319   0.776   1.028  15.971  0.1514  0.2815 -0.3074
15610TIP3   OH268320   5.043   2.923   5.121  0.0247 -0.3459 -0.4365
15610TIP3    H168321   5.102   2.981   5.074  4.1355 -1.9712  2.0958
15610TIP3    H268322   5.094   2.894   5.198 -4.0136 -2.3097  1.8607
15611TIP3   OH268323   0.372   6.151  13.505  0.3272 -0.0522 -0.1828
15611TIP3    H168324   0.382   6.131  13.598  0.1618  0.9529  0.0552
15611TIP3    H268325   0.345   6.068  13.466  2.0800 -0.9419  0.3711
15612TIP3   OH268326   5.680   3.408   5.607  0.0548  0.5661  0.5741
15612TIP3    H168327   5.608   3.424   5.667 -0.4757 -1.6681  0.6041
15612TIP3    H268328   5.639   3.409   5.520 -0.7370 -3.5542  0.7153
15613TIP3   OH268329   2.312   2.280   3.493 -0.3911  0.1284 -0.1787
15613TIP3    H168330   2.402   2.308   3.472 -0.8610  1.6952 -0.2810
15613TIP3    H268331   2.278   2.248   3.410 -0.7093  1.8949 -0.7781
15614TIP3   OH268332   1.417   0.971  15.943 -0.2847  0.2205 -0.6328
15614TIP3    H168333   1.424   0.913  16.018 -1.6133 -1.1035 -1.4839
15614TIP3    H268334   1.334   1.017  15.955  0.5426  1.6685 -0.1951
15615TIP3   OH268335   5.789   3.782  11.189  0.1663  0.5530  0.7224
15615TIP3    H168336   5.714   3.809  11.136  0.4225  1.4406  0.7991
15615TIP3    H268337   5.851   3.747  11.125  1.0482  2.8827  0.2074
15616TIP3   OH268338   1.511   5.214   3.957  0.2161 -0.0449 -0.3326
15616TIP3    H168339   1.527   5.148   3.890 -0.6439  0.7484 -1.3533
15616TIP3    H268340   1.492   5.164   4.036  2.8058 -1.0240 -0.2233
15617TIP3   OH268341   5.639   5.387   2.875  0.2845  0.1044 -0.5836
15617TIP3    H168342   5.718   5.414   2.828  1.3021  0.2323  1.1296
15617TIP3    H268343   5.628   5.452   2.945 -1.5818  0.3187 -1.0022
15618TIP3   OH268344   0.481   0.495  13.474 -1.0372  0.5286 -0.6674
15618TIP3    H168345   0.416   0.465  13.410  0.0600  2.0570 -2.6446
15618TIP3    H268346   0.438   0.568  13.519 -0.8886  1.2840 -1.6966
15619TIP3   OH268347   0.249   5.573  13.297  0.3059  0.0787  0.1924
15619TIP3    H168348   0.268   5.493  13.345  0.5924  0.0934  0.1028
15619TIP3    H268349   0.220   5.635  13.365 -2.1090 -0.7533  0.0232
15620TIP3   OH268350   2.615   4.781  16.920 -0.1277  0.3918 -0.3440
15620TIP3    H168351   2.648   4.727  16.848  0.0439  0.1207 -0.0648
15620TIP3    H268352   2.691   4.835  16.946 -0.1960  0.5069 -0.3811
15621TIP3   OH268353   3.717   2.230   1.572 -0.8899 -0.3510 -0.2926
15621TIP3    H168354   3.663   2.217   1.650 -2.1118 -1.0867 -1.2131
15621TIP3    H268355   3.672   2.179   1.504  0.7665 -0.6452 -1.2003
15622TIP3   OH268356   3.708   2.758   1.151  0.3976 -0.2108  0.0710
15622TIP3    H168357   3.678   2.759   1.242  0.8365  0.3158  0.2121
15622TIP3    H268358   3.633   2.789   1.101  0.3788  0.1632  0.3256
15623TIP3   OH268359   2.659   2.875   3.964 -0.0861  0.3550 -0.5023
15623TIP3    H168360   2.608   2.901   4.040 -1.9932 -2.9027 -0.4701
15623TIP3    H268361   2.744   2.850   4.001 -0.6700 -0.2940  0.4636
15624TIP3   OH268362   3.431   3.459  12.927 -0.3703 -0.0715 -0.1186
15624TIP3    H168363   3.405   3.498  12.844 -0.1902 -0.7327 -0.4994
15624TIP3    H268364   3.486   3.385  12.902  0.0426 -0.0206  0.6069
15625TIP3   OH268365   1.673   0.431   4.938 -0.3957 -0.2790 -0.1179
15625TIP3    H168366   1.757   0.448   4.979 -0.3539 -2.4382  0.8366
15625TIP3    H268367   1.690   0.357   4.879 -1.6191 -0.8245  0.1758
15626TIP3   OH268368   0.717   6.131   3.742  0.6613 -0.9651 -0.1390
15626TIP3    H168369   0.757   6.093   3.820 -0.7879 -0.7914  0.7274
15626TIP3    H268370   0.646   6.070   3.720 -0.3624  0.1468  0.0288
15627TIP3   OH268371   0.960   0.787  13.625 -0.0856 -0.3800 -0.3641
15627TIP3    H168372   0.953   0.864  13.682 -0.3795  0.0468 -0.9686
15627TIP3    H268373   0.947   0.713  13.683 -1.3791  0.0870 -0.0346
15628TIP3   OH268374   3.281   0.484  12.663  0.3865  0.2863  0.2829
15628TIP3    H168375   3.259   0.396  12.692  1.6294 -0.0698  0.2316
15628TIP3    H268376   3.204   0.536  12.683 -0.6206 -0.9316 -0.2628
15629TIP3   OH268377   4.219   6.121   3.323 -0.2506  0.5683  0.2606
15629TIP3    H168378   4.200   6.197   3.268  1.6086  1.2755  0.4933
15629TIP3    H268379   4.222   6.157   3.412 -1.7634 -0.2795  0.6844
15630TIP3   OH268380   2.212   6.747  12.662  0.2765 -0.4630  0.0470
15630TIP3    H168381   2.211   6.779  12.572 -0.5848  1.8069  0.7965
15630TIP3    H268382   2.303   6.760  12.691  0.7431 -1.8898 -0.6691
15631TIP3   OH268383   4.350   2.608   1.611 -0.1094  0.1412  0.4670
15631TIP3    H168384   4.284   2.587   1.677 -0.6430 -0.4908 -0.2502
15631TIP3    H268385   4.310   2.676   1.558  0.1028  0.2610  0.4584
15632TIP3   OH268386   0.561   1.644   3.434  0.1181  0.7275 -0.0884
15632TIP3    H168387   0.482   1.599   3.404  0.8378 -0.9800  0.4213
15632TIP3    H268388   0.540   1.674   3.522  0.2854 -0.4742  0.3806
15633TIP3   OH268389   0.294   1.649   0.053 -0.1394  0.8966  0.3704
15633TIP3    H168390   0.214   1.670   0.101 -0.5970 -1.5294  0.8067
15633TIP3    H268391   0.282   1.692  -0.032 -2.9710 -1.0766 -0.3912
15634TIP3   OH268392   2.538   3.136  15.827 -0.1103  0.1003  0.2172
15634TIP3    H168393   2.584   3.054  15.843  0.7899  0.7148  0.8708
15634TIP3    H268394   2.446   3.110  15.815  0.2087 -1.0249  0.0781
15635TIP3   OH268395   1.947   2.583   0.324  0.5050 -0.1000  0.2284
15635TIP3    H168396   1.934   2.506   0.380  1.1288 -0.2285  0.1968
15635TIP3    H268397   2.021   2.629   0.362  1.0293 -0.2640 -0.5705
15636TIP3   OH268398   4.385   3.495   1.803  0.0970  0.1609 -0.3926
15636TIP3    H168399   4.399   3.406   1.835 -0.6077  0.1525 -0.0773
15636TIP3    H268400   4.299   3.520   1.839  0.7063  1.3172  0.3485
15637TIP3   OH268401   5.339   5.976   0.289  0.6779  0.0493  0.6577
15637TIP3    H168402   5.415   5.934   0.248  0.0664 -1.8946  1.3856
15637TIP3    H268403   5.377   6.047   0.342  2.1493 -1.4645  1.7671
15638TIP3   OH268404   5.586   2.482   0.384 -0.5865  0.1066  0.3964
15638TIP3    H168405   5.566   2.558   0.329  1.3380 -1.2447 -2.4421
15638TIP3    H268406   5.505   2.432   0.387 -1.3968  1.4014  0.8770
15639TIP3   OH268407   5.641   4.118  13.204 -0.2490 -0.1575 -0.0302
15639TIP3    H168408   5.720   4.088  13.248 -0.5556 -1.0402 -0.0778
15639TIP3    H268409   5.605   4.185  13.262 -0.3453 -0.9152  0.7975
15640TIP3   OH268410   0.134   1.294  14.793 -0.2637 -0.4832  0.5806
15640TIP3    H168411   0.084   1.252  14.723  1.3213 -0.0425 -0.9005
15640TIP3    H268412   0.209   1.235  14.806  0.3987  0.3529  0.6125
15641TIP3   OH268413   3.105   4.819   6.028 -0.0529  0.1985  0.2519
15641TIP3    H168414   3.174   4.820   6.094  0.2491  1.2224 -0.0612
15641TIP3    H268415   3.024   4.827   6.078  0.0651 -0.6708  0.5972
15642TIP3   OH268416   4.634   0.842  13.033  0.3658  0.1879  0.2505
15642TIP3    H168417   4.684   0.815  13.109  1.5288 -0.3779 -0.6844
15642TIP3    H268418   4.575   0.910  13.066 -0.3144 -1.1654  1.9710
15643TIP3   OH268419   0.557   5.706   2.393 -0.0208 -0.2439 -0.3975
15643TIP3    H168420   0.577   5.642   2.461 -1.4368  0.0362  0.3223
15643TIP3    H268421   0.472   5.742   2.418  0.7919  2.0527 -0.6634
15644TIP3   OH268422   5.917   1.129   2.374 -0.3943  0.1424 -0.2999
15644TIP3    H168423   5.828   1.096   2.389 -0.8400  0.3066 -2.2429
15644TIP3    H268424   5.918   1.215   2.416 -1.3441  0.3679 -0.6988
15645TIP3   OH268425   0.594   5.589  11.256 -0.0384  0.7067 -0.6140
15645TIP3    H168426   0.559   5.648  11.322  0.5986  1.7324 -1.1732
15645TIP3    H268427   0.516   5.545  11.221 -0.3395 -0.2199  1.1261
15646TIP3   OH268428   0.587   1.496  14.150  0.2150 -0.0001  0.3355
15646TIP3    H168429   0.617   1.417  14.196 -1.6528 -0.1302  1.4330
15646TIP3    H268430   0.522   1.464  14.087  1.3846  0.4047 -1.1231
15647TIP3   OH268431   4.869   0.533   1.125 -0.0614 -0.0891  0.4642
15647TIP3    H168432   4.817   0.452   1.129  1.7433 -1.3398 -0.3011
15647TIP3    H268433   4.833   0.580   1.049  0.6957 -1.5325 -0.8283
15648TIP3   OH268434   4.216   5.462   3.387 -0.0387  0.3727  0.4037
15648TIP3    H168435   4.185   5.552   3.374 -0.0583  0.2462 -0.5205
15648TIP3    H268436   4.300   5.459   3.340 -0.7912 -0.5134 -0.9389
15649TIP3   OH268437   0.616   3.709   6.661  0.4062  0.0850  0.4010
15649TIP3    H168438   0.622   3.800   6.632  0.6190 -0.8146 -2.7775
15649TIP3    H268439   0.707   3.682   6.673  0.4511 -0.1866 -0.4754
15650TIP3   OH268440   2.417   5.937   5.464  0.2014 -0.1881 -0.1715
15650TIP3    H168441   2.390   5.847   5.450 -1.1972  0.2590 -0.5184
15650TIP3    H268442   2.434   5.971   5.376  1.9428 -0.4297  0.0250
15651TIP3   OH268443   5.713   6.734   1.979 -0.1212 -0.0943 -0.1263
15651TIP3    H168444   5.753   6.739   1.892 -1.3352  0.8342 -0.6528
15651TIP3    H268445   5.740   6.648   2.012  0.8770 -0.2070 -1.1552
15652TIP3   OH268446   3.097   1.179  17.230  0.3991 -0.2394 -0.2577
15652TIP3    H168447   3.013   1.158  17.189  0.9556 -0.5810 -1.2480
15652TIP3    H268448   3.124   1.261  17.188  1.0094 -0.6297 -0.6432
15653TIP3   OH268449   5.030   0.541  14.808 -0.7465 -0.2880  0.6237
15653TIP3    H168450   5.073   0.481  14.747 -0.3652  1.2402 -0.6827
15653TIP3    H268451   5.066   0.518  14.894 -0.2947 -1.6217  0.0976
15654TIP3   OH268452   3.541   4.182  14.776 -0.0433  0.2335  0.2468
15654TIP3    H168453   3.565   4.242  14.848  0.3982 -0.7245  0.9158
15654TIP3    H268454   3.591   4.103  14.793 -0.1010 -0.0948 -1.0186
15655TIP3   OH268455   0.052   4.233   3.337  0.0358 -0.3622  0.7042
15655TIP3    H168456  -0.020   4.286   3.371 -0.5488  0.5176 -1.6871
15655TIP3    H268457   0.131   4.283   3.359 -0.5156  1.7231 -1.6349
15656TIP3   OH268458   3.292   5.348  17.113 -0.1340 -0.3240 -0.2687
15656TIP3    H168459   3.304   5.320  17.204 -0.1567  0.1176 -0.1302
15656TIP3    H268460   3.345   5.286  17.062 -0.7882 -1.0962 -0.0348
15657TIP3   OH268461   4.397   3.262   6.609 -0.2945  0.1678  0.2448
15657TIP3    H168462   4.355   3.180   6.636  0.4448 -0.7573 -1.2934
15657TIP3    H268463   4.487   3.255   6.641  0.0862 -0.1395 -0.8705
15658TIP3   OH268464   5.932   0.811  16.228  0.4196  0.4706 -0.4658
15658TIP3    H168465   5.874   0.772  16.293 -0.7071 -0.4409 -1.9263
15658TIP3    H268466   5.975   0.736  16.185 -0.5260  0.8508 -2.1955
15659TIP3   OH268467   1.284   5.125  16.649 -0.3040 -0.5248  0.3246
15659TIP3    H168468   1.212   5.186  16.630  1.4135  1.4575 -0.1174
15659TIP3    H268469   1.297   5.133  16.743 -0.8465 -1.1590  0.4676
15660TIP3   OH268470   3.017   0.663  13.833  0.2198 -0.1471  0.5850
15660TIP3    H168471   2.926   0.635  13.843 -0.2816  0.7062 -1.1536
15660TIP3    H268472   3.019   0.752  13.869 -0.2734  0.7903 -1.5587
15661TIP3   OH268473   6.204   4.352   4.814 -0.4092 -0.5296  0.3231
15661TIP3    H168474   6.172   4.371   4.902 -1.7477 -1.1626 -0.0035
15661TIP3    H268475   6.126   4.328   4.765  0.2780  0.0832 -1.1257
15662TIP3   OH268476   1.908   2.477  14.162  0.1421  0.0535  0.1545
15662TIP3    H168477   2.001   2.456  14.171 -0.1972 -0.9847  1.6778
15662TIP3    H268478   1.885   2.518  14.245 -0.7997  0.2049 -0.1718
15663TIP3   OH268479   1.077   4.045  11.822  0.4968  0.3749 -0.1526
15663TIP3    H168480   1.158   4.070  11.866 -0.4158  0.8780  1.2932
15663TIP3    H268481   1.018   4.120  11.834  0.0592  0.3830 -1.9133
15664TIP3   OH268482   3.088   6.037   0.464 -0.1790 -0.2138  0.6236
15664TIP3    H168483   3.039   6.118   0.452 -1.2995 -0.9252  0.2189
15664TIP3    H268484   3.023   5.968   0.451  1.4631 -1.3315 -2.8913
15665TIP3   OH268485   1.165   3.385   0.897  0.2120 -0.1765  0.5832
15665TIP3    H168486   1.218   3.361   0.973  0.6975 -0.7425  0.0726
15665TIP3    H268487   1.222   3.444   0.847  0.1252 -0.2966  0.3446
15666TIP3   OH268488   0.895   3.819  14.835  0.5168  0.3820 -0.2066
15666TIP3    H168489   0.840   3.777  14.901 -2.4622  1.9245 -1.5087
15666TIP3    H268490   0.884   3.765  14.757  1.5156  0.2953 -0.2981
15667TIP3   OH268491   0.329   5.190   4.149  0.0409  0.1168 -0.0237
15667TIP3    H168492   0.291   5.201   4.062 -0.1859  2.1719  0.2825
15667TIP3    H268493   0.257   5.156   4.203 -0.7525  1.7992  0.0279
15668TIP3   OH268494   5.427   1.053   1.867 -0.0359  0.2099 -0.5116
15668TIP3    H168495   5.405   0.996   1.941 -2.2543  0.7957 -0.6516
15668TIP3    H268496   5.505   1.013   1.829  0.6946 -0.5796  1.6252
15669TIP3   OH268497   6.736   2.774  10.991 -0.0740  0.2307  0.9397
15669TIP3    H168498   6.776   2.706  10.937 -0.4445  0.0704  0.8660
15669TIP3    H268499   6.716   2.844  10.928 -3.5099 -1.2237  0.1953
15670TIP3   OH268500   0.585   2.364   0.749 -0.6187  0.0946 -0.2825
15670TIP3    H168501   0.591   2.269   0.749  0.1225  0.0811 -2.4190
15670TIP3    H268502   0.496   2.383   0.720 -0.8312  0.0774  0.3363
15671TIP3   OH268503   2.575   6.702  14.328  0.2438  0.1615 -0.3456
15671TIP3    H168504   2.630   6.659  14.262  0.7301  0.5744 -0.2214
15671TIP3    H268505   2.627   6.699  14.408 -0.2615 -0.1599 -0.0233
15672TIP3   OH268506   2.534   0.064   3.564  0.5049 -0.1371  0.5848
15672TIP3    H168507   2.549   0.123   3.639  0.2410 -0.0359  0.5589
15672TIP3    H268508   2.609   0.005   3.565  0.2092 -0.5084  1.2815
15673TIP3   OH268509   3.526   2.443   3.051 -0.1408  0.3810 -0.0443
15673TIP3    H168510   3.503   2.522   3.100  0.4322  0.6183 -0.1500
15673TIP3    H268511   3.494   2.371   3.104 -0.3917  0.6750  0.2047
15674TIP3   OH268512   0.357   5.447  14.209  1.0034  0.4112 -0.0538
15674TIP3    H168513   0.374   5.420  14.299 -0.4631  1.3700  0.5429
15674TIP3    H268514   0.365   5.542  14.210 -1.4411  0.6685 -0.3416
15675TIP3   OH268515   5.697   6.767  11.012 -0.0455 -0.0161  0.1419
15675TIP3    H168516   5.677   6.831  11.080 -0.5330 -1.7888  1.7640
15675TIP3    H268517   5.635   6.695  11.028  1.8101 -1.7949 -0.2745
15676TIP3   OH268518   3.461   6.697  10.788  0.4371 -0.0400 -0.1293
15676TIP3    H168519   3.391   6.705  10.853  0.9986 -1.0676  0.6185
15676TIP3    H268520   3.445   6.770  10.728 -1.1383 -0.1138  0.1466
15677TIP3   OH268521   4.617   6.736  10.797  0.4205  0.2052  0.0113
15677TIP3    H168522   4.636   6.814  10.744  1.3323  0.6806  0.9986
15677TIP3    H268523   4.617   6.767  10.887  1.8664 -1.1028  0.5081
15678TIP3   OH268524   5.618   4.289   5.810 -0.3507  0.4108 -0.2297
15678TIP3    H168525   5.696   4.233   5.802  0.5350  1.6238 -0.2756
15678TIP3    H268526   5.634   4.341   5.888 -0.4090  1.7315 -1.0711
15679TIP3   OH268527   2.065   2.654   6.032  0.2623  0.3047 -0.1765
15679TIP3    H168528   1.998   2.720   6.014 -0.0695  0.0580  0.1389
15679TIP3    H268529   2.039   2.578   5.980 -0.9484 -0.5676  1.6092
15680TIP3   OH268530   3.044   0.257  12.949 -0.0563  0.0462 -0.1938
15680TIP3    H168531   3.043   0.352  12.944 -0.0171  0.0904  0.5434
15680TIP3    H268532   3.131   0.236  12.984  0.6309 -0.3583 -2.0124
15681TIP3   OH268533   5.503   2.487  14.244 -0.2772  0.3560  0.2635
15681TIP3    H168534   5.469   2.435  14.171  0.4528 -0.1492  0.2722
15681TIP3    H268535   5.526   2.571  14.204  0.3317  0.0043 -0.1392
15682TIP3   OH268536   5.433   6.565  14.530  0.2568  0.1353 -0.1322
15682TIP3    H168537   5.479   6.642  14.495 -3.1022  1.3249 -2.4445
15682TIP3    H268538   5.477   6.491  14.488  2.3451  0.8659  0.6423
15683TIP3   OH268539   4.133   5.926   1.928 -0.5326  0.8134 -0.4607
15683TIP3    H168540   4.119   5.967   1.842 -0.8300 -0.5358 -1.0752
15683TIP3    H268541   4.058   5.867   1.939  0.3280 -0.2156  0.0125
15684TIP3   OH268542   5.877   3.996   4.284 -0.2902  0.6216  0.3194
15684TIP3    H168543   5.900   3.955   4.201 -1.0372  0.0809  0.3702
15684TIP3    H268544   5.937   3.957   4.347  1.5175  2.3403 -0.2167
15685TIP3   OH268545   6.441   1.217   0.860  0.1300 -0.4631 -0.3637
15685TIP3    H168546   6.487   1.270   0.925  0.0654 -0.3601 -0.4026
15685TIP3    H268547   6.398   1.149   0.912  0.5561 -0.7274 -0.3548
15686TIP3   OH268548   0.438   5.965  16.722  0.3286  0.3298 -0.0283
15686TIP3    H168549   0.428   5.904  16.796  0.1142  0.3314 -0.0578
15686TIP3    H268550   0.504   5.924  16.666  2.5862  1.6129  1.5191
15687TIP3   OH268551   0.484   6.027   3.981  0.4921 -0.1925 -0.1441
15687TIP3    H168552   0.574   6.055   3.967  0.0258  0.2237 -2.8806
15687TIP3    H268553   0.432   6.108   3.975 -0.3321 -0.8130 -2.1618
15688TIP3   OH268554   6.020   0.377  14.505 -0.5075  0.5114  0.0892
15688TIP3    H168555   6.088   0.444  14.511 -0.3003  0.3008  0.0996
15688TIP3    H268556   6.010   0.361  14.411 -1.4813  1.4937  0.0064
15689TIP3   OH268557   5.011   3.632   0.594 -0.2126 -0.1839  0.2123
15689TIP3    H168558   5.071   3.629   0.669  0.9157 -2.1187 -0.6792
15689TIP3    H268559   4.926   3.610   0.631 -0.3783  2.2668  1.4481
15690TIP3   OH268560   2.554   5.046  15.707  0.2046  0.4351 -0.6367
15690TIP3    H168561   2.569   4.973  15.767  1.8740  0.2845 -1.1997
15690TIP3    H268562   2.595   5.019  15.625  2.1647  2.5633 -0.4475
15691TIP3   OH268563   0.007   1.185  17.187  0.4326  0.1502 -0.5493
15691TIP3    H168564  -0.057   1.163  17.255 -0.2429 -1.5281 -1.6644
15691TIP3    H268565   0.039   1.101  17.156  1.2628  0.8995 -1.8122
15692TIP3   OH268566   6.354   5.648  14.306 -0.6091 -0.4317  0.1279
15692TIP3    H168567   6.345   5.601  14.389 -1.7278  0.6833  0.6712
15692TIP3    H268568   6.265   5.651  14.270 -0.1236 -1.0151 -1.2020
15693TIP3   OH268569   2.438   0.817   0.722 -0.4167 -0.9599 -0.6994
15693TIP3    H168570   2.525   0.781   0.704 -0.4857 -0.6270 -1.7875
15693TIP3    H268571   2.452   0.910   0.736 -0.6223 -0.8639 -1.1148
15694TIP3   OH268572   3.884   2.895  16.083 -0.0203 -0.6147  0.2548
15694TIP3    H168573   3.856   2.946  16.007  0.4554 -0.7592 -0.0212
15694TIP3    H268574   3.980   2.899  16.080  0.0081 -0.9866  0.5983
15695TIP3   OH268575   0.688   1.613   2.973  0.2416  0.1901  0.2611
15695TIP3    H168576   0.740   1.691   2.955  2.3213 -0.7996  1.5250
15695TIP3    H268577   0.748   1.540   2.955 -0.8276 -1.0308  1.4000
15696TIP3   OH268578   0.851   3.282   4.510 -0.4621 -0.1777 -0.9437
15696TIP3    H168579   0.936   3.327   4.509 -1.8927  2.7968 -1.9163
15696TIP3    H268580   0.849   3.231   4.429  0.2159  0.0954 -1.1360
15697TIP3   OH268581   6.220   3.189  11.645  0.4960 -0.2697  0.1114
15697TIP3    H168582   6.288   3.227  11.590  1.2252 -1.5199  0.1214
15697TIP3    H268583   6.162   3.143  11.584  1.2328 -1.5482  0.3218
15698TIP3   OH268584   0.323   2.146  16.509 -0.1320  0.3727 -0.6310
15698TIP3    H168585   0.413   2.177  16.500 -0.3277  0.8642 -0.9574
15698TIP3    H268586   0.331   2.052  16.524  0.3816  0.1700 -2.0531
15699TIP3   OH268587   4.314   0.603  16.663 -0.2932  0.4163 -0.6311
15699TIP3    H168588   4.403   0.578  16.637  0.2637  0.5484  1.0387
15699TIP3    H268589   4.274   0.635  16.582  1.7864  2.0927 -1.0970
15700TIP3   OH268590   0.110   5.456   1.027  0.1306 -0.3031  0.4506
15700TIP3    H168591   0.202   5.448   1.053  0.5594 -0.3221 -0.9604
15700TIP3    H268592   0.100   5.549   1.005 -1.0280  0.3836  3.3902
15701TIP3   OH268593   5.850   4.761  12.439  0.1615  0.6072  0.5410
15701TIP3    H168594   5.933   4.715  12.446 -0.0979  0.1050  0.3328
15701TIP3    H268595   5.857   4.813  12.359  0.1216  0.2543  0.3085
15702TIP3   OH268596   0.447   2.138  14.358 -0.0306 -0.1870  0.2326
15702TIP3    H168597   0.520   2.152  14.298 -1.0431 -0.1471 -1.0285
15702TIP3    H268598   0.481   2.162  14.444  2.0410 -2.0050  0.0104
15703TIP3   OH268599   6.069   0.305  17.210 -0.7117  0.1835 -0.3996
15703TIP3    H168600   6.092   0.394  17.237  0.0904  0.3608 -1.5796
15703TIP3    H268601   5.994   0.316  17.153 -0.3330  0.1601 -0.9089
15704TIP3   OH268602   6.205   2.298  11.260  0.3305 -0.4150  0.3734
15704TIP3    H168603   6.119   2.276  11.222  0.5695 -0.8603  0.0813
15704TIP3    H268604   6.260   2.317  11.185  0.4052  0.1958  0.5796
15705TIP3   OH268605   1.182   2.258  15.412 -0.3458 -0.4614 -0.0977
15705TIP3    H168606   1.145   2.285  15.328  0.9930 -1.2341 -0.9681
15705TIP3    H268607   1.107   2.223  15.461 -0.8460 -1.7761 -1.7211
15706TIP3   OH268608   5.728   0.740  14.897 -0.0311  0.3295 -0.0807
15706TIP3    H168609   5.674   0.713  14.972 -0.2600 -0.8121 -0.6373
15706TIP3    H268610   5.725   0.666  14.837 -2.0366  2.2089 -2.4737
15707TIP3   OH268611   3.618   3.279   3.534 -0.5084  0.3181  0.3922
15707TIP3    H168612   3.586   3.254   3.621 -0.2673 -2.5047 -0.2226
15707TIP3    H268613   3.555   3.344   3.502 -0.2478  1.8940  2.8647
15708TIP3   OH268614   0.070   0.425  13.947  0.2132  0.1585 -0.1320
15708TIP3    H168615   0.138   0.431  14.013  0.9507 -0.4570 -0.8233
15708TIP3    H268616  -0.002   0.478  13.982  1.4555  1.7919  0.0893
15709TIP3   OH268617   5.481   0.603  15.455  0.1163  0.1032  0.2503
15709TIP3    H168618   5.392   0.635  15.438  0.2744  0.0908 -0.6579
15709TIP3    H268619   5.477   0.565  15.543 -1.5945 -2.8197 -0.9757
15710TIP3   OH268620   1.793   2.971   5.706  0.2709 -0.3118  0.8268
15710TIP3    H168621   1.749   2.958   5.790 -0.1808 -1.6895  0.4001
15710TIP3    H268622   1.886   2.971   5.728  0.1348  0.1735  1.4288
15711TIP3   OH268623   0.237   5.402   3.867  0.4313  0.1374  0.4142
15711TIP3    H168624   0.256   5.309   3.851  2.7291  0.7272 -0.8045
15711TIP3    H268625   0.183   5.429   3.792  0.2948 -0.0747  0.4361
15712TIP3   OH268626   3.611   0.666  14.206 -1.0595 -0.2341  0.6809
15712TIP3    H168627   3.645   0.579  14.186 -2.2664 -0.4910 -0.4169
15712TIP3    H268628   3.550   0.653  14.278 -0.7523 -0.1811  0.9534
15713TIP3   OH268629   5.169   0.410  16.563 -0.0415  0.1911  0.2285
15713TIP3    H168630   5.200   0.500  16.568  1.3078 -0.2695  0.3527
15713TIP3    H268631   5.082   0.418  16.523  0.3379  1.4858 -0.4155
15714TIP3   OH268632   3.986   0.306   2.933  0.3113 -0.0481 -0.3395
15714TIP3    H168633   4.033   0.340   2.856  0.6509 -0.0716 -0.1459
15714TIP3    H268634   3.990   0.377   2.997 -2.3699  1.0603 -1.2851
15715TIP3   OH268635   6.554   1.049   5.084 -0.2753  0.2758 -0.1359
15715TIP3    H168636   6.592   1.136   5.091 -0.9587  0.4757  1.5579
15715TIP3    H268637   6.581   1.005   5.165 -2.8910  0.1685  0.7879
15716TIP3   OH268638   2.103   5.405   0.627  0.0924  0.0550  0.1073
15716TIP3    H168639   2.012   5.381   0.607  0.6248 -1.7824 -0.2760
15716TIP3    H268640   2.136   5.332   0.679  1.1786  0.9926  0.7551
15717TIP3   OH268641   5.066   5.619   0.095 -0.6070 -0.1065  0.0817
15717TIP3    H168642   5.074   5.714   0.097  1.0993 -0.1957  3.1320
15717TIP3    H268643   5.110   5.592   0.015  0.7964  1.5752  0.2490
15718TIP3   OH268644   2.602   2.303  16.537 -0.4257 -0.2812  0.0781
15718TIP3    H168645   2.539   2.373  16.553 -0.7674 -0.7663  0.8769
15718TIP3    H268646   2.624   2.269  16.624 -0.5099 -1.3878 -0.3147
15719TIP3   OH268647   1.596   3.652   5.066 -0.4624  0.1580 -0.6300
15719TIP3    H168648   1.672   3.683   5.017  2.2204 -2.9022  1.2092
15719TIP3    H268649   1.600   3.698   5.150 -0.0935 -0.6584 -0.1938
15720TIP3   OH268650   0.974   6.648   5.354 -0.2241  0.4244 -0.0777
15720TIP3    H168651   1.025   6.666   5.433 -1.2387  0.6028  0.5521
15720TIP3    H268652   1.032   6.673   5.282  0.3598  1.1669  0.6341
15721TIP3   OH268653   1.083   4.657  12.681  0.3894  0.1670 -0.0958
15721TIP3    H168654   1.050   4.659  12.771  1.0085  0.8635  0.1197
15721TIP3    H268655   1.038   4.582  12.641  2.2854 -2.0016  1.6222
15722TIP3   OH268656   5.148   6.604   4.462 -0.3228  0.2488 -0.2760
15722TIP3    H168657   5.133   6.697   4.477  1.0378  0.1655  2.0577
15722TIP3    H268658   5.100   6.561   4.533  1.5385 -0.6193  0.5046
15723TIP3   OH268659   2.464   4.720   3.095 -0.0811 -0.5602 -0.0515
15723TIP3    H168660   2.459   4.695   3.187 -0.8302 -2.3811 -0.5601
15723TIP3    H268661   2.374   4.741   3.070  0.4362  2.5987  0.2567
15724TIP3   OH268662   5.587   2.617   5.067 -0.5652  0.0212 -0.7702
15724TIP3    H168663   5.510   2.643   5.118 -0.8000 -0.3558 -0.9317
15724TIP3    H268664   5.660   2.662   5.110 -0.7068 -0.5891  0.1286
15725TIP3   OH268665   6.526   0.278   3.759  0.6727  0.8100  0.1406
15725TIP3    H168666   6.512   0.228   3.840 -1.7663 -1.3207 -1.4095
15725TIP3    H268667   6.453   0.340   3.757 -0.3741 -0.3942 -1.1887
15726TIP3   OH268668   5.892   0.924  15.314  0.1942  1.4461 -0.0537
15726TIP3    H168669   5.827   0.963  15.256 -0.2034 -1.1004 -1.4850
15726TIP3    H268670   5.909   0.837  15.276  0.7180  0.0647  3.0236
15727TIP3   OH268671   1.371   3.365   4.508 -0.0822 -0.0503 -0.0808
15727TIP3    H168672   1.384   3.459   4.523 -3.4979  0.6353 -0.5341
15727TIP3    H268673   1.452   3.324   4.539  1.9868  3.0884 -0.9090
15728TIP3   OH268674   4.840   2.237  15.487  0.1019  1.1766  0.1390
15728TIP3    H168675   4.917   2.210  15.437  0.2148  2.0240 -0.1505
15728TIP3    H268676   4.819   2.160  15.540  1.7724  1.2872  1.0193
15729TIP3   OH268677   2.554   4.225  12.572  0.3107  0.3192 -0.1558
15729TIP3    H168678   2.603   4.147  12.548  1.1416  0.3614  1.2576
15729TIP3    H268679   2.614   4.275  12.628 -0.7656  1.1750  0.2794
15730TIP3   OH268680   2.533   2.925   5.592 -0.7831 -0.2813  0.7234
15730TIP3    H168681   2.602   2.978   5.632 -2.3593  1.9678  0.6300
15730TIP3    H268682   2.578   2.877   5.522  0.6541  1.3841  0.4291
15731TIP3   OH268683   6.205   1.238  13.961  0.1384 -0.5078 -0.2379
15731TIP3    H168684   6.189   1.249  13.867 -0.1698  0.9363 -0.0377
15731TIP3    H268685   6.299   1.253  13.971 -0.0012  0.4389 -0.1986
15732TIP3   OH268686   5.355   2.052  15.740  0.2698  0.5022  0.2316
15732TIP3    H168687   5.409   2.113  15.790  1.1033 -0.4312  0.5027
15732TIP3    H268688   5.397   1.967  15.752 -0.4933 -0.0271 -0.6713
15733TIP3   OH268689   5.694   5.456   3.723 -0.1418  0.4499 -0.7347
15733TIP3    H168690   5.676   5.447   3.817 -1.2810 -1.5422 -1.0820
15733TIP3    H268691   5.754   5.530   3.717  0.8745 -0.0882  1.6765
15734TIP3   OH268692   1.079   5.385   0.450 -0.1292  0.2881 -0.3775
15734TIP3    H168693   1.139   5.433   0.393  1.0813 -3.4252 -2.6465
15734TIP3    H268694   1.011   5.352   0.392  1.5392 -4.2751 -0.1425
15735TIP3   OH268695   2.178   2.317  14.734  0.2522  0.2380 -0.1789
15735TIP3    H168696   2.142   2.253  14.673  0.6210 -0.7974  0.6645
15735TIP3    H268697   2.115   2.389  14.733 -0.6914 -0.5712 -0.3986
15736TIP3   OH268698   6.217   6.471  11.331 -0.4240  0.4400 -0.0556
15736TIP3    H168699   6.293   6.419  11.305 -1.6620 -0.6318 -1.7441
15736TIP3    H268700   6.200   6.445  11.422 -0.7234 -1.8333 -0.7035
15737TIP3   OH268701   0.560   0.463   0.508  0.7436  0.6659  0.1969
15737TIP3    H168702   0.540   0.517   0.585 -0.5564  0.6872 -0.1278
15737TIP3    H268703   0.474   0.446   0.469  1.4521  1.8022 -2.0116
15738TIP3   OH268704   5.356   5.769   5.394 -0.0491  0.2714  0.8554
15738TIP3    H168705   5.318   5.711   5.460  0.9891 -1.4194  0.0373
15738TIP3    H268706   5.399   5.710   5.332 -0.4194  1.8314 -0.9840
15739TIP3   OH268707   2.729   3.168   4.630 -0.3846 -0.3211  0.3820
15739TIP3    H168708   2.754   3.136   4.543 -2.4969 -2.4689  0.4692
15739TIP3    H268709   2.667   3.239   4.612 -1.4041 -1.2616  0.0816
15740TIP3   OH268710   1.566   4.062  13.243 -0.4421  0.2504  0.4406
15740TIP3    H168711   1.558   3.972  13.274  0.3085  0.7409  2.1591
15740TIP3    H268712   1.609   4.109  13.314 -2.5082  2.4063  0.4121
15741TIP3   OH268713   4.230   2.726   5.299  0.1328  0.3403 -0.4393
15741TIP3    H168714   4.174   2.794   5.335  0.0405  0.4241 -0.7430
15741TIP3    H268715   4.300   2.773   5.253  1.7032  0.3079  1.7269
15742TIP3   OH268716   5.767   5.306   0.665 -0.4530 -0.3560 -0.1204
15742TIP3    H168717   5.808   5.355   0.737 -1.3177  0.6172 -0.2635
15742TIP3    H268718   5.813   5.335   0.587  1.0122 -1.9870  0.0741
15743TIP3   OH268719   0.206   1.032   0.335 -0.2917  0.1419  0.0732
15743TIP3    H168720   0.205   0.936   0.338 -1.4469  0.0929 -1.1690
15743TIP3    H268721   0.269   1.052   0.265 -2.5202  0.1392 -2.0736
15744TIP3   OH268722   1.589   5.143   3.193  0.2500 -0.6223  0.0185
15744TIP3    H168723   1.537   5.084   3.139  0.4682 -0.4880 -0.3437
15744TIP3    H268724   1.680   5.120   3.173  0.3776  1.0104 -1.4712
15745TIP3   OH268725   4.589   3.350  12.920 -0.4944 -0.1481  0.2821
15745TIP3    H168726   4.570   3.344  12.826  0.6206 -0.1111  0.0453
15745TIP3    H268727   4.606   3.259  12.946 -3.7017 -0.6365  1.1270
15746TIP3   OH268728   1.047   4.224   1.382  0.1208 -0.2165 -0.0763
15746TIP3    H168729   0.972   4.266   1.426  0.0169  0.0478 -0.5008
15746TIP3    H268730   1.101   4.191   1.454 -1.7380 -2.8484  0.2333
15747TIP3   OH268731   1.049   2.501  12.256  0.0570  0.3403  0.4121
15747TIP3    H168732   0.986   2.534  12.192  1.7342 -0.3834 -1.7336
15747TIP3    H268733   1.084   2.421  12.216  2.3127  0.7168  1.4775
15748TIP3   OH268734   0.266   3.012   3.979  0.2100  0.5268  0.1392
15748TIP3    H168735   0.358   2.991   3.994 -0.1000 -0.8300  0.3231
15748TIP3    H268736   0.218   2.942   4.025 -0.8754  0.6120 -0.8246
15749TIP3   OH268737   5.793   1.220  13.973 -0.4721  0.2353 -0.5860
15749TIP3    H168738   5.811   1.132  13.940  0.5225  0.0400  0.4072
15749TIP3    H268739   5.772   1.207  14.065  1.9911  1.2002  0.2069
15750TIP3   OH268740   5.313   3.276   3.665  0.1789  0.1313  0.3843
15750TIP3    H168741   5.222   3.305   3.672 -0.2625 -1.3203  1.0402
15750TIP3    H268742   5.347   3.282   3.755  0.5577  0.1225  0.2421
15751TIP3   OH268743   2.572   0.120   5.193  0.4301 -0.1266  0.4041
15751TIP3    H168744   2.480   0.108   5.169  0.0347  1.1418  1.1780
15751TIP3    H268745   2.612   0.159   5.115 -0.6045  2.9538  1.2730
15752TIP3   OH268746   5.838   2.379   0.278 -0.7069  0.0080  0.0484
15752TIP3    H168747   5.889   2.431   0.339  0.7016  0.2238 -1.2489
15752TIP3    H268748   5.747   2.406   0.292 -0.2075  1.3887  0.7292
15753TIP3   OH268749   1.932   6.076   2.036 -0.3414  0.1269 -0.0702
15753TIP3    H168750   1.906   6.150   1.982 -1.0972 -0.7585 -0.9565
15753TIP3    H268751   1.857   6.059   2.093 -0.1890  0.0179  0.1010
15754TIP3   OH268752   4.121   3.110   1.146  0.3397  0.0112 -0.3257
15754TIP3    H168753   4.191   3.168   1.174 -0.7855  1.2265  0.1061
15754TIP3    H268754   4.145   3.084   1.057  0.5434  1.7275 -0.8071
15755TIP3   OH268755   6.285   6.637   2.929  0.2421  0.0007  0.0375
15755TIP3    H168756   6.334   6.668   2.853 -0.2073 -0.5101 -0.4766
15755TIP3    H268757   6.303   6.700   2.998 -0.3847  1.2109 -0.8719
15756TIP3   OH268758   0.824   2.994  17.285 -0.2851  0.1176  0.0738
15756TIP3    H168759   0.870   3.075  17.310 -1.1606  0.8987 -0.7614
15756TIP3    H268760   0.830   2.992  17.189 -1.3607 -0.1355  0.0019
15757TIP3   OH268761   2.918   5.728  16.572  0.3803 -0.9798 -0.4741
15757TIP3    H168762   2.882   5.657  16.625  0.6923 -0.4965  0.3932
15757TIP3    H268763   2.853   5.798  16.577  0.2710 -1.0367 -0.9860
15758TIP3   OH268764   5.821   3.379  16.445 -0.3658 -0.2679 -0.6731
15758TIP3    H168765   5.860   3.293  16.455 -0.7918 -0.2486  1.6172
15758TIP3    H268766   5.769   3.373  16.365  0.4788 -1.7543 -1.1497
15759TIP3   OH268767   0.982   5.159  12.989 -0.1730 -0.4593 -0.0291
15759TIP3    H168768   0.978   5.254  12.977 -0.7121 -0.3024  1.3374
15759TIP3    H268769   0.903   5.126  12.946  0.6653 -0.4465 -1.6694
15760TIP3   OH268770   2.721   4.588   0.076 -0.0888 -0.0234 -0.4573
15760TIP3    H168771   2.801   4.637   0.057 -1.0364  1.7725  0.0352
15760TIP3    H268772   2.716   4.523   0.005  1.7782 -0.2011 -0.4970
15761TIP3   OH268773   1.368   3.325  16.277 -0.3139  0.7668 -0.0323
15761TIP3    H168774   1.389   3.243  16.321 -1.1202 -0.3628 -1.6685
15761TIP3    H268775   1.300   3.364  16.331 -2.1998 -1.2024 -0.8446
15762TIP3   OH268776   4.733   3.115  15.392  0.2769  0.3784  0.3482
15762TIP3    H168777   4.657   3.170  15.371  0.1468  1.2111  2.7134
15762TIP3    H268778   4.765   3.084  15.307 -2.4443  0.3247 -0.7523
15763TIP3   OH268779   5.998   1.858  16.549  0.4002 -0.4941 -0.0161
15763TIP3    H168780   6.038   1.885  16.466  1.1621 -1.0206  0.1645
15763TIP3    H268781   6.015   1.930  16.609  0.6394 -0.4978 -0.0794
15764TIP3   OH268782   4.349   0.624   2.787  0.0730 -0.0405 -0.1956
15764TIP3    H168783   4.400   0.596   2.864 -2.4773 -1.1873  1.2233
15764TIP3    H268784   4.410   0.618   2.714  1.5026 -3.2419  1.0652
15765TIP3   OH268785   6.150   6.003  12.772 -0.3454  0.1213 -0.6813
15765TIP3    H168786   6.109   6.089  12.766  0.4391  0.6098  0.6302
15765TIP3    H268787   6.242   6.019  12.752  0.2081 -0.0252  1.5646
15766TIP3   OH268788   4.694   1.590   6.210  0.3338 -0.0793  0.3339
15766TIP3    H168789   4.658   1.570   6.296  1.3478 -0.8630  0.5956
15766TIP3    H268790   4.633   1.551   6.148 -0.1604  0.0927  0.7128
15767TIP3   OH268791   0.862   0.732   0.758 -0.4439  0.8407 -0.5122
15767TIP3    H168792   0.814   0.743   0.840  1.0876 -0.7605  0.6855
15767TIP3    H268793   0.953   0.750   0.780 -0.2379  2.5566 -2.4267
15768TIP3   OH268794   4.598   5.162  12.698 -0.0982 -0.3003 -0.5380
15768TIP3    H168795   4.694   5.164  12.700 -0.0478 -1.4467 -0.9007
15768TIP3    H268796   4.571   5.252  12.717  1.0088 -0.3031  1.2031
15769TIP3   OH268797   0.850   4.967   3.386 -0.3758  0.2286 -1.0060
15769TIP3    H168798   0.781   4.997   3.445 -0.3077 -1.3169 -0.0725
15769TIP3    H268799   0.931   4.989   3.432 -0.3220 -0.9079 -0.5093
15770TIP3   OH268800   2.004   4.905   0.383  0.2150 -0.4999 -0.1466
15770TIP3    H168801   2.100   4.902   0.378  0.2179 -1.4374  0.2852
15770TIP3    H268802   1.985   4.925   0.475 -0.0043  1.7373 -0.6192
15771TIP3   OH268803   3.088   5.154  12.126  0.0099  0.5807  0.2881
15771TIP3    H168804   3.053   5.177  12.040 -0.0850  1.8745  0.6431
15771TIP3    H268805   3.183   5.158  12.115  0.0175 -0.3628 -0.0286
15772TIP3   OH268806   0.655   1.029   6.312  0.1819  0.2591  0.1526
15772TIP3    H168807   0.593   0.968   6.272 -1.6087  1.9693  0.1531
15772TIP3    H268808   0.681   1.087   6.241 -1.3129  1.9515  0.9095
15773TIP3   OH268809   5.037   6.208   7.066  0.1588  0.2233 -0.5941
15773TIP3    H168810   5.013   6.300   7.066  1.4350  0.5825 -0.7850
15773TIP3    H268811   4.966   6.164   7.021 -1.3289  0.8629  1.0099
15774TIP3   OH268812   0.412   5.622   5.691  0.1326  0.5058 -0.0534
15774TIP3    H168813   0.470   5.671   5.633  1.7874 -0.1860  0.9171
15774TIP3    H268814   0.365   5.689   5.740  0.2674  1.1016 -0.7284
15775TIP3   OH268815   4.744   4.632   2.395 -0.1220  0.1300 -0.0410
15775TIP3    H168816   4.722   4.648   2.303 -0.0143  1.7815  0.1929
15775TIP3    H268817   4.789   4.547   2.394  1.2164  0.8010 -1.7313
15776TIP3   OH268818   1.536   1.986   0.774 -0.0273  0.0238 -0.2878
15776TIP3    H168819   1.478   1.917   0.741 -0.7622  0.5637 -0.1551
15776TIP3    H268820   1.494   2.068   0.748 -0.0645  0.4477  1.0307
15777TIP3   OH268821   4.999   2.173  11.632 -0.0704  0.9081 -0.2042
15777TIP3    H168822   4.971   2.191  11.542 -2.3165  0.7770  0.4100
15777TIP3    H268823   5.076   2.118  11.623  0.0610  1.3392 -2.0537
15778TIP3   OH268824   1.090   5.486   1.594 -0.6187 -0.6734 -0.4802
15778TIP3    H168825   1.151   5.414   1.609  0.0496  0.0092  0.1117
15778TIP3    H268826   1.020   5.472   1.657  0.1841 -0.0719  0.5862
15779TIP3   OH268827   2.314   6.268   5.571  0.1284  0.1047  0.6747
15779TIP3    H168828   2.364   6.200   5.614  0.2824  0.9285  1.8490
15779TIP3    H268829   2.348   6.350   5.608 -1.7046  0.7038  1.1439
15780TIP3   OH268830   1.907   6.675  11.936  0.5383 -0.6793  1.0239
15780TIP3    H168831   1.988   6.683  11.886 -0.2368  0.2148 -0.1523
15780TIP3    H268832   1.880   6.765  11.951 -0.4746 -0.9720  0.9962
15781TIP3   OH268833   3.409   3.739  13.035  0.0677 -0.6520  0.1378
15781TIP3    H168834   3.417   3.644  13.033  0.7640 -0.6330  1.2589
15781TIP3    H268835   3.462   3.769  12.961  0.9948 -1.0786  0.6214
15782TIP3   OH268836   2.517   2.910   0.567  0.0549 -0.1882 -0.5891
15782TIP3    H168837   2.446   2.955   0.520 -1.4685 -0.3759  1.3991
15782TIP3    H268838   2.472   2.844   0.620  1.8139 -0.8359  0.1685
15783TIP3   OH268839   1.537   0.121   4.997 -0.0183 -0.6610 -0.6967
15783TIP3    H168840   1.455   0.136   5.044 -0.2223  0.2663 -1.3229
15783TIP3    H268841   1.601   0.101   5.065 -0.4485  0.0307 -0.0796
15784TIP3   OH268842   6.436   0.067   4.227 -0.4923 -0.2580  0.1738
15784TIP3    H168843   6.449  -0.013   4.175  1.2447 -0.1802  0.4069
15784TIP3    H268844   6.460   0.041   4.316  1.5817  0.8473 -0.0072
15785TIP3   OH268845   2.072   4.892   2.731  0.1270  0.3833  0.0046
15785TIP3    H168846   2.068   4.926   2.820 -1.8101 -0.8912  0.4742
15785TIP3    H268847   2.067   4.970   2.675 -2.1760  1.0833  1.0436
15786TIP3   OH268848   5.101   2.254  15.385  0.1249  0.1920 -0.4462
15786TIP3    H168849   5.113   2.347  15.405  0.3584  0.1818 -0.5335
15786TIP3    H268850   5.127   2.246  15.293 -0.5568  0.1684 -0.6407
15787TIP3   OH268851   6.763   4.707   0.840  0.3584 -1.2194  0.1797
15787TIP3    H168852   6.802   4.732   0.756  1.1433 -0.4056  0.7801
15787TIP3    H268853   6.689   4.651   0.815 -0.8940  0.8683 -1.1974
15788TIP3   OH268854   0.511   3.492   1.398 -0.5200 -0.4926  0.0952
15788TIP3    H168855   0.568   3.508   1.473 -0.9880 -1.9789  0.7895
15788TIP3    H268856   0.503   3.397   1.392 -1.2468 -0.3841 -1.2766
15789TIP3   OH268857   5.575   0.996  12.589 -0.3749 -0.1548  0.0896
15789TIP3    H168858   5.607   0.930  12.650 -0.7377 -0.7113 -0.3074
15789TIP3    H268859   5.494   1.029  12.628  0.5575  1.1479  1.0236
15790TIP3   OH268860   0.371   1.901   3.725  0.1751  0.4800 -0.0492
15790TIP3    H168861   0.302   1.890   3.790  0.5989  0.4323  0.4021
15790TIP3    H268862   0.326   1.933   3.647 -0.9555 -3.0078 -0.9926
15791TIP3   OH268863   2.440   1.343   5.178  0.1522  0.0230 -0.0212
15791TIP3    H168864   2.511   1.395   5.140 -0.2117  1.5195  1.2659
15791TIP3    H268865   2.484   1.282   5.236  0.4317  0.5868  0.3686
15792TIP3   OH268866   1.735   1.767  16.407 -0.3371 -0.4828  0.3102
15792TIP3    H168867   1.664   1.727  16.356 -0.7346 -0.0293  0.5019
15792TIP3    H268868   1.700   1.770  16.496 -0.1962  0.0236  0.3476
15793TIP3   OH268869   5.261   2.509   0.180 -0.6023  0.1692  0.0343
15793TIP3    H168870   5.228   2.466   0.102  0.3606  0.2817 -0.4492
15793TIP3    H268871   5.301   2.438   0.231  1.5799  0.5084 -1.0710
15794TIP3   OH268872   5.250   4.970   2.311 -0.2468 -0.2842 -0.0929
15794TIP3    H168873   5.204   4.893   2.277  0.3454  0.0522 -1.7378
15794TIP3    H268874   5.338   4.964   2.272  0.3911  0.2814  1.2026
15795TIP3   OH268875   1.633   6.081  10.889 -0.0881  0.2150 -0.0075
15795TIP3    H168876   1.575   6.006  10.875  0.6241 -0.2424 -0.5595
15795TIP3    H268877   1.650   6.081  10.983 -0.1411 -0.2790  0.0050
15796TIP3   OH268878   3.787   1.530   4.042  0.2793  0.4682 -0.1747
15796TIP3    H168879   3.840   1.493   3.972  0.3681 -0.0684  0.1791
15796TIP3    H268880   3.828   1.615   4.061  0.0961  0.7439 -0.9508
15797TIP3   OH268881   3.161   0.586  17.424  0.1816 -0.4939 -0.1638
15797TIP3    H168882   3.170   0.628  17.338 -0.4826  0.5121  0.2385
15797TIP3    H268883   3.232   0.522  17.427 -0.7291 -1.7258 -2.1263
15798TIP3   OH268884   3.097   4.335   3.323  0.4110  0.0711  0.1687
15798TIP3    H168885   3.092   4.309   3.231 -1.0409  0.4028  0.1320
15798TIP3    H268886   3.054   4.264   3.371  2.1151 -0.6386  0.7420
15799TIP3   OH268887   3.818   0.429   5.705  0.3340 -0.0690 -0.1171
15799TIP3    H168888   3.787   0.416   5.615 -0.5525 -1.9403  0.3987
15799TIP3    H268889   3.864   0.348   5.727 -1.1697 -0.5015  1.7398
15800TIP3   OH268890   2.481   1.763  15.977  0.4071 -0.6053 -0.3149
15800TIP3    H168891   2.519   1.683  15.941  1.7601  0.5725 -1.6381
15800TIP3    H268892   2.415   1.732  16.039  0.0581 -2.7431 -1.6363
15801TIP3   OH268893   5.925   1.385   0.573 -0.3734  0.1565  0.1841
15801TIP3    H168894   5.913   1.296   0.605 -0.2295 -0.0883 -0.4300
15801TIP3    H268895   6.009   1.413   0.610 -0.0150 -0.2690 -0.3086
15802TIP3   OH268896   5.405   3.913   1.007 -0.0426  0.2770  0.7649
15802TIP3    H168897   5.494   3.910   1.041 -0.1803 -0.1563  1.0805
15802TIP3    H268898   5.417   3.923   0.912  0.3486 -0.5906  0.7156
15803TIP3   OH268899   2.085   2.383   6.426 -0.0273 -0.4187  0.1539
15803TIP3    H168900   2.156   2.330   6.462  1.0321 -0.3604 -1.7453
15803TIP3    H268901   2.123   2.427   6.350 -1.3454  1.8152  0.6972
15804TIP3   OH268902   3.901   2.860   0.431  0.0832 -0.0627  0.6098
15804TIP3    H168903   3.860   2.916   0.364 -0.2105  0.7215  1.4133
15804TIP3    H268904   3.899   2.913   0.510  0.6294 -0.8904  1.1948
15805TIP3   OH268905   0.587   0.132   5.057  0.1504 -0.3819  0.0698
15805TIP3    H168906   0.671   0.171   5.034  0.9689 -1.4677  1.0981
15805TIP3    H268907   0.603   0.087   5.140 -1.2468 -1.2515 -0.0947
15806TIP3   OH268908   4.904   2.503  11.323 -0.0926 -0.5560  0.2735
15806TIP3    H168909   4.871   2.541  11.242  0.4898 -0.7039 -0.0367
15806TIP3    H268910   4.995   2.530  11.327 -0.2456 -0.1446  1.1300
15807TIP3   OH268911   5.395   2.190   1.535 -0.8158  0.8155  0.0898
15807TIP3    H168912   5.420   2.187   1.627 -0.4564  1.6625  0.0223
15807TIP3    H268913   5.477   2.201   1.488 -1.0847  1.2794 -0.2765
15808TIP3   OH268914   1.976   4.230   2.594 -0.0367  0.2351  0.6338
15808TIP3    H168915   2.012   4.313   2.560  1.6130 -1.1638 -1.3219
15808TIP3    H268916   1.948   4.250   2.683  0.2675  2.8989  0.2058
15809TIP3   OH268917   4.873   3.068   4.450  0.2992  0.0773  0.4482
15809TIP3    H168918   4.884   3.107   4.536  0.0636 -0.4579  0.7213
15809TIP3    H268919   4.904   2.978   4.460  1.0812  0.2556 -0.2407
15810TIP3   OH268920   3.919   5.468   5.947  0.2066  0.1919 -0.1432
15810TIP3    H168921   3.924   5.493   6.040  0.6588 -2.8462  0.7562
15810TIP3    H268922   3.957   5.381   5.944  0.6433  0.4000 -3.3259
15811TIP3   OH268923   4.463   3.885  16.916  0.0652  0.5624  0.1693
15811TIP3    H168924   4.470   3.902  17.010  0.4244 -2.8459  0.8689
15811TIP3    H268925   4.482   3.792  16.906  0.2196  0.8191 -3.3400
15812TIP3   OH268926   6.512   4.900  10.171 -0.6593  0.2733  0.0499
15812TIP3    H168927   6.448   4.969  10.187 -0.2853  0.3927  1.1775
15812TIP3    H268928   6.593   4.946  10.150 -0.5117  0.1750  0.3909
15813TIP3   OH268929   6.102   6.224  15.140 -0.0593 -0.5075  0.2699
15813TIP3    H168930   6.089   6.318  15.135  1.0672 -0.3581 -0.1976
15813TIP3    H268931   6.022   6.186  15.104 -2.1529  0.1494  3.7637
15814TIP3   OH268932   5.701   6.672  15.213  0.1069 -0.4794  0.2062
15814TIP3    H168933   5.710   6.680  15.308  1.0092  1.2137  0.0034
15814TIP3    H268934   5.784   6.634  15.185  0.7364  1.0643 -0.1046
15815TIP3   OH268935   2.353   5.246  15.657  0.4352 -0.6994 -0.1663
15815TIP3    H168936   2.410   5.176  15.690  2.1861  1.1210  0.8776
15815TIP3    H268937   2.337   5.224  15.566 -0.5330 -3.3536  0.5508
15816TIP3   OH268938   1.277   3.196   4.019 -0.2079 -0.4214  0.3362
15816TIP3    H168939   1.209   3.193   3.952  1.3341 -1.3645 -1.2900
15816TIP3    H268940   1.350   3.241   3.976  0.3945  0.1152  1.8548
15817TIP3   OH268941   5.792   0.373  15.036  0.1134 -0.0914  0.3397
15817TIP3    H168942   5.866   0.415  14.991 -0.8314 -0.5195 -1.7396
15817TIP3    H268943   5.767   0.300  14.979  0.2274 -2.0953  2.7069
15818TIP3   OH268944   3.955   3.447  12.379 -0.5002 -0.5845 -0.1969
15818TIP3    H168945   3.871   3.435  12.423  0.3090  0.6378  1.8209
15818TIP3    H268946   3.981   3.536  12.402  0.9159 -0.6078 -1.5743
15819TIP3   OH268947   1.168   0.360  10.679  0.4793 -0.1142 -0.2034
15819TIP3    H168948   1.092   0.419  10.675  0.9920  0.6556  0.8335
15819TIP3    H268949   1.154   0.309  10.759 -0.1491 -1.7094 -1.2838
15820TIP3   OH268950   6.372   5.965  16.860  0.3865 -0.4189  0.1989
15820TIP3    H168951   6.424   5.887  16.877  0.4452 -0.6118 -0.8251
15820TIP3    H268952   6.331   5.985  16.944  2.8857  0.3555  1.3143
15821TIP3   OH268953   4.905   1.076  16.467  0.6353  0.0825  0.1760
15821TIP3    H168954   4.843   1.070  16.395  1.5562  0.0759 -0.6266
15821TIP3    H268955   4.885   1.001  16.523  0.0685 -0.0379 -0.1818
15822TIP3   OH268956   4.854   6.243   2.897 -0.1987  0.5391 -0.3734
15822TIP3    H168957   4.938   6.283   2.872  0.6071 -0.5940  0.4236
15822TIP3    H268958   4.851   6.162   2.846  0.9342 -1.2384  2.1976
15823TIP3   OH268959   2.983   6.323  10.950  0.3801  0.2094  0.1023
15823TIP3    H168960   3.076   6.315  10.929  0.4142  0.5996  0.1050
15823TIP3    H268961   2.973   6.275  11.032  0.7528  0.9246  0.5775
15824TIP3   OH268962   1.346   2.229   4.437  0.6352 -0.1853  0.1222
15824TIP3    H168963   1.358   2.268   4.524  0.1955 -0.6350  0.3915
15824TIP3    H268964   1.284   2.157   4.451 -0.5184  0.5838 -0.7820
15825TIP3   OH268965   6.177   4.480   3.823  0.0896  0.3064  0.1221
15825TIP3    H168966   6.111   4.445   3.764 -0.5549 -0.2522  1.1386
15825TIP3    H268967   6.135   4.554   3.866  0.9874  1.5231 -1.0165
15826TIP3   OH268968   6.701   5.208  11.972  0.1672  0.3489  0.2587
15826TIP3    H168969   6.629   5.183  11.913 -0.7131 -0.4185  1.6022
15826TIP3    H268970   6.666   5.192  12.060  1.7914  0.5180  0.9615
15827TIP3   OH268971   0.069   3.135   3.815  0.2041 -0.6591  0.0826
15827TIP3    H168972   0.158   3.110   3.840  0.3671 -0.9971 -0.7998
15827TIP3    H268973   0.075   3.156   3.722 -0.6751 -0.8702 -0.0324
15828TIP3   OH268974   4.492   3.455  11.667 -0.3877  0.5231 -0.0287
15828TIP3    H168975   4.407   3.439  11.628 -0.6839 -1.7345  1.3425
15828TIP3    H268976   4.483   3.424  11.757  1.6445  1.0102  0.3951
15829TIP3   OH268977   4.927   2.882   2.933 -0.3658  0.2975  0.2060
15829TIP3    H168978   4.904   2.876   3.025  2.0000  0.2249  0.8778
15829TIP3    H268979   4.937   2.790   2.905  1.2093  0.3211  0.5830
15830TIP3   OH268980   1.698   4.664   1.416  0.0750 -0.2621  1.1726
15830TIP3    H168981   1.726   4.627   1.332 -1.8573  0.3557  0.2110
15830TIP3    H268982   1.738   4.751   1.418  1.1358 -0.7301  1.5016
15831TIP3   OH268983   1.591   4.692  13.082  0.4764 -0.1398  0.0314
15831TIP3    H168984   1.670   4.638  13.087 -0.2655 -1.1964  0.7237
15831TIP3    H268985   1.538   4.650  13.014  0.3215  0.3081 -0.1264
15832TIP3   OH268986   4.880   0.467  17.426  0.4779  0.8726  0.2682
15832TIP3    H168987   4.802   0.488  17.476  0.7888  1.9030  0.3560
15832TIP3    H268988   4.947   0.447  17.491  0.3466  0.1939  0.1992
15833TIP3   OH268989   0.592   0.384  13.764  0.1520 -0.0434 -0.2592
15833TIP3    H168990   0.621   0.468  13.800 -0.5737  0.6047 -1.1713
15833TIP3    H268991   0.610   0.321  13.835  0.8269  0.8408  0.3817
15834TIP3   OH268992   4.688   5.215  13.309 -0.3785  0.3691  0.4630
15834TIP3    H168993   4.689   5.160  13.230 -3.2928  0.6445  0.1357
15834TIP3    H268994   4.651   5.159  13.377  0.6188  0.6439  1.2555
15835TIP3   OH268995   1.943   5.586  11.476 -0.2469  0.2567 -0.4461
15835TIP3    H168996   1.919   5.558  11.387  1.3453 -0.8794 -0.5554
15835TIP3    H268997   2.034   5.558  11.486 -0.2295  0.8615  1.3580
15836TIP3   OH268998   0.614   2.867  14.071 -0.7065 -0.3272 -0.0103
15836TIP3    H168999   0.597   2.802  14.140 -1.0235 -1.3475 -1.0222
15836TIP3    H269000   0.629   2.949  14.119  1.1255 -1.3941  1.3887
15837TIP3   OH269001   0.085   3.819   2.230 -0.0484 -0.4030 -0.5788
15837TIP3    H169002   0.056   3.894   2.282  0.6856  0.2301 -1.0475
15837TIP3    H269003   0.179   3.813   2.247 -0.2909 -1.9471  0.3401
15838TIP3   OH269004   2.796   3.534  17.226  0.9717 -0.8338 -0.3843
15838TIP3    H169005   2.810   3.628  17.241  0.9042 -0.9097  0.1593
15838TIP3    H269006   2.832   3.492  17.303 -1.5621 -1.0915  0.7453
15839TIP3   OH269007   5.056   6.567  16.282 -0.2481  0.3061  0.1737
15839TIP3    H169008   4.998   6.636  16.250  0.6084  0.0345 -2.1194
15839TIP3    H269009   5.104   6.538  16.205  0.0858 -2.2406  1.2500
15840TIP3   OH269010   6.738   2.538  16.783 -0.3034  0.0785  0.1955
15840TIP3    H169011   6.713   2.613  16.729  0.5287 -0.8596 -1.5855
15840TIP3    H269012   6.826   2.515  16.753 -0.6548 -1.7930  0.4680
15841TIP3   OH269013   6.063   1.070   1.510 -0.2150 -0.6422 -0.0409
15841TIP3    H169014   5.986   1.083   1.566  1.1579  0.0650  1.7867
15841TIP3    H269015   6.132   1.043   1.571  1.7271  1.4754 -1.1502
15842TIP3   OH269016   6.184   0.021  13.700 -0.2831 -0.2477  0.6062
15842TIP3    H169017   6.207   0.089  13.637  1.5903 -0.1216  1.3659
15842TIP3    H269018   6.227  -0.058  13.666 -0.5288 -0.5260  0.9331
15843TIP3   OH269019   2.762   5.867   4.799 -0.1166  0.5535  0.1367
15843TIP3    H169020   2.806   5.949   4.821 -0.6235  0.8738 -0.0043
15843TIP3    H269021   2.711   5.887   4.721 -0.5048  0.1984  0.2912
15844TIP3   OH269022   5.926   0.025  13.820 -0.1818 -0.7435 -0.2646
15844TIP3    H169023   5.898  -0.043  13.759 -0.6221 -0.4877 -0.3502
15844TIP3    H269024   5.985   0.080  13.768 -1.4640  0.1487 -0.8102
15845TIP3   OH269025   3.807   1.991  16.021  0.1165  0.1312 -0.3665
15845TIP3    H169026   3.785   1.910  15.977 -1.1529  0.5761 -0.6093
15845TIP3    H269027   3.751   2.057  15.980  2.3172  1.5057 -1.3819
15846TIP3   OH269028   1.847   2.559   6.321  0.2234  0.1184  0.4538
15846TIP3    H169029   1.916   2.493   6.310 -0.0255  0.0146 -0.6171
15846TIP3    H269030   1.883   2.621   6.383  1.1783 -0.0836  0.1223
15847TIP3   OH269031   4.766   5.136  13.902 -0.0254 -0.4061 -0.0585
15847TIP3    H169032   4.761   5.231  13.886 -0.1988 -0.7140 -2.0369
15847TIP3    H269033   4.680   5.103  13.875  0.4280 -1.2754 -0.4630
15848TIP3   OH269034   6.652   4.936  15.317 -0.3790  0.2682 -0.1189
15848TIP3    H169035   6.621   4.854  15.279  0.2540 -0.9442  1.8598
15848TIP3    H269036   6.674   4.990  15.241 -1.1483 -1.2418 -1.4787
15849TIP3   OH269037   6.391   4.246   3.250  0.6675  0.1126 -0.5116
15849TIP3    H169038   6.326   4.237   3.180  0.8060  0.8860 -0.7559
15849TIP3    H269039   6.465   4.193   3.220  0.3387 -0.3778 -0.4652
15850TIP3   OH269040   5.746   1.535  13.300 -0.6308 -0.1463  0.9272
15850TIP3    H169041   5.762   1.581  13.382 -1.5914  0.3389  0.8641
15850TIP3    H269042   5.833   1.517  13.264 -0.2164  1.7170  0.9088
15851TIP3   OH269043   4.787   5.604  14.883  0.1463 -0.1499  0.0580
15851TIP3    H169044   4.706   5.629  14.838 -0.9508 -1.8569  1.0071
15851TIP3    H269045   4.855   5.613  14.816 -1.4922 -3.2692 -2.3107
15852TIP3   OH269046   0.703   0.173  16.394 -0.2180 -0.0240 -0.1510
15852TIP3    H169047   0.614   0.171  16.427 -0.7307  0.4935 -1.4101
15852TIP3    H269048   0.727   0.081  16.383 -1.2573 -0.1814 -1.4047
15853TIP3   OH269049   3.982   2.490  14.896 -0.6057 -0.3496  0.3544
15853TIP3    H169050   3.933   2.440  14.960 -1.6930  0.4361  0.1577
15853TIP3    H269051   4.008   2.570  14.942  0.2559 -0.6135  0.3624
15854TIP3   OH269052   1.398   1.823   1.141 -0.3408 -0.5738  0.5913
15854TIP3    H169053   1.381   1.781   1.226  0.0422 -2.2898 -0.1368
15854TIP3    H269054   1.463   1.767   1.099  0.2817  0.8470 -0.4139
15855TIP3   OH269055   6.501   6.288   3.974  0.3304  0.3704 -0.0097
15855TIP3    H169056   6.527   6.380   3.964  3.3393 -0.2918  0.8546
15855TIP3    H269057   6.540   6.262   4.058  1.6119 -2.3148 -1.3331
15856TIP3   OH269058   2.007   0.944  13.512 -0.1958  0.1024 -0.4802
15856TIP3    H169059   2.087   0.913  13.470  0.5771  0.0281  1.0102
15856TIP3    H269060   2.011   1.039  13.506  1.2221  0.2406  1.6637
15857TIP3   OH269061   0.813   5.694   2.989 -0.1829 -0.0798 -0.4104
15857TIP3    H169062   0.718   5.678   2.989 -0.0856 -0.7272  0.5282
15857TIP3    H269063   0.852   5.608   2.976  0.2934 -0.1602  1.3000
15858TIP3   OH269064   2.688   4.214   5.673  0.4914  0.5010  0.5195
15858TIP3    H169065   2.693   4.223   5.768  0.9751  0.5301  0.4966
15858TIP3    H269066   2.607   4.259   5.648  0.6133  0.9202  0.8685
15859TIP3   OH269067   6.625   3.448   3.215 -0.6203 -0.4732 -0.2935
15859TIP3    H169068   6.703   3.501   3.198 -0.2589 -0.6651  0.7071
15859TIP3    H269069   6.552   3.508   3.200 -0.2047  0.7257  1.9472
15860TIP3   OH269070   6.508   4.069   4.509 -0.2143  0.3105 -0.8357
15860TIP3    H169071   6.457   3.996   4.545  0.3579  0.6159  0.6670
15860TIP3    H269072   6.477   4.077   4.419 -1.0814 -1.0659 -0.6984
15861TIP3   OH269073   1.833   0.278  16.284 -0.2858 -0.7831  0.2554
15861TIP3    H169074   1.904   0.343  16.286 -0.0773 -0.9510 -0.8695
15861TIP3    H269075   1.809   0.266  16.376 -0.1078  0.6435  0.5128
15862TIP3   OH269076   1.756   1.348  12.466 -0.3655  0.7429  0.1964
15862TIP3    H169077   1.748   1.349  12.370 -0.9826  2.2501  0.2350
15862TIP3    H269078   1.693   1.282  12.494  1.1111 -1.0629 -0.4902
15863TIP3   OH269079   5.385   2.105  12.622  0.4061 -0.0470  0.5536
15863TIP3    H169080   5.437   2.173  12.579  1.4426 -0.1963  1.5253
15863TIP3    H269081   5.295   2.131  12.606  0.6695 -0.5712 -2.4623
15864TIP3   OH269082   5.041   3.656  13.194 -0.1201 -0.0816  0.1022
15864TIP3    H169083   5.103   3.605  13.246 -1.1633 -0.7856  0.6699
15864TIP3    H269084   4.958   3.609  13.201 -0.4400  0.1371 -1.7112
15865TIP3   OH269085   6.421   2.719  16.046  0.3944 -0.1443 -0.0247
15865TIP3    H169086   6.343   2.774  16.039  2.0926  2.3550 -0.8574
15865TIP3    H269087   6.427   2.675  15.961 -0.4263 -0.8964  0.2859
15866TIP3   OH269088   4.719   2.660  12.395 -0.3474  0.2356 -0.0276
15866TIP3    H169089   4.647   2.622  12.445 -1.1354 -2.2111 -2.7451
15866TIP3    H269090   4.685   2.744  12.365 -0.6575  0.7486  1.6508
15867TIP3   OH269091   0.677   3.413   1.053 -0.0494 -0.6382 -0.0588
15867TIP3    H169092   0.724   3.465   1.119  0.0152 -2.7385  1.6727
15867TIP3    H269093   0.740   3.401   0.982  0.4572  0.2939  0.2196
15868TIP3   OH269094   2.598   6.670  14.002  0.2168 -0.1221  0.2776
15868TIP3    H169095   2.515   6.702  13.966  0.3454 -0.9305 -0.7699
15868TIP3    H269096   2.622   6.597  13.945  1.8646  0.3695  0.2924
15869TIP3   OH269097   4.313   3.269  11.328 -0.6949  0.2374  0.4722
15869TIP3    H169098   4.336   3.178  11.345 -2.9546 -0.2380  1.3385
15869TIP3    H269099   4.267   3.267  11.244  2.1856  1.1721 -1.2729
15870TIP3   OH269100   0.473   2.744  13.846 -0.4071 -0.7511  0.0134
15870TIP3    H169101   0.475   2.793  13.764 -1.8798 -0.2553  0.2417
15870TIP3    H269102   0.538   2.789  13.902 -1.1350  0.4473 -0.0653
15871TIP3   OH269103   1.003   3.779  13.875 -0.4179 -0.5714  0.2191
15871TIP3    H169104   0.961   3.695  13.854 -2.2102  0.5488 -0.9739
15871TIP3    H269105   1.074   3.785  13.811 -2.4738  0.3273 -2.1609
15872TIP3   OH269106   3.378   3.758  11.921  0.1024  0.5703  0.2538
15872TIP3    H169107   3.374   3.668  11.954 -0.4818 -0.3979 -2.2016
15872TIP3    H269108   3.338   3.753  11.834 -1.4868  3.5656  0.6906
15873TIP3   OH269109   5.388   0.492   2.664 -0.3051 -0.4191  0.1411
15873TIP3    H169110   5.458   0.453   2.612  0.1456  0.7784 -0.1883
15873TIP3    H269111   5.341   0.418   2.702 -0.0560 -1.2947 -1.2126
15874TIP3   OH269112   2.049   5.728  12.908 -1.0285 -0.3777  0.4462
15874TIP3    H169113   2.104   5.710  12.984  0.2117  0.3839 -0.2454
15874TIP3    H269114   2.037   5.823  12.908  1.2200  0.0074 -1.7340
15875TIP3   OH269115   3.564   3.391   4.555 -0.1123 -0.1401  0.5073
15875TIP3    H169116   3.623   3.326   4.592  0.0323  0.6809  1.7531
15875TIP3    H269117   3.609   3.475   4.566 -1.1130  0.3994  0.6745
15876TIP3   OH269118   1.680   1.849  17.372 -0.4804 -0.4801  0.2889
15876TIP3    H169119   1.669   1.775  17.431 -3.4039  0.9967  1.7942
15876TIP3    H269120   1.640   1.821  17.290  0.0513 -1.1595  0.2537
15877TIP3   OH269121   3.142   0.751  16.279  0.0729  0.0674 -0.0207
15877TIP3    H169122   3.122   0.675  16.333 -1.6114  0.9456  0.6444
15877TIP3    H269123   3.103   0.731  16.194 -0.2347  0.1236  0.1070
15878TIP3   OH269124   1.727   5.862  12.709 -0.4160  0.0099  0.2782
15878TIP3    H169125   1.801   5.911  12.673  1.6561 -2.5462  0.7943
15878TIP3    H269126   1.651   5.898  12.664  1.4114  0.9019 -2.3321
15879TIP3   OH269127   3.752   0.462  17.342 -0.2814 -0.1714  0.2489
15879TIP3    H169128   3.798   0.498  17.418  0.5902 -0.9877  0.1226
15879TIP3    H269129   3.709   0.538  17.302  0.0250  0.4223  1.0075
15880TIP3   OH269130   0.996   4.762   1.543  0.2727  0.8272 -0.0231
15880TIP3    H169131   1.066   4.808   1.590  0.0038  0.1346  1.0930
15880TIP3    H269132   0.986   4.811   1.462  2.5054  0.5732 -0.5217
15881TIP3   OH269133   1.029   3.902  11.602 -0.1762  0.1665 -0.4860
15881TIP3    H169134   1.015   3.959  11.527  2.8393  1.0555 -0.5406
15881TIP3    H269135   1.056   3.962  11.672 -3.1187 -0.6063  1.4780
15882TIP3   OH269136   4.539   5.639   2.497  0.5445 -0.0157 -0.2646
15882TIP3    H169137   4.560   5.570   2.559  0.2217  1.2235  1.2895
15882TIP3    H269138   4.600   5.710   2.517 -0.0206  0.6731 -0.9017
15883TIP3   OH269139   1.022   0.411  14.318  0.1478 -0.1000  0.4185
15883TIP3    H169140   1.005   0.502  14.344  0.3563 -0.1002  0.5545
15883TIP3    H269141   1.065   0.372  14.393 -0.0571 -0.3509  0.4073
15884TIP3   OH269142   1.767   5.393   0.166  0.2865  0.4383 -0.0539
15884TIP3    H169143   1.680   5.427   0.189  0.4797  0.4513  0.7008
15884TIP3    H269144   1.789   5.438   0.085 -1.0263 -0.6577 -1.0566
15885TIP3   OH269145   2.517   3.158   1.343  0.3667 -0.3880 -0.3516
15885TIP3    H169146   2.564   3.106   1.409  0.6483  0.6898  0.3134
15885TIP3    H269147   2.549   3.247   1.355 -3.5779  0.9744  1.8584
15886TIP3   OH269148   1.594   2.701   4.742 -0.8510  0.3943  0.0852
15886TIP3    H169149   1.689   2.689   4.751 -1.2406 -3.1693  0.8558
15886TIP3    H269150   1.574   2.673   4.653 -1.2852  0.1578  0.2532
15887TIP3   OH269151   3.847   1.853   1.437  0.0703  0.0975 -0.6934
15887TIP3    H169152   3.883   1.840   1.524 -1.8578  0.7127  0.2542
15887TIP3    H269153   3.922   1.845   1.378  1.6860  1.1050  1.1168
15888TIP3   OH269154   0.848   5.858  13.977  0.5445  0.0239 -0.0477
15888TIP3    H169155   0.908   5.785  13.960 -0.7940 -1.2403  0.4510
15888TIP3    H269156   0.781   5.821  14.035  0.3473  1.9296  1.0135
15889TIP3   OH269157   4.699   2.169   2.714 -0.2575 -0.4981 -0.1247
15889TIP3    H169158   4.787   2.204   2.702 -0.5324  0.2530  0.0337
15889TIP3    H269159   4.644   2.245   2.731 -0.3441 -1.1487  3.4454
15890TIP3   OH269160   4.141   4.865  16.133  0.2669  0.7128 -0.3498
15890TIP3    H169161   4.116   4.953  16.104 -0.6945  0.4928 -0.2279
15890TIP3    H269162   4.081   4.807  16.086  0.7672  0.1311 -0.2793
15891TIP3   OH269163   0.640   3.839  10.551 -0.0457 -0.3412  0.5957
15891TIP3    H169164   0.720   3.852  10.500 -0.3625 -1.3537 -0.2030
15891TIP3    H269165   0.587   3.916  10.532  0.3696 -0.0954  0.4158
15892TIP3   OH269166   1.376   2.687  13.799 -0.1893  0.1242 -0.1927
15892TIP3    H169167   1.430   2.615  13.768 -1.4170 -0.5997 -0.7586
15892TIP3    H269168   1.430   2.765  13.786  1.4034 -0.7182  1.0173
15893TIP3   OH269169   1.044   4.909  12.590 -0.1752 -0.5485  0.5224
15893TIP3    H169170   1.084   4.934  12.507 -1.2403 -0.1160  0.1222
15893TIP3    H269171   1.094   4.832  12.619 -0.0831 -0.9827 -0.7453
15894TIP3   OH269172   4.784   6.515  12.686 -0.3101  0.1148  0.4704
15894TIP3    H169173   4.727   6.540  12.759 -0.3498  1.4943 -0.0219
15894TIP3    H269174   4.737   6.542  12.607  0.7903  0.8357  0.0351
15895TIP3   OH269175   5.594   3.080  13.643  0.1997  0.6099 -0.5780
15895TIP3    H169176   5.555   2.993  13.646  0.2594  0.6016  0.8498
15895TIP3    H269177   5.619   3.098  13.734 -0.6439  2.4886 -0.6648
15896TIP3   OH269178   2.543   3.897   5.639 -0.4936 -0.5762  0.0744
15896TIP3    H169179   2.593   3.883   5.719  0.3814 -0.3591 -0.4180
15896TIP3    H269180   2.455   3.920   5.669 -0.1262 -0.2916  0.9714
15897TIP3   OH269181   3.206   3.253  17.274  0.2853  0.4436  0.5137
15897TIP3    H169182   3.263   3.310  17.223  1.2371  0.2371  1.3340
15897TIP3    H269183   3.227   3.273  17.365 -1.3932  0.8067  0.8577
15898TIP3   OH269184   1.594   6.367   4.800 -0.1167  0.6367  0.9486
15898TIP3    H169185   1.619   6.284   4.841 -0.1310 -0.1426 -0.5394
15898TIP3    H269186   1.664   6.427   4.823  0.7989 -0.2693  0.6189
15899TIP3   OH269187   6.761   5.919  13.030 -0.2351 -0.4450  0.0820
15899TIP3    H169188   6.667   5.921  13.043 -0.1355 -1.2950  1.0843
15899TIP3    H269189   6.790   6.008  13.048 -0.6851 -0.5101  1.1633
15900TIP3   OH269190   3.552   2.009  16.682 -0.0396 -0.2277 -0.1755
15900TIP3    H169191   3.585   2.062  16.754  1.3056  1.8168 -2.1656
15900TIP3    H269192   3.620   1.943  16.668  0.6720  0.6217 -0.8157
15901TIP3   OH269193   6.054   5.293   3.786  0.2051 -0.1959  0.1287
15901TIP3    H169194   6.103   5.362   3.830 -0.0627  0.3006 -0.3472
15901TIP3    H269195   6.119   5.226   3.765  0.4704 -0.0759  0.5549
15902TIP3   OH269196   4.736   5.115   3.981 -0.3825  0.6266  0.4595
15902TIP3    H169197   4.817   5.065   3.992 -1.2300 -0.7854  0.5460
15902TIP3    H269198   4.704   5.090   3.894  0.0635  2.4178 -0.2680
15903TIP3   OH269199   4.417   0.953  15.224 -0.2877 -0.0113 -0.4214
15903TIP3    H169200   4.388   1.039  15.256  1.0069  0.3222 -0.0664
15903TIP3    H269201   4.509   0.967  15.200  0.7765 -1.9182  2.1426
15904TIP3   OH269202   6.677   2.498   4.184 -0.6131 -0.2906  0.0914
15904TIP3    H169203   6.746   2.526   4.245 -0.1362 -0.3840 -0.4029
15904TIP3    H269204   6.617   2.573   4.182 -0.3223 -0.0479  0.2202
15905TIP3   OH269205   4.759   0.400  15.623 -0.0189 -0.9403  0.0641
15905TIP3    H169206   4.693   0.384  15.690  0.2545 -0.6367  0.4048
15905TIP3    H269207   4.778   0.493  15.629 -0.0244 -0.8977 -0.4669
15906TIP3   OH269208   5.733   0.401  11.684  0.4348 -0.3920  0.4960
15906TIP3    H169209   5.744   0.324  11.741  0.7643  0.4776  1.6482
15906TIP3    H269210   5.821   0.439  11.679 -0.1840  1.3936  2.1428
15907TIP3   OH269211   6.094   6.446   3.280 -0.3788  0.0688 -0.2308
15907TIP3    H169212   6.123   6.535   3.296  0.3453 -0.2136  0.0996
15907TIP3    H269213   6.010   6.439   3.326 -0.2049  0.4296  0.1443
15908TIP3   OH269214   5.488   3.656  12.954  0.1264 -0.6292  0.3158
15908TIP3    H169215   5.568   3.680  13.001  0.7782 -1.8657 -0.0963
15908TIP3    H269216   5.446   3.591  13.010 -0.5359 -0.0823  0.4664
15909TIP3   OH269217   0.203   3.246   2.990 -0.2867 -0.0270 -0.0846
15909TIP3    H169218   0.115   3.282   2.982 -0.7655 -1.3003 -0.8253
15909TIP3    H269219   0.236   3.241   2.900  0.8177  1.0588  0.2355
15910TIP3   OH269220   2.182   5.978   3.246  0.1546 -0.5173  0.0501
15910TIP3    H169221   2.273   5.955   3.232 -0.1174 -1.3114 -0.4492
15910TIP3    H269222   2.146   5.907   3.299  0.9347  1.9257  4.3889
15911TIP3   OH269223   2.778   1.136   3.613 -0.1971 -0.2465 -0.3740
15911TIP3    H169224   2.771   1.208   3.550  0.1875  0.5857  0.5020
15911TIP3    H269225   2.694   1.136   3.660  0.1753  0.3225  0.3216
15912TIP3   OH269226   4.343   3.036  11.450 -0.0211  0.0750  0.2862
15912TIP3    H169227   4.435   3.049  11.475 -0.1423  0.8729  0.3383
15912TIP3    H269228   4.334   2.941  11.442  0.9537  0.0170 -0.2780
15913TIP3   OH269229   2.359   0.450   2.144 -0.4339  0.3307 -0.8159
15913TIP3    H169230   2.388   0.514   2.208  0.3211 -0.6927 -0.1043
15913TIP3    H269231   2.264   0.461   2.139 -0.4040  0.9432 -0.0918
15914TIP3   OH269232   0.353   6.060  16.298  0.4485  0.4277  0.0495
15914TIP3    H169233   0.336   6.153  16.313 -0.9137  0.0422  1.1972
15914TIP3    H269234   0.327   6.018  16.380  0.6907 -1.0022 -0.5773
15915TIP3   OH269235   0.770   0.426  16.487 -0.3554  0.3659 -0.2115
15915TIP3    H169236   0.745   0.336  16.465 -0.7792 -0.0159  1.6541
15915TIP3    H269237   0.846   0.443  16.431 -1.6005 -0.3158 -2.2158
15916TIP3   OH269238   3.207   3.886   2.516  0.2516  0.5471  0.2935
15916TIP3    H169239   3.202   3.887   2.611 -1.1215  1.3972  0.2312
15916TIP3    H269240   3.130   3.934   2.486 -0.2447 -1.0977 -1.2872
15917TIP3   OH269241   6.079   6.741  13.399  0.2494 -0.3042 -0.7942
15917TIP3    H169242   6.167   6.733  13.436  0.8010  1.7214 -1.5342
15917TIP3    H269243   6.069   6.664  13.343  1.7788 -0.2743 -1.1388
15918TIP3   OH269244   1.932   5.265  16.603  0.4343  0.7500 -0.5525
15918TIP3    H169245   2.003   5.290  16.662 -0.0583  1.7335 -0.3567
15918TIP3    H269246   1.857   5.249  16.662  0.6217 -0.8318 -0.7074
15919TIP3   OH269247   5.076   2.359  16.745 -0.2686 -0.0278  0.8823
15919TIP3    H169248   5.130   2.419  16.796  0.3595  0.2103 -0.0445
15919TIP3    H269249   5.133   2.284  16.728 -0.7233 -0.4483  1.1773
15920TIP3   OH269250   5.717   2.229  15.616  0.1830  0.5056 -0.2209
15920TIP3    H169251   5.698   2.137  15.595 -0.2733  0.5145  0.1516
15920TIP3    H269252   5.758   2.263  15.536 -0.2919  0.1655 -0.6170
15921TIP3   OH269253   4.326   6.583  15.539 -0.3427  0.0926 -0.3250
15921TIP3    H169254   4.238   6.615  15.559 -0.0576  1.3187 -0.9594
15921TIP3    H269255   4.370   6.658  15.499  1.7198  0.2626  2.0165
15922TIP3   OH269256   0.092   2.097  11.930  0.1713 -0.2968 -0.1257
15922TIP3    H169257   0.185   2.118  11.923  0.4199 -1.4785 -0.5588
15922TIP3    H269258   0.060   2.100  11.839  0.0012 -0.8206 -0.0857
15923TIP3   OH269259   4.201   2.012   3.765  0.5335 -0.2109 -0.2137
15923TIP3    H169260   4.205   1.923   3.731  0.4153 -0.7917  1.2041
15923TIP3    H269261   4.292   2.040   3.770  0.5639 -0.2106 -0.7599
15924TIP3   OH269262   2.310   3.663   3.121  0.1631  0.3958  0.4373
15924TIP3    H169263   2.296   3.627   3.033  0.9256  0.3203  0.3371
15924TIP3    H269264   2.272   3.598   3.180 -1.3758  0.9791  0.1353
15925TIP3   OH269265   0.090   0.709   2.524  0.8194  0.4012 -0.6538
15925TIP3    H169266   0.036   0.684   2.449 -0.6753  0.6474  0.2953
15925TIP3    H269267   0.032   0.762   2.579  1.9008  0.3065  0.6274
15926TIP3   OH269268   5.844   2.188   2.824 -0.0741 -0.1941  0.3873
15926TIP3    H169269   5.778   2.203   2.892 -1.5122  0.5749 -1.0962
15926TIP3    H269270   5.809   2.116   2.772  0.4138  0.0191 -0.2493
15927TIP3   OH269271   6.759   5.693  11.955  0.8547 -0.2823  0.2412
15927TIP3    H169272   6.842   5.650  11.977  0.8217  0.3321  1.6385
15927TIP3    H269273   6.783   5.756  11.887  1.3154 -0.8934 -0.1766
15928TIP3   OH269274   5.916   6.743   3.384 -0.4287 -0.0991  0.3968
15928TIP3    H169275   5.857   6.681   3.428 -0.0475  2.3512  5.0021
15928TIP3    H269276   5.873   6.828   3.394  1.2965  1.0590 -1.2885
15929TIP3   OH269277   5.048   1.836  15.705  0.2119  0.7329  0.1132
15929TIP3    H169278   5.048   1.890  15.784 -4.1636  1.6124 -0.2321
15929TIP3    H269279   5.052   1.899  15.633 -1.1316  0.4174 -0.2826
15930TIP3   OH269280   2.616   4.643   1.495  0.0391 -0.5172  0.6823
15930TIP3    H169281   2.612   4.698   1.573 -1.1144 -0.2491  0.4558
15930TIP3    H269282   2.529   4.652   1.455  0.9563  0.1918 -1.2288
15931TIP3   OH269283   2.077   1.439  12.299  0.5916  0.1656  0.2301
15931TIP3    H169284   2.030   1.436  12.215  0.8651  0.9639  0.0378
15931TIP3    H269285   2.026   1.498  12.353  0.2785 -0.5500  0.7202
15932TIP3   OH269286   4.688   5.925   3.670 -0.2840  0.0582  0.3920
15932TIP3    H169287   4.705   5.873   3.748  0.6884  1.8671  1.4431
15932TIP3    H269288   4.594   5.916   3.655 -0.3126 -1.0996  1.1799
15933TIP3   OH269289   6.402   0.939  16.420 -0.1324 -0.5398  0.3650
15933TIP3    H169290   6.443   1.025  16.411  1.8950 -1.3442  1.3896
15933TIP3    H269291   6.390   0.910  16.330  2.1989 -0.5191 -0.0082
15934TIP3   OH269292   1.557   2.535  13.471 -0.0412  0.4715  0.4866
15934TIP3    H169293   1.528   2.445  13.458  0.6309  0.2378  0.5422
15934TIP3    H269294   1.575   2.540  13.565 -0.2707  0.7202  0.5153
15935TIP3   OH269295   1.092   4.767  16.066 -0.1661 -0.3506 -0.5533
15935TIP3    H169296   1.059   4.706  16.131 -2.3718 -0.6337 -1.8392
15935TIP3    H269297   1.029   4.763  15.994  2.7300 -1.0091 -3.3209
15936TIP3   OH269298   0.274   5.376  16.849  0.0306  0.3485 -0.2527
15936TIP3    H169299   0.247   5.352  16.760 -0.5749  0.3793 -0.0838
15936TIP3    H269300   0.313   5.463  16.839  0.6822  0.0212 -0.6074
15937TIP3   OH269301   2.285   5.058  11.550 -0.1002 -0.1916  0.4056
15937TIP3    H169302   2.265   5.045  11.643  0.7847  2.4297  1.0484
15937TIP3    H269303   2.209   5.105  11.516 -0.1436 -0.5911 -0.0596
15938TIP3   OH269304   0.755   5.510  10.678  0.0923 -0.1103  0.2390
15938TIP3    H169305   0.712   5.568  10.615  0.3129 -0.7837 -0.5489
15938TIP3    H269306   0.782   5.568  10.749  0.4647  0.7843 -0.6106
15939TIP3   OH269307   4.842   4.860   2.106  0.0864  0.1770  0.0098
15939TIP3    H169308   4.791   4.915   2.166 -2.0916 -1.8140  0.1286
15939TIP3    H269309   4.791   4.779   2.098  1.6158 -0.6698 -2.4967
15940TIP3   OH269310   2.800   1.519  13.037  0.1793  0.2964 -0.3108
15940TIP3    H169311   2.752   1.466  12.974  1.7320 -0.0670 -1.2370
15940TIP3    H269312   2.756   1.604  13.036  1.1118  0.8506 -3.1482
15941TIP3   OH269313   4.022   1.710  13.620  0.7624  0.5151  1.0033
15941TIP3    H169314   3.984   1.658  13.549  1.9155 -0.8708  1.3564
15941TIP3    H269315   4.051   1.791  13.577 -0.7425  0.7640  0.3777
15942TIP3   OH269316   0.391   0.198   3.171  0.2663 -0.2966 -0.1071
15942TIP3    H169317   0.350   0.267   3.119 -2.0210 -0.2967  1.5304
15942TIP3    H269318   0.372   0.117   3.124 -1.9685 -0.3207  0.7216
15943TIP3   OH269319   0.333   3.898  17.442  0.2905  0.7927  0.0621
15943TIP3    H169320   0.263   3.833  17.438 -0.0057  0.9979  1.4458
15943TIP3    H269321   0.300   3.971  17.390 -0.9443  1.2463  1.4198
15944TIP3   OH269322   3.981   6.699  13.752  0.1346  0.2182 -0.3187
15944TIP3    H169323   4.060   6.734  13.793  0.9170 -0.1749 -1.4445
15944TIP3    H269324   3.947   6.637  13.816  1.2682 -0.3039 -0.1988
15945TIP3   OH269325   3.463   5.256  12.756  0.1061  0.1490 -0.0160
15945TIP3    H169326   3.370   5.245  12.741  0.0468  0.9167 -0.2546
15945TIP3    H269327   3.476   5.231  12.848  0.0017 -1.8033 -0.4909
15946TIP3   OH269328   5.898   1.371   2.495 -0.5724  0.1975 -0.1437
15946TIP3    H169329   5.805   1.365   2.518 -0.4897 -0.0915  0.1119
15946TIP3    H269330   5.939   1.408   2.573 -0.4639  0.2727 -0.2373
15947TIP3   OH269331   5.808   3.226   0.672  0.0370  0.0076 -0.4285
15947TIP3    H169332   5.865   3.154   0.643  0.5381  0.1206  0.2597
15947TIP3    H269333   5.758   3.249   0.593  1.4680  0.3891 -1.2728
15948TIP3   OH269334   4.316   1.306   2.280 -0.0582  0.4532 -0.2998
15948TIP3    H169335   4.386   1.241   2.276 -0.2636  0.2257 -0.2570
15948TIP3    H269336   4.335   1.358   2.358 -1.3497 -1.2659  1.2599
15949TIP3   OH269337   1.740   0.174  15.626  0.0742  0.0106 -0.7597
15949TIP3    H169338   1.719   0.267  15.640  1.4642  0.3153 -0.5135
15949TIP3    H269339   1.826   0.163  15.666  0.5694 -1.0510 -2.0649
15950TIP3   OH269340   0.177   2.112  13.855 -0.0417 -0.2350 -0.2252
15950TIP3    H169341   0.145   2.079  13.939 -0.9892  0.0648 -0.4601
15950TIP3    H269342   0.206   2.034  13.808  1.1343 -0.3425  0.6258
15951TIP3   OH269343   6.177   3.581   1.867  0.3345  0.2566  0.3319
15951TIP3    H169344   6.095   3.593   1.915 -0.9056  0.9405 -1.7846
15951TIP3    H269345   6.213   3.670   1.859  0.3217  0.2075 -0.3122
15952TIP3   OH269346   6.338   5.942   1.924  0.1086  0.3468  0.6961
15952TIP3    H169347   6.261   5.998   1.937  0.1855  0.4314  0.7808
15952TIP3    H269348   6.339   5.884   1.999 -0.2462 -0.0887  0.3689
15953TIP3   OH269349   1.051   4.486  15.597 -0.1037 -0.4256  0.1021
15953TIP3    H169350   1.091   4.429  15.663  1.5909  0.6941  0.1002
15953TIP3    H269351   1.040   4.570  15.642 -1.1927 -0.3164 -0.3404
15954TIP3   OH269352   2.476   0.794  11.613 -0.3817 -0.0129  0.2063
15954TIP3    H169353   2.484   0.887  11.592 -0.9585 -0.3896 -1.8595
15954TIP3    H269354   2.386   0.772  11.590 -1.0564 -0.5965  2.9645
15955TIP3   OH269355   5.999   0.878  14.587 -0.7033  0.2949  0.3435
15955TIP3    H169356   6.075   0.834  14.626  0.8770  1.9877 -0.6757
15955TIP3    H269357   5.942   0.898  14.662  1.0345  1.1756  1.4971
15956TIP3   OH269358   5.669   4.947   5.062 -0.1978  0.1496 -0.0590
15956TIP3    H169359   5.695   4.971   4.974  0.4513  0.1374  0.1265
15956TIP3    H269360   5.687   4.854   5.069  1.4619  0.4880  0.6600
15957TIP3   OH269361   4.021   4.027   3.330  1.0699  0.7611  0.6351
15957TIP3    H169362   3.931   4.014   3.299  2.0178 -0.0896 -2.0613
15957TIP3    H269363   4.030   4.122   3.338  0.5537  1.0247 -1.3421
15958TIP3   OH269364   6.486   5.706  16.449 -0.2436  0.1232 -0.0790
15958TIP3    H169365   6.577   5.688  16.472 -1.2076 -3.0452  1.8925
15958TIP3    H269366   6.473   5.663  16.365 -0.4447 -1.5915  0.7816
15959TIP3   OH269367   0.134   2.598  13.613 -0.0423  0.4894  0.5695
15959TIP3    H169368   0.140   2.504  13.631  0.9978  0.2781 -0.7483
15959TIP3    H269369   0.075   2.631  13.681  1.7326 -0.6288  2.7700
15960TIP3   OH269370   0.853   2.994   5.964 -0.2621 -0.1623  1.1238
15960TIP3    H169371   0.910   3.069   5.982 -0.0641 -0.3904  1.4562
15960TIP3    H269372   0.852   2.944   6.046 -1.0895 -0.0641  1.1795
15961TIP3   OH269373   0.636   6.051  12.464 -0.0549 -0.0587  0.1090
15961TIP3    H169374   0.684   6.031  12.545  0.7587  0.1490 -0.3141
15961TIP3    H269375   0.686   6.008  12.395 -1.0469 -0.6835 -0.2327
15962TIP3   OH269376   6.261   0.507  14.268  0.1331  0.0003 -0.2171
15962TIP3    H169377   6.243   0.476  14.357  0.6071 -1.2505 -0.5393
15962TIP3    H269378   6.333   0.453  14.237 -0.8472 -0.4732 -1.8256
15963TIP3   OH269379   0.149   4.008  14.169 -0.1892  0.7217 -0.1626
15963TIP3    H169380   0.222   3.988  14.110  0.1589  1.1186  0.1308
15963TIP3    H269381   0.165   3.953  14.246  0.1935  1.3408  0.2018
15964TIP3   OH269382   4.686   5.777  16.283  0.4713 -0.2696  0.2389
15964TIP3    H169383   4.697   5.684  16.265  0.3234 -0.8201  2.6578
15964TIP3    H269384   4.690   5.819  16.197  0.6182 -2.4812 -0.8957
15965TIP3   OH269385   4.033   1.675   0.086 -0.4036 -0.3468  0.0270
15965TIP3    H169386   3.941   1.676   0.113 -0.1441 -0.9217  0.9931
15965TIP3    H269387   4.038   1.608   0.019 -0.4855 -1.1380  0.7950
15966TIP3   OH269388   4.864   6.074   0.016 -0.5005  0.6635 -0.3348
15966TIP3    H169389   4.843   6.049   0.106  1.1294 -0.3894 -0.2047
15966TIP3    H269390   4.850   6.169   0.014 -0.6892  0.6875  0.9801
15967TIP3   OH269391   6.367   6.660   2.139 -0.5875 -0.9724  0.3954
15967TIP3    H169392   6.310   6.629   2.069  1.3802 -0.7743 -1.4047
15967TIP3    H269393   6.450   6.682   2.095 -0.3534  2.5653  2.1767
15968TIP3   OH269394   1.229   2.089   5.713 -0.4928 -0.5439  0.4893
15968TIP3    H169395   1.282   2.168   5.717 -1.1184 -0.0695 -0.3314
15968TIP3    H269396   1.164   2.106   5.644 -1.3908 -1.3007  1.1106
15969TIP3   OH269397   4.798   0.679   1.768  0.0648  0.5842  0.6363
15969TIP3    H169398   4.741   0.654   1.841 -0.2355  0.6626  0.4308
15969TIP3    H269399   4.743   0.734   1.712  0.2198  0.3359  0.2336
15970TIP3   OH269400   5.253   5.515  13.292  0.3981 -0.0466  0.0569
15970TIP3    H169401   5.328   5.574  13.300  0.2414  0.2478 -0.5125
15970TIP3    H269402   5.192   5.545  13.359  0.5999  0.0197  0.2098
15971TIP3   OH269403   3.439   3.498   0.197  0.1384  0.2738  0.1652
15971TIP3    H169404   3.392   3.556   0.257  1.6018  0.2456  1.3915
15971TIP3    H269405   3.521   3.479   0.242  0.4682 -1.2895 -1.0200
15972TIP3   OH269406   3.243   2.107  15.712  0.1381  0.0023 -0.2278
15972TIP3    H169407   3.254   2.075  15.801  1.6926  3.3580  0.9065
15972TIP3    H269408   3.166   2.163  15.715 -0.7386 -1.0721 -1.4313
15973TIP3   OH269409   1.484   4.760  14.199 -0.1041  0.0438  0.1973
15973TIP3    H169410   1.431   4.744  14.121 -1.6115  0.9384  0.9887
15973TIP3    H269411   1.559   4.701  14.190 -0.4831 -0.1990 -1.6812
15974TIP3   OH269412   4.033   4.680  15.948  0.2951 -0.3390  0.4658
15974TIP3    H169413   4.057   4.588  15.960  1.0501 -0.2117  0.0064
15974TIP3    H269414   3.939   4.678  15.928 -0.3014 -0.7833  2.9849
15975TIP3   OH269415   1.684   2.653   0.248 -0.8385  0.1495 -0.2104
15975TIP3    H169416   1.777   2.645   0.271 -0.7076 -0.8918 -1.0046
15975TIP3    H269417   1.647   2.711   0.314  0.5923  1.3865 -0.4486
15976TIP3   OH269418   1.025   0.069   0.814 -0.0412 -0.0490 -0.3676
15976TIP3    H169419   1.022  -0.021   0.781 -1.2521  0.5536 -2.0327
15976TIP3    H269420   1.052   0.121   0.738  0.5749  1.0137  0.5513
15977TIP3   OH269421   4.383   1.322   5.429 -0.2342  0.3120 -0.4409
15977TIP3    H169422   4.469   1.347   5.395 -0.7805  1.4470 -1.0728
15977TIP3    H269423   4.398   1.241   5.477  0.8977 -0.4329 -1.9577
15978TIP3   OH269424   4.008   4.980  11.099  1.0392  0.1132 -0.6925
15978TIP3    H169425   4.002   4.904  11.041  0.2516  0.0049 -0.4732
15978TIP3    H269426   4.036   4.943  11.183  0.3473  0.0156 -0.4994
15979TIP3   OH269427   4.625   4.955  13.153  0.1367  0.0380 -0.3494
15979TIP3    H169428   4.660   4.914  13.074  1.0844  0.2850 -0.0648
15979TIP3    H269429   4.538   4.984  13.127  0.2118 -0.3961 -1.1343
15980TIP3   OH269430   3.656   5.548   3.505  0.2566  0.4921  0.2127
15980TIP3    H169431   3.747   5.520   3.506 -0.2528 -1.3226 -0.7097
15980TIP3    H269432   3.621   5.514   3.422 -1.4533  0.5530  0.8674
15981TIP3   OH269433   5.283   4.856  14.743 -0.2014  0.2369 -0.0126
15981TIP3    H169434   5.210   4.836  14.801  0.9079 -0.7940  1.0880
15981TIP3    H269435   5.279   4.951  14.733 -1.0358  0.3220  0.9188
15982TIP3   OH269436   1.274   6.430  13.299 -0.2238  0.2441 -0.2790
15982TIP3    H169437   1.305   6.500  13.357 -0.4545 -0.1265  0.3028
15982TIP3    H269438   1.206   6.386  13.349 -0.0340 -0.4399 -0.6089
15983TIP3   OH269439   6.253   0.080  13.122 -0.0186  0.0181 -0.2532
15983TIP3    H169440   6.319   0.146  13.103 -0.5143  0.2702 -1.1833
15983TIP3    H269441   6.290  -0.002  13.089  0.1362  0.0244 -0.0966
15984TIP3   OH269442   3.464   6.345   5.713 -0.0169  0.2588  0.4162
15984TIP3    H169443   3.545   6.344   5.765 -1.1462 -1.6518  2.2904
15984TIP3    H269444   3.475   6.419   5.654  2.1537  1.4478  2.1358
15985TIP3   OH269445   3.889   0.511  16.258 -0.6021  0.1206  0.2345
15985TIP3    H169446   3.852   0.426  16.279 -0.4983 -0.1295 -0.5907
15985TIP3    H269447   3.875   0.522  16.164 -0.6377  1.0219  0.3368
15986TIP3   OH269448   2.534   5.221   6.082  0.3228  0.3305 -0.4769
15986TIP3    H169449   2.627   5.212   6.104  0.3567 -1.4501 -1.1820
15986TIP3    H269450   2.495   5.138   6.110 -0.9353  0.7901 -0.8107
15987TIP3   OH269451   0.752   5.259   1.096  0.0969  0.2768 -0.0920
15987TIP3    H169452   0.696   5.307   1.157 -0.4968  0.0800 -0.4747
15987TIP3    H269453   0.783   5.183   1.146 -1.0841 -0.3534 -0.2942
15988TIP3   OH269454   4.594   0.526   3.817 -0.4869  0.0363 -0.1506
15988TIP3    H169455   4.554   0.453   3.769  1.4846 -0.9752 -0.3271
15988TIP3    H269456   4.567   0.603   3.767 -0.0701 -0.8230 -1.8100
15989TIP3   OH269457   0.982   4.177   3.072  0.4954  0.0700  0.3319
15989TIP3    H169458   0.888   4.162   3.079  0.2534  0.9220 -0.7503
15989TIP3    H269459   1.021   4.113   3.130 -0.8126  0.6935  1.9746
15990TIP3   OH269460   4.248   2.014  12.462 -0.3085  0.3552 -0.6222
15990TIP3    H169461   4.273   2.034  12.553  0.0961  1.4093 -0.9411
15990TIP3    H269462   4.326   1.973  12.425 -0.6104 -0.4392 -0.3902
15991TIP3   OH269463   0.046   0.924  16.673  0.0688 -0.0558 -0.1524
15991TIP3    H169464  -0.018   0.855  16.693 -1.6097  1.7852  1.1783
15991TIP3    H269465   0.003   1.005  16.701  2.7280  1.3595  0.0917
15992TIP3   OH269466   3.971   1.120   0.881  0.0255  0.6124  0.9634
15992TIP3    H169467   3.960   1.175   0.804  2.2230  0.1604  0.2434
15992TIP3    H269468   3.994   1.181   0.951 -1.2555  0.9474  1.1185
15993TIP3   OH269469   4.690   2.887  16.900 -0.4603  0.5146 -0.1672
15993TIP3    H169470   4.667   2.895  16.993 -0.3369  2.6998 -0.2696
15993TIP3    H269471   4.664   2.798  16.876  0.1216 -0.3413  2.1141
15994TIP3   OH269472   5.110   3.799   4.169 -0.3565  0.4754  0.0497
15994TIP3    H169473   5.204   3.810   4.188 -0.2024 -1.1862  0.3764
15994TIP3    H269474   5.067   3.857   4.231  0.4278  0.6197  0.4827
15995TIP3   OH269475   4.583   0.964   1.780  0.0308  0.5889  0.0914
15995TIP3    H169476   4.583   1.032   1.713  1.5286  0.5805  0.0456
15995TIP3    H269477   4.621   1.006   1.857 -0.7286  0.3048  0.6366
15996TIP3   OH269478   3.657   6.033   1.237 -0.4305 -0.0767  0.1448
15996TIP3    H169479   3.627   6.068   1.320 -0.4806  1.1734 -0.3771
15996TIP3    H269480   3.598   6.071   1.172  0.6498  0.3410 -0.6232
15997TIP3   OH269481   3.145   1.762   3.891  0.6103 -0.2200 -0.0063
15997TIP3    H169482   3.234   1.743   3.922  0.8120 -0.0204 -0.4491
15997TIP3    H269483   3.158   1.796   3.802  0.1439  0.3974  0.1516
15998TIP3   OH269484   5.774   1.377  16.643 -0.8507 -0.2681 -0.1061
15998TIP3    H169485   5.743   1.295  16.604 -1.8486  0.7254 -1.4760
15998TIP3    H269486   5.828   1.417  16.576  0.2371 -0.1165  0.8333
15999TIP3   OH269487   4.960   5.616   3.653 -0.0797 -0.2088  0.2632
15999TIP3    H169488   4.991   5.535   3.694  0.4173  0.3963  1.1178
15999TIP3    H269489   4.993   5.685   3.710  0.7186  0.6792 -1.2307
16000TIP3   OH269490   2.726   3.749  12.925 -0.3647 -0.4034 -0.3773
16000TIP3    H169491   2.735   3.844  12.920 -0.7433 -0.3302  0.2035
16000TIP3    H269492   2.770   3.725  13.006 -1.5793 -0.5343  0.2727
16001TIP3   OH269493   4.153   2.851  16.108 -0.0987 -0.1150  0.1356
16001TIP3    H169494   4.236   2.899  16.104 -0.4401  0.5561  0.8822
16001TIP3    H269495   4.159   2.801  16.190 -0.0389 -0.8239 -0.2888
16002TIP3   OH269496   4.345   2.356  12.412  0.0530 -0.2404 -0.4518
16002TIP3    H169497   4.372   2.283  12.467  0.0182  0.5355  0.6218
16002TIP3    H269498   4.250   2.361  12.424  0.3257  1.6392  1.6789
16003TIP3   OH269499   4.862   3.542  16.700  0.1510  0.3591 -0.3939
16003TIP3    H169500   4.908   3.550  16.784  0.5874 -1.5096 -0.4169
16003TIP3    H269501   4.778   3.585  16.714  0.9928  1.8598  0.3514
16004TIP3   OH269502   5.992   4.646   0.883 -0.3780  0.3021 -0.0943
16004TIP3    H169503   6.057   4.705   0.922 -0.1878  0.1008 -0.1087
16004TIP3    H269504   6.026   4.558   0.899  0.0167  0.2282 -1.2491
16005TIP3   OH269505   0.681   0.851  14.539 -0.7409 -0.6003  0.7716
16005TIP3    H169506   0.703   0.828  14.629 -0.7252  1.8389  1.4549
16005TIP3    H269507   0.589   0.875  14.541 -0.8190 -0.7991  0.0558
16006TIP3   OH269508   4.307   5.785  13.754  0.3632  0.8870 -0.0917
16006TIP3    H169509   4.315   5.690  13.768  0.3330  0.8206 -0.5147
16006TIP3    H269510   4.222   5.807  13.791  0.7184  0.8876  0.7312
16007TIP3   OH269511   2.049   5.157  13.455 -0.0179 -0.5187 -0.4749
16007TIP3    H169512   2.087   5.245  13.459  0.4994 -0.7601  0.1368
16007TIP3    H269513   1.998   5.149  13.535  0.7824 -1.1371 -0.0020
16008TIP3   OH269514   6.389   1.738   2.085  0.4393 -0.7405  0.3952
16008TIP3    H169515   6.476   1.705   2.062 -0.3562 -2.4311 -0.3740
16008TIP3    H269516   6.342   1.661   2.116 -1.5945 -0.4420 -1.6944
16009TIP3   OH269517   2.182   3.870  14.498  0.2328  0.5505 -0.4277
16009TIP3    H169518   2.161   3.905  14.412  1.0518  2.3228  0.0511
16009TIP3    H269519   2.273   3.841  14.491 -0.7167 -2.7896 -1.1535
16010TIP3   OH269520   6.423   5.253   2.099 -0.4816 -0.2300 -0.2930
16010TIP3    H169521   6.372   5.333   2.112  0.2488  0.1058  0.6717
16010TIP3    H269522   6.511   5.284   2.077  0.0491 -0.7256  1.0116
16011TIP3   OH269523   6.225   5.816  14.613 -0.2288  0.0968 -0.0014
16011TIP3    H169524   6.308   5.836  14.568  0.6874  0.8339  1.9132
16011TIP3    H269525   6.173   5.770  14.547  1.2706  0.5908 -1.6118
16012TIP3   OH269526   1.762   2.065   1.642 -0.1034  0.2815  0.0599
16012TIP3    H169527   1.842   2.042   1.689 -1.2840 -1.3338  1.3701
16012TIP3    H269528   1.734   1.984   1.599 -1.8731  0.3603  0.9528
16013TIP3   OH269529   6.180   4.678   5.229 -0.3597  0.1914 -0.7189
16013TIP3    H169530   6.140   4.706   5.311  0.6782  0.8117 -0.4097
16013TIP3    H269531   6.273   4.668   5.249  0.0029  0.8577 -1.9354
16014TIP3   OH269532   4.970   4.532  14.835 -0.6826 -0.1991 -0.1470
16014TIP3    H169533   4.897   4.470  14.830 -1.0859  0.2455  0.1994
16014TIP3    H269534   5.038   4.485  14.883 -1.3599 -0.0154  1.0122
16015TIP3   OH269535   4.033   5.900   5.798  0.0421 -0.1615  0.6178
16015TIP3    H169536   3.949   5.855   5.812 -0.6428  0.5718 -0.9167
16015TIP3    H269537   4.094   5.830   5.773 -0.9302 -0.3603 -1.4345
16016TIP3   OH269538   5.622   2.040  11.993 -0.3435  0.2210  0.2738
16016TIP3    H169539   5.658   2.068  12.077  0.3068 -0.7011  0.3121
16016TIP3    H269540   5.552   2.103  11.975 -0.5541  0.3804  1.5524
16017TIP3   OH269541   3.528   5.700  14.729 -0.2669 -0.5240 -0.0005
16017TIP3    H169542   3.510   5.753  14.808 -3.7604  1.0844 -1.6278
16017TIP3    H269543   3.576   5.759  14.671 -1.1630 -0.2807 -0.5169
16018TIP3   OH269544   3.214   3.972   5.849 -0.0928  0.3252  0.0345
16018TIP3    H169545   3.156   3.997   5.921  0.1774  0.5027  0.1904
16018TIP3    H269546   3.244   4.054   5.812  0.6108  0.2411  0.4000
16019TIP3   OH269547   6.767   3.356  14.366  0.3389 -0.1405  0.4996
16019TIP3    H169548   6.810   3.363  14.281 -2.1330 -0.0999 -0.8581
16019TIP3    H269549   6.724   3.440  14.379 -0.8512 -0.7741  0.8601
16020TIP3   OH269550   2.651   3.800   1.623  0.1296  0.4533 -0.0920
16020TIP3    H169551   2.627   3.792   1.715 -1.0496 -0.4128 -0.4478
16020TIP3    H269552   2.629   3.715   1.585  2.0687  0.2465 -0.8720
16021TIP3   OH269553   1.038   4.358  11.379  0.5029  0.2149 -0.0086
16021TIP3    H169554   1.114   4.405  11.345  0.1712  0.5463 -0.3030
16021TIP3    H269555   0.964   4.416  11.362  0.1884 -0.0853  0.3139
16022TIP3   OH269556   0.953   1.455  14.309 -0.1397  0.1843 -0.6614
16022TIP3    H169557   0.907   1.534  14.338  0.4285  0.4571 -0.5009
16022TIP3    H269558   0.929   1.446  14.216 -1.8479 -0.6116 -0.1950
16023TIP3   OH269559   0.668   5.652  10.456 -0.2269  0.0241 -0.7022
16023TIP3    H169560   0.653   5.582  10.393  1.0604 -0.8778 -0.0487
16023TIP3    H269561   0.583   5.665  10.499 -0.8753 -0.0047 -1.9252
16024TIP3   OH269562   1.146   3.849  16.754  0.9214  0.2393  0.4743
16024TIP3    H169563   1.096   3.774  16.720  0.4888  0.7110  0.0628
16024TIP3    H269564   1.218   3.859  16.692  0.6084  0.5729  0.1637
16025TIP3   OH269565   0.501   5.989   6.191 -0.1496 -0.0136 -0.6337
16025TIP3    H169566   0.529   5.909   6.234  0.1277 -0.8084 -2.2175
16025TIP3    H269567   0.545   5.987   6.106  0.3890  2.1440 -0.4739
16026TIP3   OH269568   2.483   1.480   6.645  0.3754 -0.3625 -0.1273
16026TIP3    H169569   2.514   1.392   6.624  0.5136 -0.4802  0.5403
16026TIP3    H269570   2.399   1.488   6.601 -0.9996 -1.8699  2.0220
16027TIP3   OH269571   1.857   3.635  13.499  0.0915  0.6547  0.1502
16027TIP3    H169572   1.859   3.723  13.536 -0.7263  0.8067 -0.1591
16027TIP3    H269573   1.845   3.648  13.405  0.6022  0.2287  0.0218
16028TIP3   OH269574   3.295   5.961  16.609  0.1708 -0.0583  0.2823
16028TIP3    H169575   3.379   5.991  16.575 -0.4759 -1.0952 -2.4977
16028TIP3    H269576   3.249   6.041  16.634  0.6075  0.8524 -1.6548
16029TIP3   OH269577   4.518   1.415   3.532 -0.1854 -0.3004  0.5620
16029TIP3    H169578   4.567   1.424   3.451 -1.5738 -0.4330 -0.3288
16029TIP3    H269579   4.568   1.466   3.596  1.2694 -0.7086 -0.2000
16030TIP3   OH269580   3.954   2.660   5.821 -0.0518  0.0594 -0.3024
16030TIP3    H169581   4.004   2.626   5.746  0.5280 -1.4566  0.7242
16030TIP3    H269582   3.865   2.628   5.806  0.4808 -2.0525  0.6415
16031TIP3   OH269583   3.822   5.994  13.758  0.0913 -0.0900  0.2582
16031TIP3    H169584   3.780   6.051  13.694 -0.3207 -1.7354 -1.0028
16031TIP3    H269585   3.757   5.986  13.829  1.2647  3.2105  1.9052
16032TIP3   OH269586   0.319   1.784   5.829 -0.6016  0.0136  0.6663
16032TIP3    H169587   0.409   1.763   5.856 -0.3104  0.6565  0.2352
16032TIP3    H269588   0.275   1.810   5.909  0.7406  3.6712  0.4215
16033TIP3   OH269589   6.189   2.258   5.101  0.4000  0.2695 -0.5355
16033TIP3    H169590   6.205   2.191   5.168  1.4376  0.1121 -0.9268
16033TIP3    H269591   6.110   2.303   5.130 -1.4911 -2.3772 -1.2482
16034TIP3   OH269592   2.226   4.555   0.442  0.0035  0.7870 -0.2468
16034TIP3    H169593   2.256   4.540   0.352 -0.3052  2.3682 -0.6489
16034TIP3    H269594   2.302   4.593   0.486 -0.4671  2.0359 -0.4602
16035TIP3   OH269595   1.031   0.091  16.919  0.5930 -0.0169 -0.8437
16035TIP3    H169596   0.984   0.054  16.844  1.2684 -3.5304  0.2977
16035TIP3    H269597   1.118   0.110  16.885  0.2269  0.6540 -1.4558
16036TIP3   OH269598   5.381   0.979   5.467 -0.1555  0.3684  0.0505
16036TIP3    H169599   5.475   0.981   5.486  0.0542  1.4616 -1.0085
16036TIP3    H269600   5.342   0.936   5.544  1.4852 -2.8127 -0.7071
16037TIP3   OH269601   3.259   5.919   0.247  0.2915  0.3701 -0.0777
16037TIP3    H169602   3.177   5.967   0.263 -1.8806 -3.0604  0.0571
16037TIP3    H269603   3.262   5.906   0.152 -0.3561 -1.0550  0.0690
16038TIP3   OH269604   2.106   6.378   4.284  0.0977 -0.8966  0.2287
16038TIP3    H169605   2.144   6.364   4.371 -0.5437 -1.8176  0.3772
16038TIP3    H269606   2.075   6.468   4.286  1.5347 -0.3729  0.3819
16039TIP3   OH269607   0.717   2.798   4.108  0.0857 -0.5772  0.8839
16039TIP3    H169608   0.697   2.776   4.017 -0.7142  1.4363  0.5364
16039TIP3    H269609   0.793   2.743   4.129  0.4943 -0.8527 -1.0811
16040TIP3   OH269610   1.872   5.070  12.248 -0.0534 -0.1178 -0.0790
16040TIP3    H169611   1.874   4.983  12.209 -1.0977 -1.2095  2.1032
16040TIP3    H269612   1.779   5.088  12.262  0.2332  0.1310  1.8979
16041TIP3   OH269613   1.743   5.380  17.385  0.1362 -0.0784 -0.3896
16041TIP3    H169614   1.802   5.448  17.351 -0.0782 -0.2638 -1.1441
16041TIP3    H269615   1.775   5.299  17.347  0.0035 -0.3231  0.0091
16042TIP3   OH269616   1.649   2.944  12.028  0.0142  0.2355 -0.1963
16042TIP3    H169617   1.564   2.971  11.992 -1.6888 -2.0033  1.7948
16042TIP3    H269618   1.668   3.008  12.096 -1.1471 -0.3676  0.7234
16043TIP3   OH269619   3.618   4.257   0.235 -0.3959  0.1176 -0.0616
16043TIP3    H169620   3.531   4.283   0.205 -0.5777 -0.9091 -0.4725
16043TIP3    H269621   3.659   4.218   0.157 -0.2988 -1.1850  0.6100
16044TIP3   OH269622   3.164   2.232   0.603  0.0998 -0.2628  0.5319
16044TIP3    H169623   3.202   2.255   0.518 -0.4884  2.5324  0.9353
16044TIP3    H269624   3.237   2.244   0.665  0.1287 -0.8205  0.6100
16045TIP3   OH269625   5.611   3.725   0.490 -0.0276  0.1407 -0.0545
16045TIP3    H169626   5.607   3.811   0.449  0.4574  0.6628  0.9713
16045TIP3    H269627   5.535   3.678   0.455  1.6580 -0.3241 -3.4468
16046TIP3   OH269628   0.585   2.114  13.880  0.0977  0.5877  0.0492
16046TIP3    H169629   0.661   2.108  13.823  1.0402  1.6895  1.1524
16046TIP3    H269630   0.513   2.140  13.822  0.7400  0.4242 -0.8378
16047TIP3   OH269631   3.888   1.604  14.868  0.5503 -0.1835  0.7427
16047TIP3    H169632   3.885   1.638  14.957 -1.1149 -0.0084  0.6406
16047TIP3    H269633   3.872   1.510  14.877  2.2317 -0.5067  0.7581
16048TIP3   OH269634   5.088   4.495   0.468  0.0857 -0.8063 -0.1239
16048TIP3    H169635   5.076   4.421   0.408  2.2476 -1.1427 -0.2364
16048TIP3    H269636   5.029   4.563   0.435 -2.9809 -2.8102  0.7416
16049TIP3   OH269637   5.644   0.116   5.825  0.3545 -0.3123 -0.3447
16049TIP3    H169638   5.676   0.142   5.911 -1.0000  0.3697 -0.0193
16049TIP3    H269639   5.706   0.048   5.796  0.0742 -1.5529  1.7416
16050TIP3   OH269640   5.250   3.557   6.339 -0.1324 -0.1293  0.8019
16050TIP3    H169641   5.241   3.619   6.412  1.2398  1.2209 -0.1040
16050TIP3    H269642   5.337   3.519   6.350 -0.3512 -0.7390  0.4795
16051TIP3   OH269643   4.098   1.705   0.529  0.3219 -0.1622 -0.7715
16051TIP3    H169644   4.008   1.687   0.557  0.8401 -1.0011  0.4413
16051TIP3    H269645   4.107   1.656   0.447 -0.9371  1.5952 -2.0287
16052TIP3   OH269646   6.355   6.631  13.010 -0.0731  0.3722 -0.6123
16052TIP3    H169647   6.407   6.580  12.948  0.3139 -0.9134  0.7194
16052TIP3    H269648   6.315   6.566  13.068  2.2520  1.5493  2.5859
16053TIP3   OH269649   4.929   0.675   4.793  0.4589 -0.5302  0.0676
16053TIP3    H169650   4.931   0.728   4.713 -0.7916 -0.5911 -0.0244
16053TIP3    H269651   4.912   0.586   4.762  1.8400 -0.8937  0.2787
16054TIP3   OH269652   6.364   0.414   0.394 -0.2069 -0.1001  0.0695
16054TIP3    H169653   6.300   0.343   0.405 -0.6552  0.3932  0.7227
16054TIP3    H269654   6.398   0.402   0.305 -0.3810 -1.0429  0.1132
16055TIP3   OH269655   2.048   0.618   4.236  0.1696  0.5670  0.1152
16055TIP3    H169656   1.977   0.675   4.207 -0.5370 -0.2873  0.1284
16055TIP3    H269657   2.127   0.672   4.227 -0.5706  1.8704  1.0281
16056TIP3   OH269658   4.463   4.214   3.075 -0.1014  0.5529  0.7302
16056TIP3    H169659   4.426   4.232   3.161  0.3552  1.4973  0.7362
16056TIP3    H269660   4.397   4.247   3.014  0.1510  1.0799  0.7346
16057TIP3   OH269661   0.773   4.690  13.501 -0.4998 -0.2897  0.0660
16057TIP3    H169662   0.827   4.743  13.442 -1.2187  0.5511  0.1333
16057TIP3    H269663   0.796   4.719  13.589 -1.8852  0.9597  0.0610
16058TIP3   OH269664   6.183   2.140  14.071 -0.2235  0.1367 -0.3314
16058TIP3    H169665   6.181   2.236  14.063  0.0507  0.1030 -0.8281
16058TIP3    H269666   6.248   2.112  14.007  2.6257 -0.1385  2.4400
16059TIP3   OH269667   2.194   6.111   2.356  0.5297  0.8595 -0.3209
16059TIP3    H169668   2.170   6.181   2.295  3.1716  1.0218 -1.2973
16059TIP3    H269669   2.285   6.090   2.334 -0.0204 -2.6613  0.1525
16060TIP3   OH269670   1.280   0.030  17.221  0.3942 -0.2359 -0.3475
16060TIP3    H169671   1.202   0.055  17.269  0.5497 -0.4801  0.0369
16060TIP3    H269672   1.253  -0.047  17.170  0.2205  0.0443 -0.6847
16061TIP3   OH269673   6.389   3.384  13.482  0.5258 -0.5965 -0.2699
16061TIP3    H169674   6.446   3.393  13.406  0.4972 -2.8689 -0.6242
16061TIP3    H269675   6.310   3.433  13.459  0.2462 -1.7868 -2.0156
16062TIP3   OH269676   2.434   0.461  13.201 -0.3708 -0.1305  0.0296
16062TIP3    H169677   2.392   0.483  13.118  0.1306 -0.9154 -0.4370
16062TIP3    H269678   2.525   0.442  13.178 -0.3145 -0.7108  0.6981
16063TIP3   OH269679   1.663   1.960  11.782 -0.2522 -0.4364  0.1223
16063TIP3    H169680   1.585   1.920  11.743 -0.0510 -0.1832 -0.5677
16063TIP3    H269681   1.734   1.901  11.759  0.2441  0.8789 -1.9641
16064TIP3   OH269682   2.256   6.077   1.333  0.4223  0.6286  0.4604
16064TIP3    H169683   2.166   6.052   1.355  0.4287  0.1322 -0.0409
16064TIP3    H269684   2.277   6.149   1.392 -0.6002  1.3034  0.0263
16065TIP3   OH269685   2.235   3.968   0.501 -0.4484  0.2576  0.0417
16065TIP3    H169686   2.234   4.037   0.435 -0.0167 -0.0516 -0.2983
16065TIP3    H269687   2.306   3.910   0.473 -0.1249  0.2335  0.8898
16066TIP3   OH269688   4.647   6.297  12.299 -0.1051  0.0785 -0.2840
16066TIP3    H169689   4.628   6.223  12.357 -0.7140  0.3375 -0.1460
16066TIP3    H269690   4.729   6.273  12.255 -0.2308 -0.6146 -0.1458
16067TIP3   OH269691   0.417   0.033  13.274  0.2061  0.3225 -0.1404
16067TIP3    H169692   0.368   0.020  13.193  0.8609 -0.8590 -0.3746
16067TIP3    H269693   0.478   0.104  13.254  0.9580 -0.5349 -0.9868
16068TIP3   OH269694   3.612   6.580  13.761  0.0332 -0.3589  0.8706
16068TIP3    H169695   3.684   6.543  13.711 -0.2495  0.6955 -0.3691
16068TIP3    H269696   3.654   6.648  13.815 -0.0542  0.3934 -0.0008
16069TIP3   OH269697   6.744   6.474   3.680 -0.0938  0.4947  0.2572
16069TIP3    H169698   6.695   6.395   3.703 -1.0617  1.2851  0.9709
16069TIP3    H269699   6.830   6.441   3.651 -1.4690 -1.0094 -2.4796
16070TIP3   OH269700   4.070   1.673  15.360  0.7396  0.3376  0.3216
16070TIP3    H169701   4.107   1.751  15.403  1.4930 -0.6201  1.4735
16070TIP3    H269702   4.043   1.617  15.433  0.3893 -0.5690 -0.4885
16071TIP3   OH269703   2.518   4.654   4.548 -0.0825  0.8752  0.1652
16071TIP3    H169704   2.472   4.703   4.479 -0.3508  0.2775 -0.0909
16071TIP3    H269705   2.456   4.585   4.573 -0.1907  1.3964  1.3718
16072TIP3   OH269706   3.027   4.792   0.891  0.1546 -0.0443  0.9017
16072TIP3    H169707   3.064   4.843   0.963 -0.2226  0.3898  0.7920
16072TIP3    H269708   3.101   4.743   0.856  0.1845 -0.9155  2.1263
16073TIP3   OH269709   3.284   5.951  15.860  0.4368 -0.1307 -0.2490
16073TIP3    H169710   3.299   5.905  15.943  0.5449  0.3963  0.0304
16073TIP3    H269711   3.286   5.882  15.793 -1.7885 -0.8812  0.3770
16074TIP3   OH269712   6.760   1.590  11.940 -0.3870 -0.0712  0.5806
16074TIP3    H169713   6.728   1.566  11.853 -0.5897 -1.2290  0.9537
16074TIP3    H269714   6.852   1.564  11.940  0.1712  1.7883  0.0482
16075TIP3   OH269715   6.107   0.475   1.100  0.6983 -0.3494  0.1320
16075TIP3    H169716   6.183   0.493   1.044 -0.5019  1.2939 -1.0719
16075TIP3    H269717   6.091   0.558   1.145 -1.7149  0.0448 -1.3372
16076TIP3   OH269718   3.045   4.320   4.067  0.4698  0.1398 -0.3973
16076TIP3    H169719   3.040   4.246   4.007 -0.0333 -1.7477  1.8110
16076TIP3    H269720   2.968   4.310   4.124  1.5983  1.0025  1.3738
16077TIP3   OH269721   0.037   3.559  16.109 -0.2511 -0.4794  0.1481
16077TIP3    H169722  -0.059   3.560  16.107 -0.2752 -1.5338 -1.3180
16077TIP3    H269723   0.062   3.608  16.030  0.3967 -0.6810  0.2265
16078TIP3   OH269724   2.914   0.191  11.587 -1.1522  0.1664 -0.4198
16078TIP3    H169725   2.896   0.285  11.596 -0.1813  0.3312 -0.0801
16078TIP3    H269726   2.965   0.185  11.507  1.1675  0.2969  0.9774
16079TIP3   OH269727   1.507   5.613   2.566 -0.0290  0.6247 -0.1744
16079TIP3    H169728   1.533   5.701   2.594 -1.9120  1.1465  0.0994
16079TIP3    H269729   1.439   5.587   2.629 -1.3002  0.0503 -1.7188
16080TIP3   OH269730   0.319   5.835  15.607  0.0092 -0.1883  0.0338
16080TIP3    H169731   0.404   5.795  15.626  0.4359  0.8136  0.3319
16080TIP3    H269732   0.258   5.791  15.667  0.5141 -0.1884  0.5626
16081TIP3   OH269733   1.058   4.951   5.513 -0.3385  0.6344  0.2009
16081TIP3    H169734   1.056   5.046   5.524  0.7863  0.5186  1.6131
16081TIP3    H269735   0.968   4.928   5.489 -0.3379  2.1714 -1.5693
16082TIP3   OH269736   5.004   4.306   6.165 -0.0217  0.0743  0.2895
16082TIP3    H169737   4.938   4.366   6.199  0.9058  1.1477  0.2677
16082TIP3    H269738   5.087   4.344   6.194  0.6870 -0.1301 -1.3849
16083TIP3   OH269739   6.054   0.075  16.105  0.6775 -0.5019  0.0207
16083TIP3    H169740   6.076   0.160  16.066 -1.9066 -0.5082 -1.7340
16083TIP3    H269741   6.026   0.095  16.194  1.8673  0.2167  0.2437
16084TIP3   OH269742   5.432   5.788  12.677  0.4507  0.5849  0.7618
16084TIP3    H169743   5.392   5.704  12.695  2.3941 -0.0907  2.3573
16084TIP3    H269744   5.423   5.800  12.583  0.6837 -1.7285  0.3864
16085TIP3   OH269745   3.677   1.185   3.916  0.6369  0.2908  0.0513
16085TIP3    H169746   3.765   1.154   3.939  0.8497 -0.4264 -1.5495
16085TIP3    H269747   3.645   1.121   3.853 -0.8775  0.7877  0.2663
16086TIP3   OH269748   5.797   1.179  11.203  0.0759 -0.6418 -0.0994
16086TIP3    H169749   5.711   1.198  11.164 -0.8071 -2.4273  0.8387
16086TIP3    H269750   5.801   1.234  11.281  0.8213  1.1560 -1.3412
16087TIP3   OH269751   1.230   0.483  16.139 -0.2480 -0.2865  0.0305
16087TIP3    H169752   1.177   0.404  16.144  0.5245 -0.8098  0.1312
16087TIP3    H269753   1.181   0.542  16.081 -1.7331 -0.1202  1.3911
16088TIP3   OH269754   4.113   4.144  17.440  0.2691 -0.3237 -0.7040
16088TIP3    H169755   4.149   4.060  17.467 -1.7946 -0.9559  0.3178
16088TIP3    H269756   4.107   4.138  17.344  1.7341 -0.6187 -0.8017
16089TIP3   OH269757   3.970   5.350  13.150  0.0047  0.3541 -0.4395
16089TIP3    H169758   3.919   5.422  13.186  1.2727 -0.4624  3.4477
16089TIP3    H269759   3.954   5.354  13.056 -3.5951  2.8135  0.0911
16090TIP3   OH269760   3.966   0.043   4.012 -0.3660 -0.4851  0.3793
16090TIP3    H169761   3.907   0.115   4.032  2.4186  1.3784  2.6368
16090TIP3    H269762   3.947  -0.024   4.077 -0.0070  0.1208  1.1169
16091TIP3   OH269763   0.059   2.889   3.591  0.2331  0.1195  0.1011
16091TIP3    H169764   0.099   2.954   3.533 -1.3837  2.0367  1.0104
16091TIP3    H269765   0.031   2.818   3.533  2.0277  0.1940 -0.9320
16092TIP3   OH269766   2.789   3.896   5.872  0.2621  0.1663  0.2161
16092TIP3    H169767   2.803   3.807   5.904  1.2428  0.6656  1.2380
16092TIP3    H269768   2.864   3.946   5.903 -0.8074  1.6073  0.6292
16093TIP3   OH269769   4.595   1.174   1.383  0.0551  0.4699  0.6219
16093TIP3    H169770   4.595   1.261   1.342  1.7066  0.3584  0.3266
16093TIP3    H269771   4.633   1.187   1.469  0.2360  0.0610  0.6085
16094TIP3   OH269772   0.665   3.040   1.115 -0.4400  0.3806  0.0582
16094TIP3    H169773   0.753   3.047   1.078  0.1047  0.3288  1.3115
16094TIP3    H269774   0.657   2.947   1.139 -1.9035 -0.2707 -2.5661
16095TIP3   OH269775   0.679   4.798   1.261  0.2093  0.1035 -0.1157
16095TIP3    H169776   0.678   4.884   1.303 -0.8599 -0.0966  0.2702
16095TIP3    H269777   0.721   4.741   1.324 -0.3061  0.0557  0.1824
16096TIP3   OH269778   5.812   2.412  13.690 -0.2587 -0.1628 -0.3737
16096TIP3    H169779   5.864   2.338  13.659 -0.8948 -2.7479  3.9826
16096TIP3    H269780   5.729   2.404  13.644 -0.1908 -2.0036 -0.2220
16097TIP3   OH269781   2.330   2.112   5.388 -0.2219  0.3251  0.1539
16097TIP3    H169782   2.363   2.099   5.299  0.7258 -0.8833  0.6486
16097TIP3    H269783   2.241   2.077   5.385  0.1270 -0.5804 -0.1060
16098TIP3   OH269784   1.949   1.381  17.057  0.1309 -0.2486 -0.1920
16098TIP3    H169785   1.948   1.287  17.072  2.3472 -0.3063 -0.1268
16098TIP3    H269786   2.009   1.394  16.984  1.3928  1.2233  1.0111
16099TIP3   OH269787   3.904   4.930   4.907 -0.4995 -0.8126 -0.3971
16099TIP3    H169788   3.916   4.837   4.892 -0.7448 -0.7870 -0.7691
16099TIP3    H269789   3.825   4.937   4.961  0.3265 -0.8992  0.8759
16100TIP3   OH269790   3.048   0.324  15.241 -0.0597 -0.4996  0.3013
16100TIP3    H169791   3.057   0.230  15.253  0.9828 -0.3296  1.0256
16100TIP3    H269792   3.090   0.343  15.157  1.0051 -0.5068  0.8219
16101TIP3   OH269793   0.691   4.805  13.188 -0.7563 -0.7885 -0.0707
16101TIP3    H169794   0.770   4.859  13.195 -1.6213  0.5622 -0.2039
16101TIP3    H269795   0.710   4.744  13.117  0.2032 -0.5418 -0.0378
16102TIP3   OH269796   6.449   0.124   0.961 -0.4424 -0.1560 -0.4501
16102TIP3    H169797   6.432   0.214   0.934 -1.2626 -1.2106 -4.0158
16102TIP3    H269798   6.545   0.117   0.963 -0.3655  0.9959  0.8015
16103TIP3   OH269799   6.493   4.805  11.957 -0.1419 -0.3532 -0.2020
16103TIP3    H169800   6.453   4.741  12.016 -0.5382 -0.8208 -0.9694
16103TIP3    H269801   6.438   4.805  11.879 -0.9330  1.8741  0.2668
16104TIP3   OH269802   5.065   3.845   3.010 -0.3876  0.2946  0.1346
16104TIP3    H169803   4.984   3.894   2.997 -0.0660  0.4936 -1.3009
16104TIP3    H269804   5.051   3.797   3.091 -1.8773  0.4604  0.0109
16105TIP3   OH269805   6.561   5.583  13.495 -0.5590 -0.5332 -0.5970
16105TIP3    H169806   6.591   5.523  13.427 -0.3452 -0.5772 -0.4669
16105TIP3    H269807   6.626   5.574  13.565 -2.2205 -2.6297  0.8480
16106TIP3   OH269808   4.905   1.355   4.906  0.1753 -0.4413  0.0989
16106TIP3    H169809   4.941   1.280   4.954 -1.4438 -0.5525  1.2409
16106TIP3    H269810   4.982   1.403   4.876  1.3672 -0.1753  3.1504
16107TIP3   OH269811   2.548   0.317   2.315  0.9597 -0.0041  0.0129
16107TIP3    H169812   2.488   0.356   2.251  1.4021 -1.9133 -1.6799
16107TIP3    H269813   2.499   0.244   2.352  1.9383 -1.1442 -0.8702
16108TIP3   OH269814   4.684   5.487  14.397 -0.0427 -0.1754  0.1890
16108TIP3    H169815   4.603   5.487  14.347 -0.1639  1.4394  0.3573
16108TIP3    H269816   4.658   5.455  14.484 -0.4750  0.1827  0.1940
16109TIP3   OH269817   2.626   0.415   1.240 -0.1439  0.9367 -0.6676
16109TIP3    H169818   2.679   0.371   1.173  0.5238 -0.1520  0.5323
16109TIP3    H269819   2.536   0.398   1.214  0.0951 -1.3790 -0.1344
16110TIP3   OH269820   5.534   2.124  16.220  0.3413 -0.1597  0.7393
16110TIP3    H169821   5.459   2.125  16.280  0.1783  0.4921  0.5281
16110TIP3    H269822   5.609   2.105  16.276  0.0780 -0.4196  1.0153
16111TIP3   OH269823   1.616   0.901   2.269 -0.1528 -0.1688 -0.6102
16111TIP3    H169824   1.594   0.992   2.245  0.4082  0.1142 -0.0821
16111TIP3    H269825   1.569   0.848   2.205 -2.1040  0.4236  0.2632
16112TIP3   OH269826   3.409   1.948   1.250 -0.3801 -0.0126  0.2482
16112TIP3    H169827   3.325   1.952   1.296 -0.4017 -0.0458  0.2115
16112TIP3    H269828   3.454   2.029   1.273 -1.0291  0.7040 -0.9164
16113TIP3   OH269829   5.106   2.184  15.666  0.3074 -0.3559 -0.2601
16113TIP3    H169830   5.127   2.215  15.578 -1.6620 -2.9689 -1.7900
16113TIP3    H269831   5.187   2.143  15.696  1.0157  0.5928 -0.7816
16114TIP3   OH269832   2.962   4.501   1.448 -0.2972  0.0351  0.6428
16114TIP3    H169833   2.874   4.487   1.482 -0.5497 -1.6784 -0.5844
16114TIP3    H269834   2.995   4.413   1.430  1.0409  0.7183 -0.4603
16115TIP3   OH269835   5.262   3.800  13.214 -0.3312 -0.1490 -0.1294
16115TIP3    H169836   5.276   3.727  13.154 -2.4381  0.0029 -0.9100
16115TIP3    H269837   5.182   3.843  13.182  1.1693  2.9367 -0.1092
16116TIP3   OH269838   4.359   6.281  17.307 -0.2953 -0.0389  0.4434
16116TIP3    H169839   4.403   6.309  17.387  0.6674 -0.3527  0.0434
16116TIP3    H269840   4.379   6.187  17.300  0.5238  0.2000 -0.6965
16117TIP3   OH269841   0.558   1.761  11.406  0.4608 -0.2961 -0.0047
16117TIP3    H169842   0.481   1.802  11.445  0.2045 -0.9483  0.1911
16117TIP3    H269843   0.535   1.751  11.314  0.3566 -0.3826  0.0303
16118TIP3   OH269844   3.817   5.082   3.818  0.2696 -0.1186 -0.1161
16118TIP3    H169845   3.912   5.088   3.807  0.0848 -0.9904 -2.7801
16118TIP3    H269846   3.794   5.164   3.863  2.3826 -0.5653  2.0263
16119TIP3   OH269847   1.800   6.339  16.092  0.2180 -0.4549  0.1836
16119TIP3    H169848   1.768   6.416  16.138  0.4503 -0.2522  0.0101
16119TIP3    H269849   1.877   6.312  16.141  0.0587 -0.6571  0.3217
16120TIP3   OH269850   1.488   4.814  13.467 -0.0009 -0.6330  0.3107
16120TIP3    H169851   1.474   4.901  13.430 -1.0738 -1.0371 -0.2708
16120TIP3    H269852   1.583   4.802  13.465  0.3245  1.1684  1.9392
16121TIP3   OH269853   6.746   1.075  15.934 -0.1556  0.1990  0.2268
16121TIP3    H169854   6.683   1.121  15.989 -0.0948 -0.2891  0.7187
16121TIP3    H269855   6.703   1.068  15.848 -1.8038 -2.1231  1.1198
16122TIP3   OH269856   2.458   2.275   1.472 -0.1829 -1.0417 -0.8290
16122TIP3    H169857   2.372   2.316   1.459  1.2008  3.0807  1.1564
16122TIP3    H269858   2.503   2.288   1.388 -0.7039 -1.0498 -1.1144
16123TIP3   OH269859   5.143   4.841  11.527  0.1757 -0.3232  0.2126
16123TIP3    H169860   5.066   4.791  11.501  0.0091 -0.7794  1.5118
16123TIP3    H269861   5.153   4.907  11.459 -1.7698  0.1884  0.3540
16124TIP3   OH269862   0.629   6.409  12.900  0.2651 -0.1646  0.9108
16124TIP3    H169863   0.609   6.412  12.994  2.5816  0.0091  1.4448
16124TIP3    H269864   0.724   6.419  12.895  0.4323 -2.0241 -1.3682
16125TIP3   OH269865   6.223   0.546  16.303 -0.6558  0.5389 -0.6880
16125TIP3    H169866   6.158   0.590  16.359 -0.3165  0.3217 -0.1218
16125TIP3    H269867   6.273   0.491  16.363  1.0433  1.8202 -0.8392
16126TIP3   OH269868   6.366   0.870   5.862  0.5228  0.1242  0.3528
16126TIP3    H169869   6.317   0.820   5.927  0.8527 -1.4622 -0.5642
16126TIP3    H269870   6.449   0.823   5.852  0.4357  0.2431 -1.2787
16127TIP3   OH269871   2.690   1.277   0.926 -0.3191 -0.6599  0.4113
16127TIP3    H169872   2.782   1.262   0.904 -0.3110 -1.7628  1.0843
16127TIP3    H269873   2.685   1.259   1.020 -0.5665  2.7439  1.1459
16128TIP3   OH269874   0.161   5.834  11.417 -0.1029  0.0945  0.0522
16128TIP3    H169875   0.089   5.896  11.403 -1.3010 -1.0578  0.8758
16128TIP3    H269876   0.122   5.762  11.466  1.3177 -1.2049 -0.6314
16129TIP3   OH269877   3.949   3.985  16.217  0.3289 -0.0168  0.8566
16129TIP3    H169878   3.911   4.057  16.268  0.8878  0.6990  0.2713
16129TIP3    H269879   3.954   3.913  16.280 -1.2738  0.0851  1.1588
16130TIP3   OH269880   5.873   2.228   1.856 -0.5572 -0.3384 -0.3308
16130TIP3    H169881   5.885   2.321   1.836 -0.6843 -0.6535 -2.0512
16130TIP3    H269882   5.958   2.188   1.837 -0.8081 -0.7343 -0.6292
16131TIP3   OH269883   1.489   6.028   3.222  0.3233 -0.1601 -0.4316
16131TIP3    H169884   1.401   6.040   3.187  0.4434  0.1489 -0.6279
16131TIP3    H269885   1.487   6.072   3.307  0.7584  1.3032 -1.1394
16132TIP3   OH269886   6.595   5.889   1.826  0.7058 -1.1244  0.4277
16132TIP3    H169887   6.539   5.862   1.899  0.8769 -2.3814  0.1195
16132TIP3    H269888   6.616   5.807   1.781 -0.4194 -0.2774 -1.7787
16133TIP3   OH269889   0.125   0.201  13.508 -0.1724  0.3523  0.0975
16133TIP3    H169890   0.139   0.116  13.468 -4.0053 -0.6487  0.4198
16133TIP3    H269891   0.177   0.200  13.588  1.0561 -1.0199 -0.6736
16134TIP3   OH269892   5.728   1.665  10.753 -0.2815 -0.1964 -0.4419
16134TIP3    H169893   5.813   1.639  10.789  0.3763 -0.8735 -2.3290
16134TIP3    H269894   5.693   1.584  10.715 -1.5207  0.1991 -0.1696
16135TIP3   OH269895   3.828   3.184   4.306 -0.5114 -0.0903 -0.3505
16135TIP3    H169896   3.880   3.132   4.244  3.6658  1.2370  1.6583
16135TIP3    H269897   3.830   3.133   4.387  0.0739  1.2465  0.5094
16136TIP3   OH269898   0.483   4.844  14.337 -0.0224  0.1256 -0.4977
16136TIP3    H169899   0.473   4.759  14.381  0.3059  1.0878  1.5341
16136TIP3    H269900   0.575   4.867  14.349 -0.6172  1.8729  1.2039
16137TIP3   OH269901   5.893   1.660   4.753 -0.1958  0.1764  0.5680
16137TIP3    H169902   5.955   1.587   4.746  0.9597  1.0866  0.9094
16137TIP3    H269903   5.859   1.655   4.842 -0.3404 -0.1059  0.4992
16138TIP3   OH269904   4.678   1.604  16.593  0.4846  0.7110  0.0053
16138TIP3    H169905   4.646   1.694  16.602  1.0584  0.8468  0.7808
16138TIP3    H269906   4.635   1.556  16.664  0.1021  0.3412 -0.4679
16139TIP3   OH269907   5.582   4.932   6.702 -0.0724  0.1459  0.0787
16139TIP3    H169908   5.596   4.848   6.746  0.4838  1.1512  1.9187
16139TIP3    H269909   5.492   4.955   6.722 -0.2310 -0.0009 -0.4426
16140TIP3   OH269910   0.459   4.476   1.168 -0.4745 -0.5944  0.3135
16140TIP3    H169911   0.457   4.384   1.141 -0.4323 -0.0254 -1.7925
16140TIP3    H269912   0.474   4.524   1.087 -0.8979  1.3114  1.3220
16141TIP3   OH269913   6.236   4.896   5.843  0.1527  0.0454  0.4003
16141TIP3    H169914   6.218   4.938   5.759 -0.5911 -0.9332  0.0594
16141TIP3    H269915   6.213   4.804   5.830  1.4729 -0.4261  1.2235
16142TIP3   OH269916   0.532   4.550  11.737 -0.1454  0.0751 -0.0151
16142TIP3    H169917   0.444   4.554  11.698  0.1706 -0.3944 -0.8066
16142TIP3    H269918   0.549   4.457  11.747  0.1156  0.1769  0.4884
16143TIP3   OH269919   2.675   2.251   2.609 -0.0056  0.1355 -0.1752
16143TIP3    H169920   2.727   2.200   2.670  1.7920  1.0598 -0.8661
16143TIP3    H269921   2.739   2.290   2.549 -1.5918  0.3405 -1.8316
16144TIP3   OH269922   5.664   0.889  14.187 -0.3912 -0.0753 -0.0547
16144TIP3    H169923   5.707   0.967  14.152  0.7686 -0.8706 -0.4509
16144TIP3    H269924   5.686   0.890  14.281  0.1106 -0.2215 -0.1672
16145TIP3   OH269925   5.065   2.206   4.735 -0.7658  0.2761  0.2965
16145TIP3    H169926   5.107   2.207   4.649 -2.2596  3.0088 -0.5168
16145TIP3    H269927   4.996   2.140   4.727 -0.7666  0.3618 -0.5486
16146TIP3   OH269928   6.730   5.969   4.032  0.1337  0.0233 -0.0028
16146TIP3    H169929   6.687   5.923   4.104 -0.2585  0.3703 -0.0065
16146TIP3    H269930   6.816   5.927   4.023 -0.5232 -1.2518 -0.5553
16147TIP3   OH269931   5.392   1.053   2.690 -0.1003  0.3848 -0.0027
16147TIP3    H169932   5.473   1.075   2.643 -0.4354  0.7276 -0.4168
16147TIP3    H269933   5.395   0.958   2.698 -0.4119  0.2357 -1.3959
16148TIP3   OH269934   2.701   5.803   0.174 -0.7692 -0.9583 -0.0707
16148TIP3    H169935   2.710   5.733   0.110 -2.5339 -0.0206 -1.4524
16148TIP3    H269936   2.785   5.849   0.172 -0.9382 -0.6310 -2.1775
16149TIP3   OH269937   5.692   6.455  12.807 -0.4295  0.8824 -0.8619
16149TIP3    H169938   5.627   6.439  12.739  1.5193 -0.0639 -2.6263
16149TIP3    H269939   5.721   6.368  12.834  0.1137  1.2805 -0.1297
16150TIP3   OH269940   5.647   6.173   0.090 -0.6625 -0.0235 -0.3092
16150TIP3    H169941   5.708   6.131   0.151  0.7592  0.4663 -1.3491
16150TIP3    H269942   5.625   6.104   0.027 -2.5698 -0.6919  1.0118
16151TIP3   OH269943   4.900   4.444  14.404  0.5217 -0.4566  0.4724
16151TIP3    H169944   4.818   4.474  14.365  0.8309  0.7339  0.7110
16151TIP3    H269945   4.873   4.380  14.469 -0.2512  0.1470  0.7597
16152TIP3   OH269946   3.196   2.400   4.624 -0.5254 -0.0788  0.5549
16152TIP3    H169947   3.216   2.470   4.686 -0.1274 -1.1594  1.7062
16152TIP3    H269948   3.113   2.363   4.656 -0.1037 -0.9150  0.7260
16153TIP3   OH269949   1.496   1.681  12.168 -0.0052  0.0987 -0.2571
16153TIP3    H169950   1.430   1.730  12.217  0.6228  1.2022 -0.4705
16153TIP3    H269951   1.462   1.678  12.078 -1.0788 -1.7839  0.1674
16154TIP3   OH269952   4.744   3.653  13.305 -0.3064 -0.0449  0.2437
16154TIP3    H169953   4.745   3.696  13.220 -2.9393  1.0750  0.6967
16154TIP3    H269954   4.694   3.573  13.291  1.6531 -1.3292  0.1808
16155TIP3   OH269955   5.432   4.141  15.247  0.2291 -0.1659 -0.7615
16155TIP3    H169956   5.498   4.165  15.183 -1.0412  1.4578 -1.5242
16155TIP3    H269957   5.468   4.063  15.290  1.0578 -1.4150 -3.5258
16156TIP3   OH269958   5.928   4.226   2.414  0.0250  0.7458 -0.1317
16156TIP3    H169959   5.867   4.288   2.374  0.0217 -0.0206 -1.4026
16156TIP3    H269960   6.002   4.280   2.442  0.9704  1.1887 -3.0597
16157TIP3   OH269961   1.314   4.905   3.314 -0.3672  0.0274  0.1070
16157TIP3    H169962   1.395   4.855   3.301  0.2421  1.7403 -4.1308
16157TIP3    H269963   1.252   4.866   3.254 -1.6138  0.9755  0.7272
16158TIP3   OH269964   1.804   3.112   2.838  0.8870 -0.1315  0.0134
16158TIP3    H169965   1.788   3.136   2.746  0.4883 -1.4309 -0.2804
16158TIP3    H269966   1.719   3.081   2.870  1.4286 -1.4276  0.2529
16159TIP3   OH269967   5.997   4.285   4.661  0.0208 -0.5043  0.5498
16159TIP3    H169968   5.992   4.201   4.614 -2.2142  1.1126 -2.4657
16159TIP3    H269969   5.910   4.294   4.700  0.2101  0.4242  0.7567
16160TIP3   OH269970   0.062   5.972  16.907  0.5303 -0.2092  0.2568
16160TIP3    H169971   0.009   5.926  16.972  1.5341 -0.6807  0.7853
16160TIP3    H269972   0.144   5.990  16.953  1.4154 -0.9003 -0.9815
16161TIP3   OH269973   0.372   6.215   0.334  0.1459  0.2263  0.1902
16161TIP3    H169974   0.342   6.304   0.315  0.4729  0.2548 -0.2043
16161TIP3    H269975   0.463   6.226   0.364  0.9187 -0.1289 -1.8346
16162TIP3   OH269976   5.570   0.948  11.870 -0.3698 -0.2107  0.4316
16162TIP3    H169977   5.592   0.931  11.779 -0.9592 -0.1727  0.2780
16162TIP3    H269978   5.652   0.934  11.918  0.7345  2.6209 -0.4357
16163TIP3   OH269979   2.839   6.748  10.488  0.8647  0.1387 -0.0602
16163TIP3    H169980   2.850   6.680  10.554 -1.2097  0.1426  0.3811
16163TIP3    H269981   2.920   6.746  10.437  0.9042 -2.6244 -0.0425
16164TIP3   OH269982   6.678   2.387  13.573  0.2182 -0.1989 -0.2252
16164TIP3    H169983   6.639   2.453  13.516 -0.2087 -1.5419 -1.5537
16164TIP3    H269984   6.624   2.388  13.652 -2.9685 -2.2577 -2.1298
16165TIP3   OH269985   3.453   2.442  11.479 -0.3984 -0.7070  0.1003
16165TIP3    H169986   3.445   2.535  11.498  1.8521 -0.1729 -1.1802
16165TIP3    H269987   3.371   2.419  11.436 -0.1514  1.2768 -1.6068
16166TIP3   OH269988   1.900   0.938   4.744  0.0145  0.4935  0.1580
16166TIP3    H169989   1.874   0.847   4.733  2.1620 -0.2116  0.4808
16166TIP3    H269990   1.874   0.961   4.833  1.4013 -0.5299  0.8516
16167TIP3   OH269991   0.572   1.052  15.037 -0.2797 -0.9979 -0.5849
16167TIP3    H169992   0.601   1.038  15.127 -2.5778 -2.0798  0.0758
16167TIP3    H269993   0.632   0.999  14.984  2.1123  0.9066  0.0498
16168TIP3   OH269994   2.328   1.142   0.408  0.4508 -0.0300 -0.0293
16168TIP3    H169995   2.318   1.236   0.396  0.3099  0.0681  0.8267
16168TIP3    H269996   2.238   1.110   0.421  0.5559 -0.1894  0.3110
16169TIP3   OH269997   1.095   1.295   2.487  0.0025  0.2752  0.1917
16169TIP3    H169998   1.136   1.218   2.446 -1.4906  0.6602 -2.1677
16169TIP3    H269999   1.036   1.258   2.553  0.0454 -0.5579 -0.2207
16170TIP3   OH270000   2.089   5.104   3.897 -0.1126  0.2481 -0.0505
16170TIP3    H170001   2.090   5.009   3.886  1.0016  0.4119 -1.6304
16170TIP3    H270002   2.103   5.139   3.810 -1.2906  1.9159  0.3698
16171TIP3   OH270003   5.948   1.570   3.147  0.0487 -0.0498  0.4309
16171TIP3    H170004   6.037   1.535   3.150 -0.1486 -0.6114  3.7656
16171TIP3    H270005   5.957   1.662   3.175 -0.2117  0.5931 -1.4819
16172TIP3   OH270006   1.119   1.224  16.951  0.0275  0.6419 -0.2708
16172TIP3    H170007   1.126   1.242  16.858 -0.5007  1.1913 -0.2065
16172TIP3    H270008   1.129   1.309  16.993 -0.0893  0.4467  0.1567
16173TIP3   OH270009   4.432   4.321   1.988  0.0191 -0.6453 -0.1359
16173TIP3    H170010   4.484   4.386   1.942 -1.1784  0.6732  0.3237
16173TIP3    H270011   4.476   4.311   2.073  0.0978 -0.3017 -0.1361
16174TIP3   OH270012   5.005   2.020  11.923 -0.3407 -0.1863  0.0982
16174TIP3    H170013   5.082   2.075  11.904 -0.4895 -0.0381 -0.0834
16174TIP3    H270014   5.019   1.941  11.871 -0.8115  0.2749 -0.7518
16175TIP3   OH270015   4.314   6.674   4.063 -0.0893  0.0317  0.6273
16175TIP3    H170016   4.314   6.725   3.982  2.8333  0.8033  0.9965
16175TIP3    H270017   4.321   6.740   4.132 -1.0357 -0.7016  1.4506
16176TIP3   OH270018   4.816   1.424  12.532 -0.0346  0.0518  0.3788
16176TIP3    H170019   4.820   1.332  12.558 -0.6619 -0.6605 -1.8220
16176TIP3    H270020   4.905   1.456  12.544 -0.1062 -0.3953  2.5184
16177TIP3   OH270021   4.772   6.110  16.981  0.4642 -0.4511  0.2664
16177TIP3    H170022   4.769   6.113  16.886 -0.1397 -0.3787  0.2824
16177TIP3    H270023   4.720   6.185  17.009  2.7047  1.0497  0.6666
16178TIP3   OH270024   4.172   3.719  13.954  0.1700  0.1551  0.0739
16178TIP3    H170025   4.181   3.800  13.905  0.3553  0.8215  1.1904
16178TIP3    H270026   4.129   3.744  14.036  1.0776 -0.6997  0.8505
16179TIP3   OH270027   1.821   1.281  13.796  0.6767  0.3036  0.2536
16179TIP3    H170028   1.782   1.193  13.796 -1.4733  1.1843  1.2707
16179TIP3    H270029   1.758   1.335  13.748  2.6599  1.0857 -1.6629
16180TIP3   OH270030   4.164   4.146   0.648 -0.0496 -0.4834  0.1062
16180TIP3    H170031   4.130   4.080   0.708  1.6177 -0.2577  1.3854
16180TIP3    H270032   4.183   4.221   0.704  0.2911  0.2382 -0.9481
16181TIP3   OH270033   2.729   1.509  16.731  0.6142  0.3304 -0.0110
16181TIP3    H170034   2.716   1.547  16.645  0.6181 -0.0401 -0.1793
16181TIP3    H270035   2.763   1.581  16.785  0.1967  0.6711 -0.2024
16182TIP3   OH270036   3.815   1.958   4.754 -0.4110 -0.1988 -0.3754
16182TIP3    H170037   3.759   2.029   4.723  1.7334  0.9157 -2.0051
16182TIP3    H270038   3.822   1.972   4.849 -0.1612  1.7377 -0.6384
16183TIP3   OH270039   2.969   4.438  16.467 -0.5749 -0.2234 -0.3002
16183TIP3    H170040   2.893   4.397  16.426 -0.8526  0.7191 -0.7363
16183TIP3    H270041   3.005   4.495  16.400 -2.5775  3.4351  1.4643
16184TIP3   OH270042   4.289   5.805   1.223 -0.3451 -0.3174 -0.2388
16184TIP3    H170043   4.252   5.806   1.134 -0.0331 -0.9815 -0.3836
16184TIP3    H270044   4.218   5.774   1.278 -0.2701 -0.7673 -0.3912
16185TIP3   OH270045   1.666   4.419  11.420  0.7065  0.4328  0.4330
16185TIP3    H170046   1.690   4.337  11.463 -0.0572 -0.3485 -0.6015
16185TIP3    H270047   1.659   4.398  11.327 -1.4801  1.1673  0.3657
16186TIP3   OH270048   3.675   6.337  13.905  0.0991  0.1974 -0.2928
16186TIP3    H170049   3.641   6.264  13.852 -1.3718  0.5968  0.0437
16186TIP3    H270050   3.614   6.409  13.888  1.5849  1.4130 -0.7007
16187TIP3   OH270051   4.862   5.794  12.304 -0.8685 -0.1274 -0.7826
16187TIP3    H170052   4.790   5.733  12.320  0.7299 -1.6878  1.0723
16187TIP3    H270053   4.883   5.829  12.391  1.5618 -0.9202 -0.9869
16188TIP3   OH270054   6.304   3.908   0.969 -0.1111 -0.0791 -0.3794
16188TIP3    H170055   6.341   3.847   1.032  2.1325  0.5657 -0.9785
16188TIP3    H270056   6.268   3.853   0.900  0.4574 -0.7314 -0.1592
16189TIP3   OH270057   0.665   5.773  16.680 -0.2533 -0.0655 -0.1259
16189TIP3    H170058   0.710   5.742  16.758  0.7105 -4.1559 -2.0471
16189TIP3    H270059   0.736   5.800  16.621 -0.8077  0.4914 -0.5480
16190TIP3   OH270060   6.004   4.841  12.727 -0.3191  0.5335 -0.0169
16190TIP3    H170061   5.964   4.829  12.813 -1.6806  0.2731 -0.6677
16190TIP3    H270062   6.025   4.753  12.697 -2.1589  0.3981 -1.0033
16191TIP3   OH270063   2.920   1.586   4.976 -0.1330 -0.0211  0.0215
16191TIP3    H170064   2.929   1.673   5.015 -2.3482  0.4137 -0.2917
16191TIP3    H270065   3.009   1.563   4.949  1.2464  0.3129  3.7871
16192TIP3   OH270066   6.455   4.839   0.457 -0.0738 -0.0580  0.1290
16192TIP3    H170067   6.486   4.869   0.542 -0.1763 -1.3503  0.6391
16192TIP3    H270068   6.361   4.853   0.459  0.1338  1.7896 -0.5751
16193TIP3   OH270069   1.068   6.397  12.477 -0.2278  0.0109  0.3867
16193TIP3    H170070   0.986   6.411  12.526 -1.8233 -2.5726 -1.2933
16193TIP3    H270071   1.098   6.310  12.506 -0.1866 -0.7301 -1.7310
16194TIP3   OH270072   1.720   4.931   0.763  0.0262  0.1495  0.0158
16194TIP3    H170073   1.626   4.933   0.780 -0.1941 -1.2049 -0.8814
16194TIP3    H270074   1.728   4.898   0.673  1.3669 -0.3455  0.2851
16195TIP3   OH270075   1.703   0.574   3.908 -0.3577 -0.1992 -0.3534
16195TIP3    H170076   1.729   0.663   3.886  1.0417 -0.6675 -0.7015
16195TIP3    H270077   1.642   0.584   3.981 -0.0099  1.0193 -0.2114
16196TIP3   OH270078   6.039   5.280  15.978  0.3146 -0.0206 -0.0827
16196TIP3    H170079   5.948   5.284  16.006  0.4585 -0.5627  0.4803
16196TIP3    H270080   6.045   5.344  15.907 -0.7246 -0.6324 -0.7469
16197TIP3   OH270081   2.858   0.773  16.739  0.6655 -0.0323 -0.4327
16197TIP3    H170082   2.810   0.852  16.766  1.4038  0.4819 -0.5839
16197TIP3    H270083   2.935   0.807  16.694 -1.2508 -0.8023 -4.7587
16198TIP3   OH270084   2.468   1.896   1.310  0.0300 -0.3039  0.3042
16198TIP3    H170085   2.510   1.835   1.251 -1.7797  0.5295 -2.0067
16198TIP3    H270086   2.412   1.950   1.254 -0.8202  1.4267  2.6176
16199TIP3   OH270087   1.088   4.116  12.174  0.4785 -0.1127 -0.3023
16199TIP3    H170088   1.026   4.150  12.108  0.0568  0.9451  0.6017
16199TIP3    H270089   1.045   4.133  12.258  1.5078 -0.3927  0.2938
16200TIP3   OH270090   0.720   6.527  16.780 -0.3064  0.8014  0.0137
16200TIP3    H170091   0.707   6.614  16.744 -2.3805  1.4324  2.0521
16200TIP3    H270092   0.677   6.468  16.718 -0.4910  1.4296 -0.4571
16201TIP3   OH270093   5.753   0.315  14.490 -0.2565 -0.0777 -0.1118
16201TIP3    H170094   5.763   0.339  14.398  0.0036  2.4358  0.4996
16201TIP3    H270095   5.841   0.325  14.526 -1.0948  3.7354  1.3398
16202TIP3   OH270096   3.477   0.768  12.392 -0.0924 -0.0786 -0.2028
16202TIP3    H170097   3.457   0.861  12.397 -1.0267 -0.1182 -2.1226
16202TIP3    H270098   3.551   0.756  12.451 -0.9278  1.5569  1.2982
16203TIP3   OH270099   4.951   5.384   0.394  0.1656 -0.2687  0.1438
16203TIP3    H170100   5.021   5.320   0.406  2.4182  1.9045 -0.4276
16203TIP3    H270101   4.911   5.362   0.310  0.8300 -0.9715  0.0075
16204TIP3   OH270102   6.069   1.124  11.775  0.8340 -0.5226  0.3328
16204TIP3    H170103   5.984   1.124  11.731  1.4344 -0.8325 -0.8602
16204TIP3    H270104   6.102   1.213  11.764 -0.3426  0.3173  2.8827
16205TIP3   OH270105   1.980   5.502   0.941 -0.1323 -0.2628 -1.3898
16205TIP3    H170106   2.004   5.411   0.959  0.1374  0.0750  0.1075
16205TIP3    H270107   2.061   5.542   0.909 -0.0133 -0.3405 -1.1882
16206TIP3   OH270108   3.563   5.736   0.914 -0.3266  0.6325 -0.7977
16206TIP3    H170109   3.635   5.738   0.977  0.4172 -0.0579 -1.6014
16206TIP3    H270110   3.557   5.825   0.880  1.0264  0.3985 -1.6886
16207TIP3   OH270111   5.284   2.654  17.392 -0.2239  0.3646  0.8004
16207TIP3    H170112   5.285   2.730  17.450  0.7985  1.3152 -0.4083
16207TIP3    H270113   5.201   2.611  17.410  0.3497  0.2014  3.4877
16208TIP3   OH270114   3.379   6.249  11.241  0.4806 -0.2841 -0.2110
16208TIP3    H170115   3.456   6.206  11.278  1.1556  1.3687  0.4333
16208TIP3    H270116   3.367   6.327  11.295 -0.8144  0.2147 -1.1664
16209TIP3   OH270117   6.520   3.206   3.848 -0.2806  0.7742  0.5495
16209TIP3    H170118   6.521   3.300   3.865  0.0063  0.8043  0.3807
16209TIP3    H270119   6.554   3.198   3.759  0.8729  0.4320  0.9982
16210TIP3   OH270120   0.842   5.602   5.454  0.1084  0.0547  0.0876
16210TIP3    H170121   0.930   5.624   5.485  0.4611  0.7410 -1.3487
16210TIP3    H270122   0.834   5.647   5.371 -2.2428  1.3472  0.9485
16211TIP3   OH270123   2.045   5.237  11.527  0.3051  0.4412  0.2131
16211TIP3    H170124   2.065   5.225  11.434  1.9390 -0.5497  0.6513
16211TIP3    H270125   2.067   5.329  11.545 -2.4438  1.4258 -0.8821
16212TIP3   OH270126   5.959   3.334   5.396 -0.1520 -0.2440  0.0355
16212TIP3    H170127   5.959   3.295   5.309  2.7786  1.3517 -0.8190
16212TIP3    H270128   5.898   3.408   5.390 -0.4479 -0.5273 -0.4642
16213TIP3   OH270129   5.210   1.951  14.903  0.5303 -0.3905  0.0215
16213TIP3    H170130   5.222   1.938  14.997 -0.1218  0.5454  0.2595
16213TIP3    H270131   5.293   1.926  14.864  0.6244 -1.3310  0.7872
16214TIP3   OH270132   6.378   1.128  17.123 -0.0605  0.3229 -0.1500
16214TIP3    H170133   6.317   1.070  17.168  0.4951 -0.5558 -0.4883
16214TIP3    H270134   6.370   1.104  17.030  0.0851  0.8752 -0.3078
16215TIP3   OH270135   2.517   5.115  12.575 -0.4127 -0.4523  0.4951
16215TIP3    H170136   2.488   5.197  12.535 -0.1613 -0.6652 -0.1396
16215TIP3    H270137   2.470   5.110  12.658 -3.3657 -1.4775 -1.0783
16216TIP3   OH270138   3.341   6.545   1.813 -0.6224  0.2155 -0.1504
16216TIP3    H170139   3.355   6.490   1.890 -1.6860  0.0433 -0.0658
16216TIP3    H270140   3.417   6.527   1.757  0.2312  0.4336  0.8909
16217TIP3   OH270141   4.199   4.328   3.276 -0.5436  0.3130  0.5393
16217TIP3    H170142   4.245   4.392   3.330 -0.8613 -0.3625  1.6498
16217TIP3    H270143   4.174   4.376   3.197  1.8334  0.7574 -0.0190
16218TIP3   OH270144   4.175   4.360   4.918  0.1444  0.1460  0.2213
16218TIP3    H170145   4.149   4.286   4.864 -0.7273 -0.2037  1.0805
16218TIP3    H270146   4.142   4.339   5.005 -0.7668  1.8735  0.3454
16219TIP3   OH270147   4.377   5.057  13.124  0.0152 -0.1040  0.6537
16219TIP3    H170148   4.351   5.115  13.053 -0.7930 -1.4574 -0.2087
16219TIP3    H270149   4.310   5.070  13.191 -0.9451 -0.9889 -0.0963
16220TIP3   OH270150   5.251   0.212   2.386 -0.0535  0.4009 -0.3168
16220TIP3    H170151   5.254   0.133   2.332  0.3425  0.6178 -0.6235
16220TIP3    H270152   5.340   0.247   2.382  0.0169  0.3306  0.6230
16221TIP3   OH270153   5.918   6.246  14.348 -0.1557 -0.1550  0.4774
16221TIP3    H170154   5.839   6.250  14.401 -1.2436  0.5476 -1.1110
16221TIP3    H270155   5.980   6.196  14.400 -0.6216  1.7471  3.0555
16222TIP3   OH270156   4.435   3.608   2.488  0.5025  0.2471  0.4375
16222TIP3    H170157   4.435   3.548   2.563  0.8915  0.3125  0.4940
16222TIP3    H270158   4.482   3.561   2.419 -0.4041 -0.0687  0.0151
16223TIP3   OH270159   6.237   4.699  11.403  0.2394 -0.4855 -0.0040
16223TIP3    H170160   6.221   4.675  11.312 -0.6281  1.1746 -0.3365
16223TIP3    H270161   6.239   4.795  11.403 -2.2844 -0.3051  2.0617
16224TIP3   OH270162   3.321   3.463   1.109 -0.5065  0.5445  0.6277
16224TIP3    H170163   3.296   3.463   1.016  0.4575  0.1763  0.3581
16224TIP3    H270164   3.306   3.374   1.138 -0.6082  0.6093  0.7751
16225TIP3   OH270165   3.261   4.823  16.427  0.2495  0.0954  0.6967
16225TIP3    H170166   3.177   4.800  16.466 -0.7230  2.4057  0.1380
16225TIP3    H270167   3.324   4.814  16.499 -0.2792 -2.4295  0.9230
16226TIP3   OH270168   6.484   0.925  14.210 -0.5140  0.3288  0.1979
16226TIP3    H170169   6.550   0.855  14.209 -0.4846  0.3565  0.2392
16226TIP3    H270170   6.418   0.894  14.272 -0.6195  0.2266  0.0360
16227TIP3   OH270171   5.843   0.977   3.280 -0.0532  0.7715 -0.1627
16227TIP3    H170172   5.784   0.964   3.206 -0.0638 -0.6860  0.0655
16227TIP3    H270173   5.931   0.974   3.241 -0.0452 -0.4109 -0.0821
16228TIP3   OH270174   1.343   3.588   0.757 -0.8566 -0.1766 -0.3440
16228TIP3    H170175   1.411   3.652   0.774 -0.2892 -0.6311 -0.8875
16228TIP3    H270176   1.289   3.627   0.688  0.0061 -0.6407 -1.3124
16229TIP3   OH270177   2.716   3.509  15.989 -0.0427  0.2978  0.5006
16229TIP3    H170178   2.715   3.555  15.905 -0.7925  2.3735  1.5936
16229TIP3    H270179   2.650   3.439  15.978 -1.1050  1.3778 -0.2220
16230TIP3   OH270180   4.724   2.095   0.096 -0.0301  0.6192  0.0087
16230TIP3    H170181   4.668   2.018   0.099  1.1177 -0.2986 -0.9849
16230TIP3    H270182   4.677   2.161   0.147 -1.3363 -0.5300  0.3559
16231TIP3   OH270183   4.702   2.766  11.787 -0.1282 -0.5681 -1.1031
16231TIP3    H170184   4.726   2.676  11.765 -0.9796 -1.1684  0.2979
16231TIP3    H270185   4.641   2.792  11.718 -1.0930 -1.6323 -0.6766
16232TIP3   OH270186   2.760   2.252   5.707 -0.8959 -0.1197 -0.1022
16232TIP3    H170187   2.850   2.221   5.696 -1.1638 -0.8694 -0.2431
16232TIP3    H270188   2.709   2.199   5.646 -1.6362 -0.6947  0.9732
16233TIP3   OH270189   2.759   0.284   1.038 -0.0327 -0.3092 -0.2763
16233TIP3    H170190   2.781   0.191   1.035 -1.4168 -0.6379 -1.4381
16233TIP3    H270191   2.724   0.303   0.951 -2.0508  0.6721  0.6823
16234TIP3   OH270192   5.022   4.658  15.104 -0.0728  0.0761  0.0524
16234TIP3    H170193   5.005   4.716  15.029 -1.5055 -1.2076 -0.6666
16234TIP3    H270194   5.058   4.578  15.065 -0.7080 -0.5624  0.7454
16235TIP3   OH270195   4.961   0.305  11.815 -0.0379  0.7265  0.9448
16235TIP3    H170196   5.050   0.313  11.849 -0.0724  0.8568  1.0039
16235TIP3    H270197   4.905   0.300  11.893  0.0398 -0.8972  0.9391
16236TIP3   OH270198   2.347   2.625   1.921 -0.1898 -0.2114  0.2570
16236TIP3    H170199   2.272   2.679   1.945  0.9482  1.9572 -0.7590
16236TIP3    H270200   2.414   2.648   1.985  0.1824 -0.7977  0.0899
16237TIP3   OH270201   1.212   6.306   2.161  0.2454 -0.0992  0.2237
16237TIP3    H170202   1.225   6.275   2.251  0.4697 -0.1837  0.1614
16237TIP3    H270203   1.291   6.357   2.142  0.2535 -0.1850  0.0291
16238TIP3   OH270204   6.539   1.380  12.459 -0.0357 -0.1799  0.2329
16238TIP3    H170205   6.555   1.400  12.551 -0.6270 -1.9721  0.7592
16238TIP3    H270206   6.523   1.466  12.419 -0.4781  0.5839  1.9359
16239TIP3   OH270207   2.543   0.751  14.653  0.1584  0.4591 -0.2943
16239TIP3    H170208   2.541   0.670  14.705  0.5832 -0.8028 -2.1307
16239TIP3    H270209   2.471   0.741  14.591 -0.6537  2.1621  0.3146
16240TIP3   OH270210   2.928   1.354  11.951  0.0671  0.2207  0.4101
16240TIP3    H170211   3.022   1.337  11.948 -0.0330 -0.3685  0.6041
16240TIP3    H270212   2.902   1.358  11.859  0.4089  1.1311  0.3407
16241TIP3   OH270213   3.884   3.486   0.841 -0.4484  0.2776 -0.4090
16241TIP3    H170214   3.797   3.523   0.826  0.2297  1.7621 -0.8772
16241TIP3    H270215   3.877   3.441   0.925 -1.5149  0.8353 -0.1765
16242TIP3   OH270216   6.425   5.147  14.730  0.2740 -0.4240  0.2395
16242TIP3    H170217   6.370   5.113  14.660  1.3186  1.0646 -1.3766
16242TIP3    H270218   6.452   5.070  14.780  0.8604 -1.7302 -1.9909
16243TIP3   OH270219   3.388   5.918   3.755  0.0338 -0.1473  1.0077
16243TIP3    H170220   3.409   5.885   3.842  2.1734  0.0580  0.6211
16243TIP3    H270221   3.414   5.848   3.695 -0.5912  0.0567  0.4880
16244TIP3   OH270222   3.082   5.998   1.603 -0.2738 -0.9402  0.1580
16244TIP3    H170223   3.124   5.915   1.625  0.2114 -1.2075 -1.6328
16244TIP3    H270224   3.141   6.065   1.640 -0.5479 -1.3632  1.3998
16245TIP3   OH270225   1.470   5.483  13.719 -0.5144 -0.5261 -0.2899
16245TIP3    H170226   1.388   5.533  13.721 -0.3864 -0.3438  0.8235
16245TIP3    H270227   1.539   5.549  13.721 -0.3463 -0.7124  1.0476
16246TIP3   OH270228   2.228   5.217  13.696 -0.1942  0.0933  0.2900
16246TIP3    H170229   2.224   5.131  13.737  1.5334 -0.5066 -0.6862
16246TIP3    H270230   2.157   5.267  13.735 -0.9789 -1.6620  1.1493
16247TIP3   OH270231   4.442   0.623  11.460  0.0346 -0.3347 -0.3466
16247TIP3    H170232   4.466   0.636  11.368 -0.5697 -1.4883 -0.6972
16247TIP3    H270233   4.506   0.673  11.509  0.5461  0.0663 -1.3948
16248TIP3   OH270234   1.073   3.778  17.337  0.0895 -0.4614 -0.3761
16248TIP3    H170235   1.039   3.792  17.249 -0.3033 -1.1381 -0.3417
16248TIP3    H270236   1.134   3.705  17.328  0.3232 -0.2951 -0.1535
16249TIP3   OH270237   5.039   0.657  13.612  0.7865 -0.7476 -0.1848
16249TIP3    H170238   5.073   0.594  13.548 -0.9712 -0.5912 -1.3521
16249TIP3    H270239   4.957   0.617  13.643 -0.3694  0.8920 -0.9494
16250TIP3   OH270240   6.378   5.965  17.143 -0.0989 -0.0485  0.0635
16250TIP3    H170241   6.394   6.060  17.144  0.0724 -0.0848  1.0721
16250TIP3    H270242   6.458   5.927  17.178  0.0680 -0.6196 -0.8985
16251TIP3   OH270243   6.354   2.970   4.906  0.1067 -0.7107  0.2375
16251TIP3    H170244   6.265   2.943   4.927 -0.1094 -0.9432 -0.8992
16251TIP3    H270245   6.344   3.041   4.842  0.7213 -1.6323 -0.9359
16252TIP3   OH270246   4.979   3.047  12.969 -0.1611 -0.2427 -0.6738
16252TIP3    H170247   4.902   3.014  12.923 -1.4538  1.0696  0.4582
16252TIP3    H270248   4.949   3.126  13.015  1.9577  0.5610 -0.5233
16253TIP3   OH270249   3.685   0.361  12.564  0.4374 -0.0642  0.2424
16253TIP3    H170250   3.739   0.428  12.523  0.5150 -1.5107 -2.1820
16253TIP3    H270251   3.603   0.406  12.587  1.0086  1.1513 -0.0520
16254TIP3   OH270252   0.446   0.766   2.298  0.4311  0.0482 -0.0822
16254TIP3    H170253   0.367   0.807   2.261 -0.4584  1.0858  2.6981
16254TIP3    H270254   0.412   0.706   2.365  1.9753  0.3084  0.9905
16255TIP3   OH270255   2.109   0.088   5.824  0.0148 -0.0492 -0.1263
16255TIP3    H170256   2.030   0.135   5.797  0.7987  1.6447  0.3450
16255TIP3    H270257   2.096  -0.002   5.794 -0.6346  0.9188 -3.0413
16256TIP3   OH270258   1.869   4.186  14.158 -0.3581 -0.3110 -1.2106
16256TIP3    H170259   1.817   4.170  14.237  0.2062 -0.5853 -0.8859
16256TIP3    H270260   1.824   4.258  14.114 -0.5225  0.0309 -0.4964
16257TIP3   OH270261   5.542   5.800   1.704  0.2595 -0.0294 -0.0430
16257TIP3    H170262   5.559   5.891   1.677  1.5384  0.3013  1.6860
16257TIP3    H270263   5.570   5.748   1.629  0.9455  0.9463 -0.4948
16258TIP3   OH270264   4.608   6.550  12.908  0.0615  0.0546 -0.1021
16258TIP3    H170265   4.655   6.630  12.931  0.8285 -0.3714 -0.1206
16258TIP3    H270266   4.516   6.570  12.922  0.2941  0.7339  0.5152
16259TIP3   OH270267   6.264   4.521  15.964  0.0104 -0.2017  0.0161
16259TIP3    H170268   6.177   4.483  15.973 -0.4189  0.5827 -0.6556
16259TIP3    H270269   6.316   4.479  16.032 -0.6299 -1.4207 -0.2150
16260TIP3   OH270270   4.944   6.441   2.063 -0.1482  0.2099  0.0570
16260TIP3    H170271   4.948   6.346   2.047 -0.2356  0.6538 -3.0536
16260TIP3    H270272   4.850   6.460   2.069 -0.1241  0.0949  1.1744
16261TIP3   OH270273   1.756   4.829  16.265 -0.2272  0.5276  0.0521
16261TIP3    H170274   1.697   4.903  16.255 -4.0300 -2.0515  1.0781
16261TIP3    H270275   1.712   4.757  16.220  2.2044 -1.6273  0.8552
16262TIP3   OH270276   0.166   2.581   6.594 -0.0766 -0.7500 -0.2372
16262TIP3    H170277   0.155   2.529   6.514 -1.4030 -0.1499 -0.4638
16262TIP3    H270278   0.104   2.653   6.584  0.3931 -0.1736  0.9358
16263TIP3   OH270279   2.549   2.070  12.781  0.8103  0.8241 -0.2702
16263TIP3    H170280   2.477   2.071  12.717  1.8339  0.5462 -1.4674
16263TIP3    H270281   2.509   2.102  12.862 -0.6969  0.5188 -0.8522
16264TIP3   OH270282   5.440   5.932   1.362 -0.1366  0.1709  0.0662
16264TIP3    H170283   5.407   6.021   1.348 -2.6845 -0.6097  0.5988
16264TIP3    H270284   5.519   5.943   1.415  0.7828  2.1944 -1.5948
16265TIP3   OH270285   1.518   3.249  13.995 -0.1450 -0.6929 -0.3560
16265TIP3    H170286   1.443   3.266  13.937 -1.8965 -0.9545  1.6937
16265TIP3    H270287   1.513   3.155  14.012 -0.4386 -0.4271  1.1639
16266TIP3   OH270288   0.725   4.196   5.330 -0.3464  0.3588  0.0342
16266TIP3    H170289   0.820   4.200   5.344 -0.2244  0.6039 -0.8146
16266TIP3    H270290   0.711   4.113   5.285 -0.6516 -0.0906  0.9248
16267TIP3   OH270291   5.020   5.507  13.028  0.3672 -0.0527  0.1527
16267TIP3    H170292   5.036   5.436  12.965  0.2513 -1.0423  1.2139
16267TIP3    H270293   4.949   5.475  13.083 -1.1299  1.7606 -0.6244
16268TIP3   OH270294   0.424   4.312  12.847 -0.2377  0.2134 -0.2399
16268TIP3    H170295   0.331   4.293  12.864 -0.2060  0.0686 -0.2271
16268TIP3    H270296   0.424   4.402  12.817 -0.6395 -0.4337 -2.3790
16269TIP3   OH270297   0.141   0.284  15.924 -0.2227  0.8568  0.1758
16269TIP3    H170298   0.063   0.242  15.888  0.4205  0.9838 -1.4919
16269TIP3    H270299   0.209   0.217  15.919  0.1798  1.2698 -0.0175
16270TIP3   OH270300   2.557   6.391  16.431 -0.0173 -0.0456  0.1076
16270TIP3    H170301   2.553   6.442  16.512 -0.5209  1.2081 -0.6777
16270TIP3    H270302   2.644   6.352  16.432  0.2549  0.5538  0.9125
16271TIP3   OH270303   0.374   1.808  12.886 -0.1353 -0.4581 -0.4436
16271TIP3    H170304   0.300   1.833  12.831 -0.5083 -3.5227 -1.5159
16271TIP3    H270305   0.334   1.769  12.964  0.4107  1.8306  1.0719
16272TIP3   OH270306   3.964   2.951   3.225  1.0318 -0.3136  0.2486
16272TIP3    H170307   4.054   2.978   3.243  0.9161 -0.6379  1.3784
16272TIP3    H270308   3.973   2.883   3.158  1.2244  3.5240 -4.1315
16273TIP3   OH270309   2.774   1.485   3.590  0.2991 -0.1858 -0.1250
16273TIP3    H170310   2.844   1.482   3.655 -0.2203 -1.4221  0.4081
16273TIP3    H270311   2.818   1.475   3.506  0.7678 -0.8155  0.1992
16274TIP3   OH270312   1.087   6.587   2.776  0.4483 -0.1085  0.0695
16274TIP3    H170313   1.167   6.592   2.828 -0.1536 -1.0359  1.1430
16274TIP3    H270314   1.024   6.642   2.823  0.8782  1.9843 -1.6693
16275TIP3   OH270315   2.211   2.700   2.813 -0.5136 -0.1197 -0.1561
16275TIP3    H170316   2.210   2.769   2.879 -1.2697 -0.3607  0.0940
16275TIP3    H270317   2.122   2.700   2.778 -1.2079 -2.4054  1.3763
16276TIP3   OH270318   0.558   1.162   4.214 -0.4391  0.9461  0.6197
16276TIP3    H170319   0.583   1.164   4.121 -1.1391 -0.4225  0.3755
16276TIP3    H270320   0.624   1.216   4.257  1.2053 -0.1472 -0.3797
16277TIP3   OH270321   2.853   6.641  13.073 -0.4966  0.1448  0.4715
16277TIP3    H170322   2.807   6.723  13.088 -1.7910 -0.1678 -1.5111
16277TIP3    H270323   2.919   6.662  13.008 -1.6330 -0.5989 -0.9642
16278TIP3   OH270324   1.400   6.163   1.557  0.0676  0.2194  0.5069
16278TIP3    H170325   1.441   6.084   1.522 -1.2957 -0.9281  1.3746
16278TIP3    H270326   1.308   6.139   1.568 -0.5249  2.1634  0.1667
16279TIP3   OH270327   1.696   1.069  12.259  0.0112  0.3967 -0.2742
16279TIP3    H170328   1.684   0.974  12.251  0.2204  0.2198  1.2276
16279TIP3    H270329   1.628   1.107  12.204 -0.0965 -0.6234 -0.8680
16280TIP3   OH270330   4.741   0.639   3.338  0.7620 -0.0148  0.0307
16280TIP3    H170331   4.722   0.700   3.266 -0.9546  0.1513  0.5746
16280TIP3    H270332   4.681   0.565   3.323 -0.3249  0.4476  1.7635
16281TIP3   OH270333   2.109   1.737   0.485  0.2799 -0.7049  0.4655
16281TIP3    H170334   2.195   1.765   0.455 -0.5075  0.5426 -0.7385
16281TIP3    H270335   2.123   1.707   0.575  2.1769 -1.7111 -0.1144
16282TIP3   OH270336   5.089   4.595   5.530  0.4461 -0.1320  0.1190
16282TIP3    H170337   5.060   4.631   5.614  1.6328  0.2058  0.3947
16282TIP3    H270338   5.169   4.643   5.509 -0.0955  0.1736 -1.4728
16283TIP3   OH270339   1.913   6.737   0.570 -0.2720  0.5020  0.2073
16283TIP3    H170340   1.834   6.695   0.537  2.4539 -1.6560 -4.5987
16283TIP3    H270341   1.916   6.821   0.523  0.5853  0.2409 -0.2232
16284TIP3   OH270342   6.091   3.148   3.595  0.1287 -0.5249 -0.7124
16284TIP3    H170343   6.015   3.204   3.578  0.1072 -0.2903  0.1029
16284TIP3    H270344   6.165   3.209   3.599  0.8537 -0.9987 -4.2022
16285TIP3   OH270345   1.531   6.562  16.785  0.8448 -0.8139  0.1398
16285TIP3    H170346   1.488   6.563  16.700  0.3379 -0.6037  0.3880
16285TIP3    H270347   1.522   6.471  16.815 -0.7059 -0.4945  0.7946
16286TIP3   OH270348   4.490   3.145   2.832  0.1925  0.1525 -0.3345
16286TIP3    H170349   4.420   3.102   2.784 -0.0895 -0.7090  0.7884
16286TIP3    H270350   4.565   3.086   2.822  0.1293 -0.0371  0.2732
16287TIP3   OH270351   3.967   3.198  15.942 -0.1326 -0.0262  0.2884
16287TIP3    H170352   3.926   3.242  15.868 -1.6172 -0.0079  1.0826
16287TIP3    H270353   3.904   3.206  16.013  0.8908 -0.7759  1.3277
16288TIP3   OH270354   4.495   2.316   4.003  0.4042 -0.2477  0.0072
16288TIP3    H170355   4.590   2.317   3.991  0.4259 -1.1365  0.0669
16288TIP3    H270356   4.468   2.230   3.972 -0.4205  0.0988 -0.2520
16289TIP3   OH270357   0.327   1.549   3.333  0.0038 -0.2593  0.3361
16289TIP3    H170358   0.286   1.633   3.312  0.7044  0.8888  3.0493
16289TIP3    H270359   0.299   1.490   3.264 -1.4896  1.9097 -1.0272
16290TIP3   OH270360   1.757   5.947  16.596 -0.3566 -0.1015  0.3423
16290TIP3    H170361   1.754   6.042  16.593 -0.2022  0.0117  2.5161
16290TIP3    H270362   1.851   5.926  16.593 -0.3524 -0.1397  0.7489
16291TIP3   OH270363   2.587   5.182   3.096 -0.2277  0.0634 -0.6644
16291TIP3    H170364   2.521   5.218   3.037  1.3821  1.2830 -1.8358
16291TIP3    H270365   2.664   5.169   3.041  0.5339 -1.3246  0.6399
16292TIP3   OH270366   2.515   0.112  17.457 -0.5504  0.0814 -0.0267
16292TIP3    H170367   2.573   0.187  17.468 -0.3325  0.3392 -2.3230
16292TIP3    H270368   2.454   0.118  17.530 -1.2063  3.1561 -0.6530
16293TIP3   OH270369   5.047   4.335  12.309 -0.7804 -0.4933 -0.2943
16293TIP3    H170370   4.959   4.348  12.345  0.2285 -2.0042  3.0870
16293TIP3    H270371   5.100   4.405  12.347 -0.1392 -0.6501 -0.8766
16294TIP3   OH270372   0.670   3.432  15.389 -0.2537  0.2873  0.9088
16294TIP3    H170373   0.577   3.410  15.382 -0.3660  0.4217  1.8411
16294TIP3    H270374   0.716   3.353  15.361 -0.6131  1.0117 -1.9509
16295TIP3   OH270375   0.357   4.220   1.123  0.1419  0.1433  0.1237
16295TIP3    H170376   0.391   4.131   1.138  0.7293  0.5097  0.9938
16295TIP3    H270377   0.281   4.206   1.067  0.0821 -0.9363  0.4416
16296TIP3   OH270378   3.159   5.850   4.977 -0.6487  0.2041 -0.1737
16296TIP3    H170379   3.165   5.912   4.905 -1.4693  0.0930 -0.3478
16296TIP3    H270380   3.122   5.901   5.049  0.7502  0.4801  0.3849
16297TIP3   OH270381   3.221   2.922   1.166  0.0250 -0.4394 -0.1657
16297TIP3    H170382   3.146   2.931   1.225  0.3969 -0.7885  0.3740
16297TIP3    H270383   3.279   2.860   1.211  1.0637  0.5368 -0.1170
16298TIP3   OH270384   0.898   3.457   0.899  0.2141  0.1090  0.0016
16298TIP3    H170385   0.991   3.440   0.891  0.4616  1.0018  0.8524
16298TIP3    H270386   0.891   3.552   0.907 -0.5750 -0.0669  2.0894
16299TIP3   OH270387   4.373   5.017   2.754  0.2442 -0.1382  0.5660
16299TIP3    H170388   4.291   5.051   2.719  0.4159 -0.6665 -0.3866
16299TIP3    H270389   4.385   4.933   2.708  0.3890 -0.9486  2.0246
16300TIP3   OH270390   5.233   2.994  17.279 -0.7143  0.5553 -0.0506
16300TIP3    H170391   5.215   3.059  17.212 -0.5219  0.4351 -0.2180
16300TIP3    H270392   5.285   2.927  17.235  1.3290  1.5279  0.7339
16301TIP3   OH270393   5.604   5.658   1.192  0.0435 -0.3274 -0.1748
16301TIP3    H170394   5.647   5.600   1.255  0.1737 -1.3539 -1.1883
16301TIP3    H270395   5.642   5.635   1.107  0.7475  1.8490 -0.5333
16302TIP3   OH270396   4.665   1.548   3.732  0.3772 -0.2819  0.1758
16302TIP3    H170397   4.630   1.549   3.821 -0.3268  0.3654 -0.0877
16302TIP3    H270398   4.689   1.640   3.715  0.2133 -0.3422 -0.4043
16303TIP3   OH270399   0.213   6.759   1.345  0.2560 -0.3058  0.2292
16303TIP3    H170400   0.223   6.831   1.282 -1.9664 -0.4871 -0.4363
16303TIP3    H270401   0.296   6.712   1.341  0.6253  0.3973 -1.7227
16304TIP3   OH270402   4.998   1.003  15.448 -0.0685  0.4372  0.3289
16304TIP3    H170403   5.008   1.024  15.541  0.9471  0.7202  0.1685
16304TIP3    H270404   5.049   1.070  15.403 -0.4851  0.2474 -0.4300
16305TIP3   OH270405   1.387   5.941  16.292 -0.1238  0.4660  0.8939
16305TIP3    H170406   1.454   5.896  16.241 -0.4173 -0.8460  1.6137
16305TIP3    H270407   1.413   5.926  16.383 -0.8288  0.8336  1.1584
16306TIP3   OH270408   0.878   3.048  16.411  0.2565 -0.2033  0.2072
16306TIP3    H170409   0.868   3.113  16.342  0.0054  1.1986  1.4919
16306TIP3    H270410   0.788   3.028  16.438  0.3518 -0.6607  0.1842
16307TIP3   OH270411   2.096   1.767  14.115  0.2355  0.4322  0.2209
16307TIP3    H170412   2.073   1.850  14.073 -1.0290  0.5269  1.0188
16307TIP3    H270413   2.135   1.793  14.198  0.9441  0.2298 -0.0445
16308TIP3   OH270414   2.890   4.181   3.354  0.3414 -0.6240 -0.3724
16308TIP3    H170415   2.893   4.189   3.449  0.5413 -0.1367 -0.4124
16308TIP3    H270416   2.814   4.127   3.336 -0.5949  0.5302 -0.0020
16309TIP3   OH270417   6.056   3.225  14.487  0.1117 -0.2836 -0.1345
16309TIP3    H170418   6.050   3.317  14.463  0.8916 -0.1418  0.1845
16309TIP3    H270419   6.103   3.184  14.414 -1.7849 -0.8098 -1.1655
16310TIP3   OH270420   0.094   1.845   3.878  0.1822  0.0155 -0.2730
16310TIP3    H170421   0.003   1.841   3.906  0.5148 -1.4918  0.7252
16310TIP3    H270422   0.124   1.932   3.906 -0.8694  0.4245 -0.3882
16311TIP3   OH270423   1.249   1.053   2.475  0.1282 -0.0511 -1.1813
16311TIP3    H170424   1.264   1.056   2.569 -0.1482  0.5341 -1.1483
16311TIP3    H270425   1.336   1.055   2.436  0.3324 -2.2192 -0.9237
16312TIP3   OH270426   5.094   2.433  14.412 -0.7343  0.6666 -0.4575
16312TIP3    H170427   5.182   2.402  14.388 -0.5608  1.0632 -0.3420
16312TIP3    H270428   5.069   2.492  14.341 -1.0665  0.2668 -0.6784
16313TIP3   OH270429   2.365   5.438   1.542 -0.2743  0.1378 -0.0266
16313TIP3    H170430   2.383   5.443   1.635  0.8504  0.0174 -0.2313
16313TIP3    H270431   2.429   5.375   1.508  0.2460  1.2117 -1.0970
16314TIP3   OH270432   2.644   0.288  15.596 -0.5986  0.6221 -0.4276
16314TIP3    H170433   2.579   0.238  15.547 -0.4694  1.0797 -1.0705
16314TIP3    H270434   2.718   0.297  15.535  0.1292 -0.0114  0.3334
16315TIP3   OH270435   6.202   1.132   4.498 -0.2639 -0.1664  0.3900
16315TIP3    H170436   6.255   1.075   4.554 -0.9285 -0.7309  0.4502
16315TIP3    H270437   6.266   1.187   4.453  0.5755 -2.2056 -1.0937
16316TIP3   OH270438   2.628   6.646  13.530 -0.1635 -0.0241 -0.4242
16316TIP3    H170439   2.629   6.553  13.550 -1.0229  0.1898  0.6737
16316TIP3    H270440   2.577   6.652  13.449 -0.8400 -0.4275 -0.0346
16317TIP3   OH270441   1.195   2.525  11.156  0.7237 -0.1095 -0.2017
16317TIP3    H170442   1.229   2.488  11.075  1.2664  0.4306 -0.2248
16317TIP3    H270443   1.252   2.600  11.174  0.1669  0.2002  0.2981
16318TIP3   OH270444   0.863   1.338   1.851 -0.2323  0.5037 -0.0614
16318TIP3    H170445   0.914   1.417   1.870  1.4821  0.1032 -2.5532
16318TIP3    H270446   0.847   1.341   1.757 -0.1474 -2.0723 -0.2354
16319TIP3   OH270447   3.403   4.387   0.111  0.0912  0.2013 -0.5119
16319TIP3    H170448   3.435   4.467   0.153  1.2063 -0.1915 -0.5779
16319TIP3    H270449   3.393   4.410   0.019 -0.1379  0.4216 -0.4326
16320TIP3   OH270450   4.634   4.111   0.685 -0.4318 -0.3218 -0.4209
16320TIP3    H170451   4.666   4.135   0.772  1.1536 -2.0584 -0.4563
16320TIP3    H270452   4.616   4.195   0.642  0.2898  0.6163  1.0378
16321TIP3   OH270453   6.126   3.258  17.432 -0.7655 -0.1600 -0.6691
16321TIP3    H170454   6.178   3.296  17.361  0.9383  0.3465  0.7838
16321TIP3    H270455   6.169   3.288  17.512 -3.1485  0.0262  0.6342
16322TIP3   OH270456   4.462   1.160   0.331  0.5293  0.4037  0.0961
16322TIP3    H170457   4.404   1.085   0.344 -1.8327  1.4614 -2.9973
16322TIP3    H270458   4.454   1.211   0.411  0.0941 -1.2715  1.1793
16323TIP3   OH270459   2.310   1.995   2.985  0.0486 -0.3047  0.2960
16323TIP3    H170460   2.375   1.968   2.920  0.8879  1.4164  0.3684
16323TIP3    H270461   2.361   2.033   3.056 -0.9657 -0.4202  1.1002
16324TIP3   OH270462   0.635   2.101  16.835 -0.0585 -0.9003  0.0195
16324TIP3    H170463   0.662   2.041  16.766 -1.3840  0.4435 -1.7566
16324TIP3    H270464   0.703   2.169  16.835 -1.0795  0.1919 -1.4692
16325TIP3   OH270465   1.649   5.264   4.377 -0.1032 -0.3858  0.1574
16325TIP3    H170466   1.660   5.227   4.290  0.9449  0.5692 -0.1413
16325TIP3    H270467   1.556   5.285   4.383  0.0005  0.5876 -1.1767
16326TIP3   OH270468   4.496   5.660   1.323  0.3843  0.2820 -0.1529
16326TIP3    H170469   4.476   5.570   1.299  0.5404  0.0817  0.4652
16326TIP3    H270470   4.423   5.711   1.286  0.6876  0.0092 -1.1736
16327TIP3   OH270471   5.850   2.509   1.161 -0.5979 -0.0024 -0.0670
16327TIP3    H170472   5.912   2.465   1.103 -1.6132  0.0011 -1.1975
16327TIP3    H270473   5.832   2.592   1.119  0.0548  0.8340  1.2270
16328TIP3   OH270474   1.936   2.001   1.123 -0.6655 -0.6161  0.2566
16328TIP3    H170475   1.944   2.073   1.060 -1.6330 -0.7140  0.0195
16328TIP3    H270476   1.854   1.957   1.100 -0.3168 -1.5191  0.6950
16329TIP3   OH270477   2.863   1.033   2.543  0.4147 -0.1179  0.3891
16329TIP3    H170478   2.945   1.069   2.509  0.0591 -0.1396 -0.5344
16329TIP3    H270479   2.795   1.080   2.496 -0.0588 -2.4565 -1.4447
16330TIP3   OH270480   3.518   3.036   1.211 -0.0749  0.2701 -0.9131
16330TIP3    H170481   3.604   3.071   1.189 -0.0152 -0.0208 -1.1360
16330TIP3    H270482   3.525   3.011   1.303  0.1859 -0.0861 -1.0300
16331TIP3   OH270483   3.889   6.135  12.623 -0.2042  0.1688 -0.3000
16331TIP3    H170484   3.922   6.045  12.625 -2.2378 -0.6593 -0.8969
16331TIP3    H270485   3.898   6.166  12.713  0.2956 -0.7343 -0.0307
16332TIP3   OH270486   2.775   0.270   3.626  0.0323 -0.5346 -0.5907
16332TIP3    H170487   2.732   0.234   3.704  0.8374 -0.6839 -0.2053
16332TIP3    H270488   2.768   0.365   3.636 -0.0660 -0.5563 -0.4507
16333TIP3   OH270489   4.627   5.070  13.581 -0.6009  0.2603 -0.0791
16333TIP3    H170490   4.714   5.032  13.589 -0.9282 -0.2540  1.2999
16333TIP3    H270491   4.578   5.008  13.527 -0.6186 -0.3836  0.6637
16334TIP3   OH270492   6.044   3.631  11.110  0.2296  0.0987 -0.0810
16334TIP3    H170493   6.129   3.611  11.070  0.3420 -0.2173  0.3094
16334TIP3    H270494   6.064   3.694  11.179 -0.0844  1.3388 -1.0923
16335TIP3   OH270495   1.278   4.181  17.254  0.3317 -0.5667 -0.0277
16335TIP3    H170496   1.261   4.106  17.311 -3.9949 -0.6927 -1.1171
16335TIP3    H270497   1.257   4.150  17.166 -0.8953  1.6714 -0.6139
16336TIP3   OH270498   4.800   6.601   0.127  0.7166 -0.1121 -0.2937
16336TIP3    H170499   4.762   6.672   0.075 -1.1024 -0.7203  0.1301
16336TIP3    H270500   4.824   6.642   0.209 -2.6354 -0.3023  0.9628
16337TIP3   OH270501   4.426   4.005   0.816  0.6704  0.4295 -0.5019
16337TIP3    H170502   4.478   4.075   0.777  1.4249  0.7313  0.9959
16337TIP3    H270503   4.421   4.026   0.909  1.5292 -1.8307  0.1422
16338TIP3   OH270504   3.431   4.594  12.935 -0.0621  0.0619  0.0248
16338TIP3    H170505   3.503   4.532  12.948  0.3799  0.6366  0.3798
16338TIP3    H270506   3.411   4.626  13.023 -0.6088  0.0720 -0.1001
16339TIP3   OH270507   4.116   2.743  13.220  0.1524 -0.0768 -0.3252
16339TIP3    H170508   4.060   2.820  13.224 -0.9841 -0.9163  0.3174
16339TIP3    H270509   4.058   2.671  13.198  0.3186 -1.5151  3.1782
16340TIP3   OH270510   6.198   5.020   0.097 -0.0343  0.3739  0.1107
16340TIP3    H170511   6.228   4.940   0.140 -1.5339  1.1707  2.9580
16340TIP3    H270512   6.266   5.085   0.117  0.1801  0.3135 -0.4031
16341TIP3   OH270513   3.370   6.400  13.350 -0.4788 -0.0314  0.4537
16341TIP3    H170514   3.457   6.369  13.373  0.2795  0.6629 -1.2771
16341TIP3    H270515   3.341   6.341  13.280 -1.3569 -0.1803  0.9253
16342TIP3   OH270516   5.857   3.927   3.220  0.5083 -0.4737  0.0329
16342TIP3    H170517   5.863   3.831   3.216 -0.0934 -0.4769 -1.2040
16342TIP3    H270518   5.767   3.946   3.196 -0.4208  0.2790  3.5548
16343TIP3   OH270519   1.054   5.094  13.793  0.0207 -0.1181  0.1450
16343TIP3    H170520   1.115   5.047  13.850 -0.8257 -0.0389  1.1412
16343TIP3    H270521   0.984   5.123  13.851 -1.3614 -0.8466 -1.0948
16344TIP3   OH270522   2.422   1.340   1.767 -0.2201  0.2135 -0.1565
16344TIP3    H170523   2.418   1.375   1.678 -1.0304  0.1301 -0.1589
16344TIP3    H270524   2.376   1.256   1.761 -0.0384  0.0808  0.2854
16345TIP3   OH270525   6.219   4.421   4.516 -0.0247  0.1801  0.1268
16345TIP3    H170526   6.166   4.415   4.437 -0.6868  3.6919  0.1663
16345TIP3    H270527   6.162   4.389   4.586 -0.1033 -1.1276 -0.5063
16346TIP3   OH270528   6.126   0.888  15.668 -0.2977  0.4189 -0.7449
16346TIP3    H170529   6.043   0.885  15.619  1.0500 -0.5778 -3.1205
16346TIP3    H270530   6.175   0.959  15.626  0.2484  0.6975  0.3447
16347TIP3   OH270531   2.295   1.118  12.324  0.1889  0.1907 -0.2770
16347TIP3    H170532   2.356   1.190  12.312 -1.0407  1.1107 -1.3350
16347TIP3    H270533   2.229   1.152  12.385  0.4149 -0.5766  0.4046
16348TIP3   OH270534   2.929   1.721  13.375 -0.0350  0.3063  0.2187
16348TIP3    H170535   2.991   1.726  13.302 -0.4216 -0.3406 -0.1602
16348TIP3    H270536   2.963   1.785  13.439  0.8966  0.1288 -0.0736
16349TIP3   OH270537   1.522   0.516  11.819 -0.3567 -0.0085 -0.0055
16349TIP3    H170538   1.523   0.430  11.777 -1.9085  0.3762 -0.9284
16349TIP3    H270539   1.550   0.576  11.750  0.4727  0.2678  0.5619
16350TIP3   OH270540   2.102   3.768  14.903 -0.1988  0.6205 -0.2316
16350TIP3    H170541   2.111   3.860  14.930  1.4863  0.2411  0.6393
16350TIP3    H270542   2.081   3.722  14.984 -0.2355  0.1253 -0.5225
16351TIP3   OH270543   3.196   4.176   3.539 -0.3804  0.0121 -0.2850
16351TIP3    H170544   3.186   4.269   3.519 -0.5211  0.1204  0.2675
16351TIP3    H270545   3.150   4.164   3.622 -1.6897 -0.8765 -1.1131
16352TIP3   OH270546   0.093   3.787   6.687  0.0159  0.2936 -0.6493
16352TIP3    H170547   0.188   3.779   6.686  0.1441  1.3366  0.4683
16352TIP3    H270548   0.066   3.747   6.770 -0.2583  2.0421  0.1595
16353TIP3   OH270549   0.520   5.478   4.204  0.4050 -0.6944 -0.7195
16353TIP3    H170550   0.608   5.475   4.242  0.1144 -0.3779 -0.0080
16353TIP3    H270551   0.467   5.423   4.263  0.0900 -0.7502 -1.0522
16354TIP3   OH270552   3.165   3.697  15.275 -0.3955  0.9413  0.6893
16354TIP3    H170553   3.220   3.759  15.228  1.2047  0.8671  2.3509
16354TIP3    H270554   3.226   3.632  15.310 -1.3337  1.3659  3.4002
16355TIP3   OH270555   4.217   4.822   5.970 -0.1558  0.3630 -0.1625
16355TIP3    H170556   4.123   4.838   5.964 -0.0416  1.4215  0.6138
16355TIP3    H270557   4.231   4.795   6.061  0.3239  0.3687 -0.2294
16356TIP3   OH270558   0.501   6.591  15.385  0.2078  0.4644 -0.4518
16356TIP3    H170559   0.502   6.542  15.467 -0.6961 -1.0882 -1.3295
16356TIP3    H270560   0.514   6.682  15.411  0.4173 -0.0591  1.3617
16357TIP3   OH270561   0.580   2.353  12.123  0.4532 -0.1272  0.1779
16357TIP3    H170562   0.501   2.308  12.095  1.0581 -0.5989 -0.8034
16357TIP3    H270563   0.604   2.311  12.206  0.6860 -1.2332 -0.4334
16358TIP3   OH270564   2.755   2.944  14.176 -0.1855  0.4149 -0.3510
16358TIP3    H170565   2.784   2.971  14.264 -1.4066  1.3178 -0.2091
16358TIP3    H270566   2.755   2.848  14.180  1.3596  0.4015  0.0909
16359TIP3   OH270567   6.021   2.446  16.261  0.0591  0.2832  0.5898
16359TIP3    H170568   5.942   2.405  16.296  0.7728 -1.6488  0.0360
16359TIP3    H270569   6.001   2.460  16.168  0.9671 -1.8915  0.0224
16360TIP3   OH270570   3.121   3.713  15.610 -0.1564  0.8629  0.3036
16360TIP3    H170571   3.138   3.693  15.702 -1.9004  1.0427  0.7084
16360TIP3    H270572   3.207   3.717  15.570  0.5751 -1.9269  1.3516
16361TIP3   OH270573   6.752   6.387  12.067 -0.3575 -0.1383  0.1663
16361TIP3    H170574   6.745   6.295  12.093 -2.9627 -0.2256 -0.5186
16361TIP3    H270575   6.763   6.434  12.150 -2.7817 -0.8415  0.9717
16362TIP3   OH270576   2.695   6.435  14.289 -0.0501  0.1634 -0.1538
16362TIP3    H170577   2.772   6.485  14.314 -1.0238  1.3240  0.6636
16362TIP3    H270578   2.632   6.452  14.359  0.1070 -3.5999  1.0999
16363TIP3   OH270579   6.547   3.536  16.135  0.4683  0.2665  0.0761
16363TIP3    H170580   6.465   3.514  16.091  0.0306  1.1297  0.4294
16363TIP3    H270581   6.537   3.501  16.224  0.2171  0.9200  0.3097
16364TIP3   OH270582   3.587   5.884   2.141 -0.1661  0.2278 -0.4950
16364TIP3    H170583   3.628   5.799   2.160  1.2813  1.0037 -0.0286
16364TIP3    H270584   3.637   5.919   2.068 -1.1912  0.3977 -1.1289
16365TIP3   OH270585   2.657   6.564  12.744 -0.5596 -0.5456  0.1090
16365TIP3    H170586   2.633   6.478  12.708  1.9335 -0.5319 -1.9180
16365TIP3    H270587   2.660   6.550  12.839  1.9144 -3.4504 -0.2338
16366TIP3   OH270588   1.985   4.479  15.231 -0.0439  0.0781  0.3641
16366TIP3    H170589   1.993   4.564  15.275  1.2109 -0.0954  0.5073
16366TIP3    H270590   1.986   4.415  15.303  0.1049 -0.1126  0.1929
16367TIP3   OH270591   5.818   5.856   5.087  0.6622  0.6687  0.2899
16367TIP3    H170592   5.805   5.914   5.012 -0.4962 -1.0819 -0.9409
16367TIP3    H270593   5.905   5.877   5.119  0.5507  2.5768 -0.5213
16368TIP3   OH270594   1.491   4.402   0.456  0.2035  0.2771  0.4035
16368TIP3    H170595   1.564   4.428   0.401  0.0341 -1.5743 -0.7609
16368TIP3    H270596   1.506   4.310   0.477 -1.2640  0.1272  0.9969
16369TIP3   OH270597   0.962   6.661  11.547  0.2853 -0.0316 -0.2568
16369TIP3    H170598   0.879   6.686  11.586 -1.1342 -1.6861 -2.0125
16369TIP3    H270599   1.023   6.658  11.620 -1.8399 -1.3847  1.5908
16370TIP3   OH270600   2.549   1.853   4.043  0.9591 -0.2565 -0.0343
16370TIP3    H170601   2.606   1.787   4.083  1.3204  1.0635  1.7448
16370TIP3    H270602   2.554   1.928   4.102 -1.0807  0.6244 -0.8898
16371TIP3   OH270603   2.682   2.846  10.412 -0.5166  0.3801  0.4264
16371TIP3    H170604   2.705   2.809  10.498  0.0061 -1.0747 -0.3116
16371TIP3    H270605   2.613   2.789  10.379 -0.3102  0.5779 -0.3614
16372TIP3   OH270606   0.807   4.612   3.069 -0.3860  0.0307 -0.2054
16372TIP3    H170607   0.888   4.591   3.022 -0.2221  0.1652  0.0147
16372TIP3    H270608   0.837   4.646   3.153 -0.6843 -1.1083  0.3856
16373TIP3   OH270609   3.683   6.357  11.753 -0.3983 -0.2957  0.2755
16373TIP3    H170610   3.712   6.266  11.764  0.0481 -0.2355 -0.3173
16373TIP3    H270611   3.625   6.373  11.827 -0.4112 -1.0365  0.4352
16374TIP3   OH270612   1.990   3.481  15.556  0.3938  0.0413  0.0915
16374TIP3    H170613   2.041   3.485  15.475  1.2665 -0.6126  0.5940
16374TIP3    H270614   2.000   3.568  15.594  0.9433 -0.0042  0.0628
16375TIP3   OH270615   5.251   2.181  13.476 -0.3896 -0.1824  0.0805
16375TIP3    H170616   5.323   2.120  13.492 -0.0831 -0.0860 -0.8628
16375TIP3    H270617   5.172   2.126  13.479 -0.2972 -0.2794  1.1530
16376TIP3   OH270618   0.679   6.352   0.405  0.2211  0.4107 -0.1135
16376TIP3    H170619   0.754   6.293   0.408 -1.5926 -2.1270 -1.3342
16376TIP3    H270620   0.651   6.360   0.497  2.2572  1.8957  0.4387
16377TIP3   OH270621   3.207   2.005   1.791  0.9986  0.9202 -0.1543
16377TIP3    H170622   3.126   2.027   1.746  0.9096 -0.1764 -0.5543
16377TIP3    H270623   3.180   1.981   1.880  0.6896 -0.8182 -0.6813
16378TIP3   OH270624   4.318   6.495  11.942 -0.2628 -0.2081 -0.0289
16378TIP3    H170625   4.401   6.494  11.990  1.0393 -1.4111 -2.1450
16378TIP3    H270626   4.254   6.464  12.006  1.3316 -1.4939  1.0475
16379TIP3   OH270627   0.068   5.162   0.108  0.2384  0.0352 -0.1073
16379TIP3    H170628  -0.013   5.122   0.142 -0.1496  1.5498  0.8585
16379TIP3    H270629   0.067   5.251   0.145  2.1093  0.2339 -0.4850
16380TIP3   OH270630   4.874   2.815  12.656 -0.0497  0.2386 -0.3397
16380TIP3    H170631   4.945   2.815  12.720 -1.2167  2.3354  1.0655
16380TIP3    H270632   4.799   2.778  12.702 -0.4782  0.2096 -1.0397
16381TIP3   OH270633   4.925   4.301  11.881  0.5238  0.5091 -0.2759
16381TIP3    H170634   4.861   4.309  11.952 -0.2966 -0.0142 -0.9416
16381TIP3    H270635   5.009   4.286  11.926  0.5660  3.0720  0.7073
16382TIP3   OH270636   6.731   2.242  14.818  0.8935  0.4506  0.1302
16382TIP3    H170637   6.804   2.282  14.769  0.8470  1.3939  0.7859
16382TIP3    H270638   6.715   2.304  14.890  1.1832 -1.0371  1.5366
16383TIP3   OH270639   6.502   5.424  10.447 -0.1245  0.3259  0.3113
16383TIP3    H170640   6.457   5.422  10.531 -1.3777  1.2795 -0.2831
16383TIP3    H270641   6.563   5.498  10.453 -0.1199  0.3112  0.4299
16384TIP3   OH270642   2.785   1.148   0.177 -0.3113 -0.0643  0.1188
16384TIP3    H170643   2.758   1.234   0.209  1.1855  0.9062 -1.1014
16384TIP3    H270644   2.832   1.166   0.096 -1.1536 -2.1707 -0.9054
16385TIP3   OH270645   4.232   3.906  16.583  0.3838  0.0315 -0.8549
16385TIP3    H170646   4.154   3.943  16.542 -0.2113 -2.8988 -2.6518
16385TIP3    H270647   4.209   3.898  16.675  0.1482  2.8515 -0.5735
16386TIP3   OH270648   0.968   4.722  15.698 -0.1197 -0.4196  0.2477
16386TIP3    H170649   0.911   4.758  15.767 -0.1699 -0.3277  0.1590
16386TIP3    H270650   0.965   4.788  15.629 -0.1165 -0.5395  0.1328
16387TIP3   OH270651   0.295   5.301   3.306 -0.1467  0.6287 -0.3533
16387TIP3    H170652   0.339   5.218   3.323 -0.6828  0.4373  0.1350
16387TIP3    H270653   0.345   5.341   3.235  0.0186 -0.1800 -0.6977
16388TIP3   OH270654   3.012   2.382  14.424  0.4324 -0.1408  0.4374
16388TIP3    H170655   3.007   2.334  14.506  0.0003 -2.1409 -0.6860
16388TIP3    H270656   3.051   2.466  14.447 -0.7022 -0.2071  2.8337
16389TIP3   OH270657   0.807   3.752   5.477  0.5934 -0.2157  0.2022
16389TIP3    H170658   0.859   3.806   5.417  0.9211  1.4815  1.9271
16389TIP3    H270659   0.738   3.811   5.509 -1.3899 -1.9201 -0.6887
16390TIP3   OH270660   0.009   3.667   0.852 -0.0966 -0.0127  0.4418
16390TIP3    H170661   0.062   3.697   0.778 -1.6946 -0.4841 -0.9566
16390TIP3    H270662   0.032   3.574   0.861 -0.7598 -0.2612 -0.2764
16391TIP3   OH270663   0.404   3.317   3.914  0.4905 -0.0578 -0.2807
16391TIP3    H170664   0.419   3.408   3.939 -1.0401  0.1845 -0.1386
16391TIP3    H270665   0.338   3.286   3.976 -0.7173 -0.5439 -1.7415
16392TIP3   OH270666   6.650   6.241   2.296  0.1323  0.0235  0.2069
16392TIP3    H170667   6.677   6.222   2.206  0.6071 -1.6678  0.6626
16392TIP3    H270668   6.732   6.263   2.341  0.0252 -0.0454  0.4355
16393TIP3   OH270669   1.089   0.813   2.676 -0.3732  0.3688 -0.3976
16393TIP3    H170670   1.070   0.835   2.585 -1.1422 -1.8701 -0.8569
16393TIP3    H270671   1.006   0.826   2.722 -0.1527  0.9003 -0.1513
16394TIP3   OH270672   2.905   2.326   4.614  0.6768  0.1846  0.3125
16394TIP3    H170673   2.941   2.289   4.695 -0.9357  1.5104  1.7145
16394TIP3    H270674   2.811   2.333   4.631  0.5815  2.4550 -0.8574
16395TIP3   OH270675   1.754   2.585  12.665 -0.0589  0.0754 -0.0933
16395TIP3    H170676   1.706   2.569  12.583 -3.6909  1.7187  1.5098
16395TIP3    H270677   1.814   2.657  12.644 -1.2207  0.7576 -1.2260
16396TIP3   OH270678   1.858   0.073   4.913  0.2469  0.4431 -0.2199
16396TIP3    H170679   1.835   0.104   4.826 -1.1652 -0.9286 -0.3815
16396TIP3    H270680   1.827  -0.018   4.915 -0.3877  0.6524  1.9418
16397TIP3   OH270681   1.441   4.112  16.631 -0.6121  0.5240 -0.5001
16397TIP3    H170682   1.412   4.054  16.561 -0.3532 -0.4957  0.2049
16397TIP3    H270683   1.362   4.159  16.657 -2.0265 -2.7178  1.8823
16398TIP3   OH270684   0.083   1.413  11.531  0.1211  0.2611  0.4889
16398TIP3    H170685   0.106   1.372  11.447 -2.6241  0.0858 -0.2453
16398TIP3    H270686   0.092   1.342  11.595 -2.7974 -1.1449 -0.4987
16399TIP3   OH270687   6.703   4.506   4.555 -0.0723 -0.4800  0.3982
16399TIP3    H170688   6.739   4.447   4.488 -1.9619 -1.1597 -0.0825
16399TIP3    H270689   6.650   4.448   4.611 -1.6790  0.6784  0.1297
16400TIP3   OH270690   6.198   6.604  16.134 -0.5204 -0.3051  0.0534
16400TIP3    H170691   6.129   6.664  16.107 -0.3298  0.9313  2.1466
16400TIP3    H270692   6.261   6.606  16.062 -1.3655  0.6221 -0.6849
16401TIP3   OH270693   0.330   6.188   0.693 -0.2056 -0.2997  0.7817
16401TIP3    H170694   0.393   6.116   0.688 -0.2834 -0.3069 -0.6899
16401TIP3    H270695   0.246   6.147   0.673 -0.0930  0.3330 -1.2685
16402TIP3   OH270696   3.906   2.443   2.479  0.5881  0.3316  0.3493
16402TIP3    H170697   3.816   2.413   2.491  0.7705  0.0850  1.1652
16402TIP3    H270698   3.934   2.402   2.397 -0.3658  1.2285 -0.4510
16403TIP3   OH270699   0.800   6.447  16.332 -0.0390  0.3887 -0.6324
16403TIP3    H170700   0.778   6.364  16.375 -1.8273  1.4332  0.5678
16403TIP3    H270701   0.893   6.437  16.308 -0.1452 -1.8642 -0.3609
16404TIP3   OH270702   3.189   0.411  12.239 -0.0420 -0.4107 -0.1188
16404TIP3    H170703   3.209   0.350  12.310  1.4098 -0.9317 -0.9194
16404TIP3    H270704   3.202   0.498  12.276  0.2737 -0.6634  0.3630
16405TIP3   OH270705   1.880   2.738  15.034  0.0808  0.3541 -0.2236
16405TIP3    H170706   1.816   2.779  15.093  1.1552 -0.3861  1.5439
16405TIP3    H270707   1.936   2.810  15.006  1.3684  0.3244  2.0862
16406TIP3   OH270708   4.277   6.719  12.244 -0.1587  0.0459 -0.0037
16406TIP3    H170709   4.340   6.647  12.249  0.0758  0.2790  0.5527
16406TIP3    H270710   4.270   6.751  12.334  0.1447  1.0477 -0.3094
16407TIP3   OH270711   5.878   0.022  16.447 -0.2228  0.7821 -0.5565
16407TIP3    H170712   5.806   0.016  16.384 -0.6704  0.2039 -0.0143
16407TIP3    H270713   5.844  -0.022  16.525 -0.0502  2.3637  0.4445
16408TIP3   OH270714   4.007   6.507   0.602  0.4855 -0.2460  0.5590
16408TIP3    H170715   4.017   6.536   0.511  0.2719  0.1058  0.6492
16408TIP3    H270716   3.924   6.544   0.630  1.0473  0.5254  1.2402
16409TIP3   OH270717   2.035   2.350   4.893 -0.1311 -0.2479  0.2751
16409TIP3    H170718   2.047   2.417   4.826  1.4934 -0.2931  0.4821
16409TIP3    H270719   2.075   2.271   4.856  0.2327 -0.4321  1.0460
16410TIP3   OH270720   0.067   6.735  12.664 -0.3487 -0.6398  0.5495
16410TIP3    H170721   0.022   6.651  12.663  0.0883 -0.9569  2.6138
16410TIP3    H270722   0.078   6.758  12.572 -0.3368 -2.9134 -0.0700
16411TIP3   OH270723   0.561   3.842  11.549  0.2445  0.2049 -0.3526
16411TIP3    H170724   0.560   3.794  11.632 -1.4634 -1.4450 -1.2645
16411TIP3    H270725   0.595   3.929  11.572  3.0653 -1.2214  1.4315
16412TIP3   OH270726   0.341   6.195   4.353 -0.4843 -0.4051  0.5670
16412TIP3    H170727   0.291   6.265   4.394  0.2234  0.5387 -0.1397
16412TIP3    H270728   0.412   6.240   4.307 -1.2132 -1.3940 -1.6408
16413TIP3   OH270729   3.240   0.537  13.888  0.0613 -0.1175 -0.7873
16413TIP3    H170730   3.241   0.445  13.862 -0.9399 -0.8409  1.4686
16413TIP3    H270731   3.155   0.569  13.860 -0.4595 -0.5110  0.2915
16414TIP3   OH270732   5.184   1.391   5.733 -0.2694 -0.7644  0.2602
16414TIP3    H170733   5.267   1.370   5.775  0.3822  0.9244 -0.1081
16414TIP3    H270734   5.121   1.330   5.772  0.9499 -1.4567  1.2172
16415TIP3   OH270735   0.413   1.165  16.950 -0.2497  0.0754 -0.1463
16415TIP3    H170736   0.367   1.232  16.999 -0.1995 -1.0258  1.4663
16415TIP3    H270737   0.348   1.095  16.938  0.5054 -0.8133  0.7616
16416TIP3   OH270738   5.770   6.681   5.697  0.3603 -0.8477 -0.4447
16416TIP3    H170739   5.832   6.650   5.632  1.7451 -1.2464  1.0145
16416TIP3    H270740   5.684   6.652   5.664  0.8328  0.0716 -2.6985
16417TIP3   OH270741   5.652   3.420   0.520  0.6279  0.4242  0.1011
16417TIP3    H170742   5.655   3.411   0.425  0.1763 -1.2026  0.2146
16417TIP3    H270743   5.662   3.514   0.535 -1.4718  1.0284 -1.6615
16418TIP3   OH270744   1.028   6.657  12.319  0.7477 -0.1062 -0.3336
16418TIP3    H170745   1.060   6.720  12.383 -0.0102  0.6226 -0.6443
16418TIP3    H270746   1.002   6.581  12.370 -0.3936  0.6846  0.3084
16419TIP3   OH270747   0.952   1.079   2.859 -0.1107  0.7396 -0.1569
16419TIP3    H170748   0.871   1.077   2.911  1.0954  1.5557  1.8582
16419TIP3    H270749   0.928   1.123   2.778 -1.7829  0.5448  0.2006
16420TIP3   OH270750   0.615   4.100   6.701  0.2599  0.1211  0.2529
16420TIP3    H170751   0.570   4.067   6.779  0.8330  1.0886  1.0248
16420TIP3    H270752   0.566   4.178   6.676 -0.2813 -0.5280 -0.7297
16421TIP3   OH270753   2.703   4.566  10.989  1.0883  0.6620  0.0847
16421TIP3    H170754   2.735   4.539  10.903 -0.0352  1.1934 -0.5323
16421TIP3    H270755   2.704   4.662  10.986  0.9967  0.6824  0.6488
16422TIP3   OH270756   5.279   0.463  16.295 -0.3681 -0.6597 -0.2992
16422TIP3    H170757   5.319   0.455  16.209 -0.9388 -1.5879 -0.4943
16422TIP3    H270758   5.340   0.419  16.354  0.5349  0.8791 -0.0421
16423TIP3   OH270759   0.177   2.269   3.769  0.2838  0.0043  0.4691
16423TIP3    H170760   0.150   2.204   3.834  1.9279 -1.0476  0.1784
16423TIP3    H270761   0.256   2.309   3.807 -0.0941  1.0734  0.1610
16424TIP3   OH270762   3.718   2.419  11.217  0.3065 -0.2353  0.0589
16424TIP3    H170763   3.744   2.511  11.215 -0.8793  0.1187 -2.5210
16424TIP3    H270764   3.623   2.420  11.214  0.2949 -1.5114 -1.3328
16425TIP3   OH270765   4.881   5.845   6.204 -0.4378 -0.5573  0.2228
16425TIP3    H170766   4.936   5.915   6.170  1.6738 -1.7572  1.0028
16425TIP3    H270767   4.870   5.866   6.297 -2.2118  0.2066 -0.1249
16426TIP3   OH270768   6.626   0.918   0.374 -0.2742  0.2268 -0.0787
16426TIP3    H170769   6.691   0.864   0.418 -0.4134 -1.0375 -1.3591
16426TIP3    H270770   6.663   0.934   0.287 -1.3126  0.1738 -0.5476
16427TIP3   OH270771   4.868   5.922  14.725 -0.0574 -0.2192  0.6080
16427TIP3    H170772   4.915   6.004  14.734  1.3056 -0.9533  0.3772
16427TIP3    H270773   4.920   5.858  14.774 -1.9009 -0.6667  2.1190
16428TIP3   OH270774   4.127   3.210   2.898  0.1966  0.1840  0.1968
16428TIP3    H170775   4.138   3.248   2.810 -0.9763  0.2005  0.0504
16428TIP3    H270776   4.091   3.123   2.882 -2.8429  1.2351  0.7165
16429TIP3   OH270777   2.626   6.765  11.748 -0.3101  0.5040 -0.1833
16429TIP3    H170778   2.570   6.741  11.822 -0.3980 -0.9720 -0.6869
16429TIP3    H270779   2.572   6.824  11.695 -0.7654  0.4427  0.2098
16430TIP3   OH270780   0.917   3.129  11.892 -0.4986  0.2251 -0.3528
16430TIP3    H170781   0.955   3.209  11.856 -0.3252  1.1318  1.7089
16430TIP3    H270782   0.841   3.159  11.942 -0.9731 -1.0140 -0.2894
16431TIP3   OH270783   5.224   3.709   1.048  0.2076  0.0717 -0.5535
16431TIP3    H170784   5.272   3.789   1.066 -0.4722  0.4889 -0.5586
16431TIP3    H270785   5.187   3.684   1.133 -0.9678  0.6906 -0.8654
16432TIP3   OH270786   5.752   1.234  17.372 -0.6265 -0.1718 -0.5852
16432TIP3    H170787   5.735   1.326  17.393 -0.6579  0.0447 -1.5213
16432TIP3    H270788   5.669   1.200  17.340  0.0666  0.2994 -3.0759
16433TIP3   OH270789   5.653   6.000  16.964  0.4498  0.3423  0.0119
16433TIP3    H170790   5.561   6.004  16.989  0.1471 -0.8810 -0.7969
16433TIP3    H270791   5.696   6.065  17.019 -1.1347  2.0800 -0.6983
16434TIP3   OH270792   6.264   6.338  14.400 -0.0531 -0.3327  0.2382
16434TIP3    H170793   6.221   6.256  14.425  0.7978 -0.6805  0.6134
16434TIP3    H270794   6.303   6.319  14.314  0.8985 -0.6189  0.7235
16435TIP3   OH270795   4.982   2.439   3.762 -0.4394 -0.6177  0.1446
16435TIP3    H170796   4.992   2.427   3.668 -1.7785 -0.9127  0.0188
16435TIP3    H270797   5.066   2.412   3.799 -0.0911 -1.0326 -0.9124
16436TIP3   OH270798   2.908   2.701   4.926  0.4920  0.6679  0.2414
16436TIP3    H170799   2.882   2.793   4.917 -2.0521 -0.0805 -0.8796
16436TIP3    H270800   2.900   2.684   5.020  1.2711  1.6445  0.5010
16437TIP3   OH270801   6.244   2.550   5.674  0.0730 -0.8748 -0.4643
16437TIP3    H170802   6.233   2.497   5.752 -0.5997 -0.0221  0.0323
16437TIP3    H270803   6.327   2.596   5.687 -1.7700  2.1931  1.5860
16438TIP3   OH270804   3.843   6.153   1.750  0.1945 -0.4668  0.5150
16438TIP3    H170805   3.834   6.246   1.768  0.9239 -0.1474 -0.6516
16438TIP3    H270806   3.803   6.141   1.664  2.9433 -0.5646 -0.8698
16439TIP3   OH270807   4.755   2.243  11.695  0.0993 -0.1557  0.3888
16439TIP3    H170808   4.727   2.236  11.786 -0.2028 -0.7472  0.2516
16439TIP3    H270809   4.849   2.225  11.698  0.8210  3.0505  1.0237
16440TIP3   OH270810   2.366   0.138  12.463 -0.5933 -0.1046 -0.1106
16440TIP3    H170811   2.435   0.203  12.480 -1.7293  1.0243  0.3705
16440TIP3    H270812   2.366   0.127  12.368 -0.9590  1.2838 -0.2913
16441TIP3   OH270813   0.975   2.555  12.883 -0.1526 -0.4868  0.5917
16441TIP3    H170814   0.892   2.551  12.836  0.6922 -0.5258 -0.9623
16441TIP3    H270815   0.964   2.495  12.957 -2.3557  1.3375  1.8917
16442TIP3   OH270816   5.619   4.090  13.949 -0.1622  0.1009 -0.0434
16442TIP3    H170817   5.712   4.111  13.938  0.1935 -1.9367 -1.5599
16442TIP3    H270818   5.595   4.129  14.033  2.0761  0.6141  0.4213
16443TIP3   OH270819   0.403   5.464  15.861  0.7591 -0.0605 -0.5343
16443TIP3    H170820   0.324   5.504  15.897  2.2070  1.4252  1.2164
16443TIP3    H270821   0.431   5.524  15.792  0.0971 -0.8709 -1.5289
16444TIP3   OH270822   1.687   5.488   4.918  0.0642  0.2453  0.4297
16444TIP3    H170823   1.703   5.519   4.829  0.6016  0.9112  0.7495
16444TIP3    H270824   1.752   5.533   4.971 -1.2487  1.0491  1.4098
16445TIP3   OH270825   3.268   5.588  15.097 -0.0004  0.3935 -0.3206
16445TIP3    H170826   3.246   5.602  15.005 -1.7792  0.3592  0.0656
16445TIP3    H270827   3.191   5.547  15.135  1.6099 -1.9117  0.6837
16446TIP3   OH270828   3.876   3.652  14.670  0.2453 -0.7111  0.1932
16446TIP3    H170829   3.898   3.560  14.684  1.2650 -0.1916  2.4513
16446TIP3    H270830   3.912   3.673  14.584 -0.1911 -2.4385 -0.4489
16447TIP3   OH270831   2.813   3.733   1.062  0.3455 -0.2680  0.2843
16447TIP3    H170832   2.814   3.641   1.088 -0.3895 -0.4683 -0.3515
16447TIP3    H270833   2.904   3.762   1.071  0.6289 -1.1249  0.2591
16448TIP3   OH270834   0.487   4.270   1.853  0.9320  0.0829  0.8836
16448TIP3    H170835   0.400   4.267   1.891  1.1576 -0.5122  1.3699
16448TIP3    H270836   0.472   4.262   1.759  0.4508  0.2389  0.9442
16449TIP3   OH270837   5.145   5.038   3.688 -0.5882 -0.0086  0.2093
16449TIP3    H170838   5.179   5.082   3.766  3.2993 -0.1348 -1.1961
16449TIP3    H270839   5.125   5.109   3.627  0.7210  0.0132 -0.2224
16450TIP3   OH270840   6.290   3.456  15.256 -0.4624  0.5958 -0.6507
16450TIP3    H170841   6.240   3.410  15.189 -0.6053 -0.4724  0.1724
16450TIP3    H270842   6.377   3.468  15.217 -0.3382 -0.6275 -0.7762
16451TIP3   OH270843   4.497   2.046   2.548  0.1787  0.4888 -0.5888
16451TIP3    H170844   4.547   2.073   2.625 -0.9739  0.3424  0.2397
16451TIP3    H270845   4.517   2.112   2.482 -0.5671  1.9287  0.5698
16452TIP3   OH270846   6.378   4.023   3.749 -0.1722 -0.5415 -0.0679
16452TIP3    H170847   6.375   3.974   3.831  0.9047 -0.7906 -0.1742
16452TIP3    H270848   6.430   4.101   3.769 -0.9088  0.0054 -0.2083
16453TIP3   OH270849   1.367   2.063  16.099  0.4103  0.3635  0.5509
16453TIP3    H170850   1.344   2.015  16.019 -1.2315  0.0685  1.1455
16453TIP3    H270851   1.440   2.014  16.137  0.2804 -0.3159 -0.0590
16454TIP3   OH270852   4.158   2.053  13.754  0.6512  0.0739 -0.0298
16454TIP3    H170853   4.128   2.102  13.678  2.6138  3.6056  1.2388
16454TIP3    H270854   4.115   2.096  13.828  0.7048 -1.6453  1.0488
16455TIP3   OH270855   5.404   0.054   2.589  0.3630 -0.2368 -0.6898
16455TIP3    H170856   5.438   0.009   2.512  0.6351 -1.3412  0.0573
16455TIP3    H270857   5.310   0.036   2.588  0.1510  0.8141 -1.4395
16456TIP3   OH270858   2.497   4.483  11.510  0.0243  0.1224 -0.5967
16456TIP3    H170859   2.478   4.554  11.571  2.0012 -0.9442  1.4315
16456TIP3    H270860   2.488   4.522  11.424 -1.1134  2.2059  0.3939
16457TIP3   OH270861   1.115   1.379   3.441 -0.1374 -0.2134 -0.0241
16457TIP3    H170862   1.049   1.310   3.435 -0.9927  0.4270  1.3760
16457TIP3    H270863   1.193   1.335   3.475 -0.0321 -0.8503 -1.0626
16458TIP3   OH270864   4.024   5.225  14.193 -0.1317 -0.6831 -0.0830
16458TIP3    H170865   4.050   5.172  14.117  0.5092 -1.4146  0.6318
16458TIP3    H270866   4.101   5.224  14.250  0.1328  1.5072 -0.2828
16459TIP3   OH270867   2.357   2.045   0.456  0.2440 -0.1713 -0.3808
16459TIP3    H170868   2.284   2.057   0.517  0.5255  1.7472 -0.3838
16459TIP3    H270869   2.391   1.958   0.478 -0.0719  0.1837  1.7926
16460TIP3   OH270870   0.607   2.415  12.551  0.1488  0.1011  0.4441
16460TIP3    H170871   0.571   2.466  12.624  0.1486  0.3903  0.2425
16460TIP3    H270872   0.601   2.473  12.476 -1.6554 -0.8596 -0.2231
16461TIP3   OH270873   1.137   3.077  16.562 -0.4621  0.1577 -0.1661
16461TIP3    H170874   1.159   3.165  16.591  1.4122  0.0414 -1.0313
16461TIP3    H270875   1.061   3.088  16.506  0.4379  1.4075 -1.1928
16462TIP3   OH270876   5.797   2.794   2.863 -0.0666  0.1902 -0.5961
16462TIP3    H170877   5.885   2.790   2.900 -0.1965 -1.2561 -0.3866
16462TIP3    H270878   5.750   2.854   2.920  0.3308 -0.3310  0.3063
16463TIP3   OH270879   6.172   3.197   4.249 -0.3791  0.3374 -0.0103
16463TIP3    H170880   6.108   3.127   4.237 -0.7423  0.5598  0.5760
16463TIP3    H270881   6.252   3.152   4.275 -0.4675  0.0992 -0.1497
16464TIP3   OH270882   6.756   2.235   1.001 -0.5486  0.2770 -0.0410
16464TIP3    H170883   6.680   2.269   1.047  0.8413  1.7468  1.2592
16464TIP3    H270884   6.770   2.296   0.929 -1.5603 -0.9529 -1.3602
16465TIP3   OH270885   3.360   2.419  16.742 -0.2925  0.2192  0.2817
16465TIP3    H170886   3.321   2.344  16.788  2.3097 -1.7227 -0.4349
16465TIP3    H270887   3.389   2.383  16.658  2.4499  1.5951  0.5552
16466TIP3   OH270888   4.259   4.722   0.650  0.2444 -0.0903  0.0451
16466TIP3    H170889   4.282   4.751   0.738  0.7887 -1.4074  0.3517
16466TIP3    H270890   4.324   4.765   0.594  1.0952 -0.7511  0.5017
16467TIP3   OH270891   0.467   1.495  17.067 -0.5749 -0.4444 -0.1691
16467TIP3    H170892   0.463   1.520  17.159 -1.5413  2.0658 -0.8210
16467TIP3    H270893   0.376   1.471  17.045 -0.2416 -1.6016 -0.3489
16468TIP3   OH270894   5.005   0.558   0.660 -0.5882 -0.5222  0.1454
16468TIP3    H170895   5.016   0.483   0.601  1.5846  0.6985 -1.1368
16468TIP3    H270896   5.094   0.578   0.690 -0.9904  1.8397 -0.0127
16469TIP3   OH270897   4.606   3.589  14.508  0.0594 -0.1871 -0.0217
16469TIP3    H170898   4.515   3.562  14.495 -0.3454  0.6023  1.0282
16469TIP3    H270899   4.624   3.569  14.600  2.0157 -3.3220 -0.9570
16470TIP3   OH270900   5.094   0.741  12.561  0.5860  0.4625  0.1341
16470TIP3    H170901   5.139   0.697  12.489  0.2654  1.4033 -0.6617
16470TIP3    H270902   5.100   0.834  12.539 -0.3532  0.7007  0.8357
16471TIP3   OH270903   1.392   0.361  12.398 -0.1051  0.2051 -0.5169
16471TIP3    H170904   1.302   0.385  12.373 -1.0808 -2.6578 -0.1304
16471TIP3    H270905   1.408   0.411  12.477 -1.0434  1.3798 -1.0314
16472TIP3   OH270906   0.553   2.603   5.371  0.5707  0.3672 -0.7092
16472TIP3    H170907   0.540   2.691   5.405  1.4505  0.8888 -1.6653
16472TIP3    H270908   0.560   2.614   5.276  1.2120 -0.6629 -0.8032
16473TIP3   OH270909   2.209   3.398   0.553 -0.0499  0.6952 -0.3323
16473TIP3    H170910   2.196   3.485   0.516  0.9091  1.7600  1.6197
16473TIP3    H270911   2.303   3.394   0.571  0.4160 -1.7806 -2.6475
16474TIP3   OH270912   0.760   5.539   5.016  0.1904  0.3380 -0.1300
16474TIP3    H170913   0.717   5.479   5.077  1.1398 -0.7567 -0.5026
16474TIP3    H270914   0.744   5.500   4.929 -0.7418  1.6211 -0.5545
16475TIP3   OH270915   6.097   2.564  14.954  0.3703  0.0418  0.3507
16475TIP3    H170916   6.049   2.565  14.871  0.2825  1.2278  0.3973
16475TIP3    H270917   6.179   2.609  14.935  1.8501 -2.5296  0.1042
16476TIP3   OH270918   2.573   0.911  16.529  0.2872  0.2247 -0.4631
16476TIP3    H170919   2.578   1.005  16.510  0.7122  0.0760 -1.1170
16476TIP3    H270920   2.660   0.878  16.506  0.2794 -0.2571  0.1788
16477TIP3   OH270921   2.818   2.313  14.210 -0.3814  0.5743 -0.3713
16477TIP3    H170922   2.842   2.231  14.167  0.8301  0.9346 -0.4173
16477TIP3    H270923   2.881   2.322  14.282 -0.4762  1.4754 -0.3865
16478TIP3   OH270924   2.766   5.838  15.293  0.2989 -0.2564 -0.1238
16478TIP3    H170925   2.736   5.747  15.302 -0.3487 -0.1088 -0.6583
16478TIP3    H270926   2.856   5.837  15.324  0.2124 -1.0282  0.1296
16479TIP3   OH270927   0.323   0.448   1.578 -0.1797  0.4505 -0.1504
16479TIP3    H170928   0.371   0.365   1.573 -1.4233 -0.2124 -1.7051
16479TIP3    H270929   0.234   0.423   1.602 -0.2314  1.4965  0.8290
16480TIP3   OH270930   2.568   1.657   3.188  0.1911  0.3801  0.4690
16480TIP3    H170931   2.648   1.697   3.222  2.5264 -1.7459 -2.1068
16480TIP3    H270932   2.579   1.564   3.205 -2.0108  0.0682  0.4598
16481TIP3   OH270933   5.310   6.680  15.308  0.6207 -0.2164  0.4642
16481TIP3    H170934   5.277   6.742  15.374  0.8637 -0.6425  0.9940
16481TIP3    H270935   5.267   6.707  15.227 -1.2626 -0.9350  1.1672
16482TIP3   OH270936   4.016   0.683  17.230 -0.4642  0.5828  0.4331
16482TIP3    H170937   3.982   0.612  17.176 -0.1781  0.5291  0.3221
16482TIP3    H270938   4.098   0.649  17.265  0.1435  1.1887 -0.3596
16483TIP3   OH270939   3.672   0.656  13.437 -0.1416 -0.6575  0.1830
16483TIP3    H170940   3.601   0.720  13.439 -1.6846 -2.2929 -0.2118
16483TIP3    H270941   3.689   0.637  13.530  1.2628  1.2235  0.3815
16484TIP3   OH270942   4.062   3.202  12.984 -0.0218 -0.1400  0.6331
16484TIP3    H170943   3.995   3.228  12.920  0.2679 -0.6680  0.1097
16484TIP3    H270944   4.037   3.113  13.009  0.2359 -0.1703  0.7783
16485TIP3   OH270945   5.020   2.764  16.786 -0.3871  0.6029  0.4090
16485TIP3    H170946   5.015   2.860  16.783 -1.2077  0.5420 -1.4388
16485TIP3    H270947   5.114   2.745  16.780 -0.2668  1.2893 -0.0552
16486TIP3   OH270948   2.377   6.510   2.845 -0.4340  0.1198  0.0123
16486TIP3    H170949   2.457   6.460   2.863 -1.2864 -0.7374  1.5811
16486TIP3    H270950   2.307   6.446   2.851 -1.3480  1.0618 -0.3334
16487TIP3   OH270951   4.540   4.228  11.820 -0.1456  0.7920 -0.2639
16487TIP3    H170952   4.489   4.281  11.758  0.0378  0.8510 -0.3675
16487TIP3    H270953   4.478   4.205  11.889 -0.6917 -0.3081 -1.0759
16488TIP3   OH270954   1.464   1.102   0.986  0.2202  0.6948  0.3254
16488TIP3    H170955   1.550   1.122   0.950  0.2482  0.2238  0.1167
16488TIP3    H270956   1.426   1.187   1.007  0.4985  0.9390 -0.1326
16489TIP3   OH270957   5.171   0.582  12.290  0.0385  0.3960  0.3840
16489TIP3    H170958   5.264   0.601  12.293  0.1653  0.1641 -1.0366
16489TIP3    H270959   5.162   0.518  12.219 -1.4359  2.0298 -0.9860
16490TIP3   OH270960   4.937   3.255   0.342 -0.3853  0.3000  0.2892
16490TIP3    H170961   4.905   3.326   0.397 -0.1157 -0.2430  1.1642
16490TIP3    H270962   4.949   3.181   0.402  0.6334 -0.0839 -0.3644
16491TIP3   OH270963   0.850   1.225   2.647  0.2545  0.2357 -0.2212
16491TIP3    H170964   0.783   1.243   2.582 -1.7362 -2.3599  0.9123
16491TIP3    H270965   0.836   1.290   2.716  0.8069  1.4660 -1.2339
16492TIP3   OH270966   2.526   3.151  13.167 -0.6528  0.2636 -0.3678
16492TIP3    H170967   2.497   3.121  13.081 -0.0691 -1.9745  0.1573
16492TIP3    H270968   2.524   3.247  13.161 -1.0655  0.1653 -2.6925
16493TIP3   OH270969   0.210   3.491   5.336 -0.3017  0.0156  0.1030
16493TIP3    H170970   0.230   3.549   5.262  1.7727 -1.2115 -0.3648
16493TIP3    H270971   0.211   3.403   5.299 -2.0238 -0.4549  1.0833
16494TIP3   OH270972   1.344   2.240   1.901 -0.0134  0.6214  0.2211
16494TIP3    H170973   1.408   2.168   1.903 -0.0154  0.6248  1.3890
16494TIP3    H270974   1.263   2.199   1.868  0.5999  0.6465 -1.3790
16495TIP3   OH270975   6.092   5.330  12.561  0.4973 -0.2012  0.2483
16495TIP3    H170976   6.185   5.354  12.566  0.2881  0.8855 -0.6163
16495TIP3    H270977   6.091   5.234  12.562  1.5755 -0.2189  0.9421
16496TIP3   OH270978   1.569   2.092  14.719  0.2929 -0.3286 -0.1000
16496TIP3    H170979   1.545   1.999  14.728 -0.5363 -0.2033 -0.8992
16496TIP3    H270980   1.597   2.101  14.628  1.4324 -0.0151  0.2640
16497TIP3   OH270981   0.228   0.255   2.768  0.7743  0.2650  0.2349
16497TIP3    H170982   0.158   0.213   2.718  1.5182  0.0751 -0.6624
16497TIP3    H270983   0.196   0.344   2.783  0.6508  0.4034 -0.8086
16498TIP3   OH270984   3.385   5.071  11.143  0.5473  0.8005  0.0443
16498TIP3    H170985   3.464   5.125  11.139  2.3689 -1.6834  0.7270
16498TIP3    H270986   3.409   4.996  11.196 -1.8923 -0.7057 -0.8221
16499TIP3   OH270987   1.666   6.715   2.885 -0.2621 -0.1187  0.3898
16499TIP3    H170988   1.613   6.784   2.924 -0.2532  1.6749 -2.4704
16499TIP3    H270989   1.755   6.751   2.883 -0.3888  0.2151 -1.8171
16500TIP3   OH270990   0.341   2.291  13.052  0.0616 -0.3654 -0.8170
16500TIP3    H170991   0.297   2.215  13.090 -0.3220  0.1133 -0.2985
16500TIP3    H270992   0.364   2.263  12.963  2.3492 -2.0293  0.2186
16501TIP3   OH270993   3.985   3.144   6.126 -0.3283  0.0578  0.6334
16501TIP3    H170994   3.948   3.227   6.096 -1.2880 -0.8888 -0.9348
16501TIP3    H270995   4.072   3.167   6.159  0.4225  1.3979 -1.9966
16502TIP3   OH270996   0.032   5.558  14.920 -0.2331  0.6520  0.0054
16502TIP3    H170997  -0.024   5.630  14.949  0.1703  0.4617  1.3310
16502TIP3    H270998   0.108   5.602  14.882 -0.2224  0.9245  0.3330
16503TIP3   OH270999   1.754   5.435  14.037 -0.1339 -0.3900 -0.2239
16503TIP3    H171000   1.755   5.346  14.071  2.0001  0.0058  0.9251
16503TIP3    H271001   1.821   5.481  14.088 -2.1820  2.2935  0.2348
16504TIP3   OH271002   3.205   1.305   5.197  0.6116 -0.0935  0.0641
16504TIP3    H171003   3.137   1.273   5.139  0.7918  0.9727 -0.7511
16504TIP3    H271004   3.161   1.366   5.256  0.6171 -0.4260  0.4206
16505TIP3   OH271005   2.660   1.938   2.915 -0.1866  0.3794  0.3614
16505TIP3    H171006   2.739   1.990   2.901  0.5580 -0.6739  0.5361
16505TIP3    H271007   2.627   1.966   3.001  0.0769  0.7294  0.3465
16506TIP3   OH271008   0.312   5.935  14.574  0.3432 -0.0435  0.5496
16506TIP3    H171009   0.327   5.961  14.483  2.1854  0.1131  0.8590
16506TIP3    H271010   0.343   6.009  14.625 -1.6266  0.2955  1.3250
16507TIP3   OH271011   2.126   1.731  13.411  0.8046  0.0374  0.2286
16507TIP3    H171012   2.117   1.755  13.319 -1.2343 -0.6486  0.1878
16507TIP3    H271013   2.144   1.637  13.410  2.3270  0.3108  0.5154
16508TIP3   OH271014   0.274   5.908  17.441 -0.6534 -0.5221  0.4373
16508TIP3    H171015   0.278   5.950  17.527 -0.6791 -1.0131  0.6820
16508TIP3    H271016   0.184   5.876  17.434 -1.0974  0.8195 -0.4050
16509TIP3   OH271017   6.618   0.686  16.695 -0.1785 -0.7574 -0.6122
16509TIP3    H171018   6.574   0.711  16.777  0.0787  1.6394 -1.1347
16509TIP3    H271019   6.557   0.624  16.654 -0.2598 -2.1134  1.3978
16510TIP3   OH271020   0.605   0.823  12.612 -0.0283  0.8525  0.9810
16510TIP3    H171021   0.680   0.881  12.625  0.8813 -0.2924  0.9328
16510TIP3    H271022   0.609   0.799  12.519  0.2979 -0.2098  1.2581
16511TIP3   OH271023   5.387   6.530   5.338 -0.3564  0.4255 -0.1426
16511TIP3    H171024   5.363   6.577   5.259 -1.6400 -1.7187 -1.1193
16511TIP3    H271025   5.313   6.543   5.398 -0.4819  0.1105 -0.2236
16512TIP3   OH271026   4.580   0.166   5.548 -0.0342  0.6193  0.3940
16512TIP3    H171027   4.628   0.243   5.516  0.7569 -0.5144 -1.2788
16512TIP3    H271028   4.647   0.102   5.570 -0.7090 -0.6091 -0.9588
16513TIP3   OH271029   3.276   4.936   2.817 -0.1595  0.1995  0.2218
16513TIP3    H171030   3.345   4.966   2.876 -1.1882  0.8516  1.1437
16513TIP3    H271031   3.195   4.963   2.860 -0.9566  2.6755 -2.5539
16514TIP3   OH271032   2.145   5.724  11.787 -0.6017 -0.4430  0.6684
16514TIP3    H171033   2.200   5.651  11.758  0.4162  1.2341 -1.9764
16514TIP3    H271034   2.181   5.747  11.874  2.9669  0.4666 -0.8426
16515TIP3   OH271035   0.295   5.502  10.466 -0.1374  0.2550  0.7376
16515TIP3    H171036   0.317   5.422  10.514 -0.1586 -0.3595 -0.2645
16515TIP3    H271037   0.349   5.569  10.507 -0.2057 -0.2289  1.6726
16516TIP3   OH271038   0.087   2.946   3.005  0.1925  0.3656 -0.0193
16516TIP3    H171039   0.096   3.040   3.020 -2.3133  0.8716 -1.1984
16516TIP3    H271040   0.177   2.914   2.997  1.0965  2.8289 -0.5597
16517TIP3   OH271041   2.543   0.882   3.587 -0.3525  0.2212 -0.0757
16517TIP3    H171042   2.498   0.962   3.616 -0.0755  0.3695 -0.0492
16517TIP3    H271043   2.502   0.859   3.504 -1.9023 -0.8110  0.9263
16518TIP3   OH271044   4.399   5.096  12.516 -0.1211 -0.0835 -0.2244
16518TIP3    H171045   4.475   5.109  12.573  1.6579 -0.6021 -2.3789
16518TIP3    H271046   4.339   5.043  12.569  2.0894 -1.8104  0.7058
16519TIP3   OH271047   3.839   3.373   1.085 -0.0398  0.0067  0.5441
16519TIP3    H171048   3.886   3.419   1.154  2.4484  0.1281 -1.1294
16519TIP3    H271049   3.761   3.427   1.070 -0.0373  0.6128  2.3617
16520TIP3   OH271050   0.902   4.391  15.829  0.1759  0.1391 -0.0685
16520TIP3    H171051   0.836   4.326  15.851 -0.6674  1.2624  0.8554
16520TIP3    H271052   0.975   4.373  15.889 -0.6324  0.8918  1.1950
16521TIP3   OH271053   6.484   5.125   0.095 -0.7231 -0.4082  0.1794
16521TIP3    H171054   6.513   5.073   0.020 -0.0824  0.1786  0.0129
16521TIP3    H271055   6.548   5.106   0.163 -0.8322 -0.3002  0.3111
16522TIP3   OH271056   2.525   2.706  16.773  0.2956  0.5291 -0.5459
16522TIP3    H171057   2.593   2.686  16.838  1.2417  0.6532 -1.4648
16522TIP3    H271058   2.509   2.800  16.784 -0.8761  0.2030  0.7194
16523TIP3   OH271059   1.386   1.991   1.496  0.3779  0.1657 -0.2297
16523TIP3    H171060   1.340   2.002   1.579  0.2421  0.6936 -0.3738
16523TIP3    H271061   1.394   2.079   1.460  0.9352  0.0074 -0.5151
16524TIP3   OH271062   4.735   2.403   3.889 -0.1890 -0.1303  0.5246
16524TIP3    H171063   4.687   2.375   3.812 -1.6399 -0.0416  1.3505
16524TIP3    H271064   4.801   2.464   3.856 -0.7366 -0.1430 -0.6422
16525TIP3   OH271065   6.035   5.416   5.464 -0.2381 -0.1021 -0.4653
16525TIP3    H171066   6.061   5.327   5.487  0.7842  0.0722 -0.8944
16525TIP3    H271067   6.018   5.458   5.548 -2.2742 -1.1240 -0.3088
16526TIP3   OH271068   3.600   3.826   3.593  0.3318  0.1337  0.0093
16526TIP3    H171069   3.651   3.746   3.580 -1.6182 -1.1093 -0.4887
16526TIP3    H271070   3.524   3.815   3.535 -0.5166  1.8745  0.7350
16527TIP3   OH271071   1.371   3.752  11.513  0.7196  0.3750  0.1821
16527TIP3    H171072   1.279   3.779  11.509  0.2257 -0.7377  2.3362
16527TIP3    H271073   1.376   3.675  11.457  0.4077  0.5883 -0.1426
16528TIP3   OH271074   6.244   3.931   3.993 -0.5235  0.4693 -0.0893
16528TIP3    H171075   6.240   3.984   4.072 -1.0785 -0.3917  0.4755
16528TIP3    H271076   6.154   3.929   3.961 -0.3676  0.5068 -0.5451
16529TIP3   OH271077   3.070   2.178   1.489  0.1806  0.1414  0.2191
16529TIP3    H171078   3.109   2.103   1.443  0.5292  2.1093 -3.0255
16529TIP3    H271079   3.040   2.142   1.573  2.7514 -2.9723 -0.0064
16530TIP3   OH271080   2.124   3.546  13.546 -0.6107  0.3476 -0.1567
16530TIP3    H171081   2.035   3.562  13.577 -1.0527  0.8325 -1.5917
16530TIP3    H271082   2.134   3.451  13.550 -0.4374  0.4231  1.9525
16531TIP3   OH271083   6.013   0.030   2.091  0.0241 -0.5158  0.2211
16531TIP3    H171084   5.948  -0.034   2.062  0.7052 -1.3632  0.5271
16531TIP3    H271085   6.092   0.008   2.041  0.1120  0.4336 -0.0705
16532TIP3   OH271086   5.107   0.864  14.115 -0.1959  0.0781 -0.2027
16532TIP3    H171087   5.159   0.831  14.188  1.0116  1.2542 -0.4853
16532TIP3    H271088   5.115   0.797  14.047 -0.0860 -0.3203  0.1986
16533TIP3   OH271089   4.559   5.836  13.805 -0.1213  0.0889  0.1428
16533TIP3    H171090   4.473   5.815  13.768  0.6780  1.7349 -3.0653
16533TIP3    H271091   4.541   5.902  13.871 -1.4052 -0.2909  0.2070
16534TIP3   OH271092   0.575   6.646   4.747 -0.1287 -0.0008  0.4319
16534TIP3    H171093   0.619   6.730   4.754 -0.7640  0.7748 -3.0375
16534TIP3    H271094   0.640   6.582   4.778  1.6191  1.4956 -0.0095
16535TIP3   OH271095   1.589   3.319  13.387  0.3234 -0.4110  0.0783
16535TIP3    H171096   1.553   3.232  13.370  1.8141 -0.9279 -0.6537
16535TIP3    H271097   1.684   3.306  13.383  0.6126  0.9235  1.6748
16536TIP3   OH271098   1.383   6.620  15.536 -0.0279  0.0725 -0.2752
16536TIP3    H171099   1.476   6.598  15.540  0.0654 -0.0319 -2.0595
16536TIP3    H271100   1.381   6.712  15.511 -0.3902  0.0161 -0.4605
16537TIP3   OH271101   5.746   6.293   1.256 -0.3714 -0.2804 -0.5067
16537TIP3    H171102   5.723   6.200   1.247  0.7798 -0.7252  0.7100
16537TIP3    H271103   5.840   6.292   1.275 -0.7253  0.9910  1.5874
16538TIP3   OH271104   2.500   0.363  16.793 -0.3685 -0.1148  0.0791
16538TIP3    H171105   2.569   0.429  16.783 -1.4128  0.7586 -1.7518
16538TIP3    H271106   2.419   0.413  16.795 -1.1175 -1.2735 -0.1584
16539TIP3   OH271107   3.355   2.944   1.949  0.4756  0.1876 -0.4127
16539TIP3    H171108   3.424   3.006   1.924  1.4934 -0.9029 -0.3643
16539TIP3    H271109   3.316   2.982   2.028  1.7204  0.3021  0.1673
16540TIP3   OH271110   5.377   0.901   2.375  0.6460  0.0515  0.1570
16540TIP3    H171111   5.342   0.882   2.462  1.9050  0.9994  0.8958
16540TIP3    H271112   5.444   0.968   2.389  0.4602  0.6846 -1.6196
16541TIP3   OH271113   4.070   4.994   3.776  0.2679  0.6267  0.1793
16541TIP3    H171114   4.160   4.981   3.748  0.4958  0.1283  1.1108
16541TIP3    H271115   4.076   5.012   3.870 -0.5761  0.8819  0.1961
16542TIP3   OH271116   3.638   3.364   0.566 -0.0359  0.0563  0.3383
16542TIP3    H171117   3.733   3.353   0.570 -0.0239  0.1341  0.2607
16542TIP3    H271118   3.609   3.358   0.658 -0.3322 -3.4006  0.1756
16543TIP3   OH271119   6.719   0.963  14.514  0.1462 -0.2672  0.1244
16543TIP3    H171120   6.811   0.942  14.525  0.1316  0.3312  1.7611
16543TIP3    H271121   6.689   0.908  14.441  1.4642 -1.4602  0.4492
16544TIP3   OH271122   6.560   2.224  14.127 -0.0932 -0.7712  0.2618
16544TIP3    H171123   6.559   2.153  14.191 -0.5274 -0.8963  0.1164
16544TIP3    H271124   6.521   2.298  14.174  3.4564  0.4579  1.6384
16545TIP3   OH271125   5.480   2.175  16.516 -0.2963  0.3737 -0.2249
16545TIP3    H171126   5.511   2.252  16.469  1.5108 -0.3432 -0.2877
16545TIP3    H271127   5.546   2.160  16.583  0.8256 -2.5590 -1.7974
16546TIP3   OH271128   0.961   6.516   3.417 -0.0170  0.3201 -0.5294
16546TIP3    H171129   0.904   6.448   3.453  1.5997 -1.4390 -1.0834
16546TIP3    H271130   0.947   6.511   3.322  0.5424  0.3189 -0.6182
16547TIP3   OH271131   2.575   6.444   1.859 -0.7326  0.0045 -0.0899
16547TIP3    H171132   2.537   6.479   1.939 -0.3566  0.0466  0.0728
16547TIP3    H271133   2.575   6.518   1.798  0.7133  0.5025  0.4796
16548TIP3   OH271134   5.805   3.176  16.683  0.0312 -0.6506 -0.5352
16548TIP3    H171135   5.773   3.266  16.678 -1.6814 -1.1045  1.0324
16548TIP3    H271136   5.888   3.178  16.636  1.2111  2.3043  1.3060
16549TIP3   OH271137   4.607   1.847   0.200  0.0710  0.2797  0.0640
16549TIP3    H171138   4.541   1.862   0.133  0.1522  1.1580  0.1625
16549TIP3    H271139   4.563   1.869   0.282  0.1619 -0.1706  0.2349
16550TIP3   OH271140   4.085   2.740  12.902 -0.4866 -0.3172 -0.1616
16550TIP3    H171141   4.161   2.752  12.846 -1.4660 -0.5582 -1.5888
16550TIP3    H271142   4.073   2.645  12.905 -1.5072 -0.2381 -1.0702
16551TIP3   OH271143   4.606   6.022  14.014  0.3080 -0.4421  0.3348
16551TIP3    H171144   4.524   6.009  14.062  1.6293 -1.9782  2.3258
16551TIP3    H271145   4.618   6.117  14.012 -0.9443 -0.2499  1.0214
16552TIP3   OH271146   5.191   6.445   3.134  0.5852  0.1262 -0.0386
16552TIP3    H171147   5.207   6.517   3.196  1.9773  1.0757 -1.4319
16552TIP3    H271148   5.262   6.383   3.151  0.0522 -0.3860  0.3674
16553TIP3   OH271149   6.259   1.358   3.214 -0.3031 -0.2619  0.6923
16553TIP3    H171150   6.179   1.319   3.249  0.0747 -0.2691  1.5725
16553TIP3    H271151   6.228   1.420   3.147 -1.0723  0.0617  1.3273
16554TIP3   OH271152   0.462   3.585  15.981  0.1511  0.0502  0.5152
16554TIP3    H171153   0.469   3.676  15.953  2.2077 -0.0489  0.5475
16554TIP3    H271154   0.419   3.589  16.066 -0.4024  0.9239  0.2031
16555TIP3   OH271155   2.735   3.328   2.621 -0.8867 -0.3483 -0.0567
16555TIP3    H171156   2.777   3.320   2.535 -0.1280  0.7618  0.1860
16555TIP3    H271157   2.718   3.238   2.647  3.5581 -1.1412  0.8613
16556TIP3   OH271158   4.452   1.876  15.042  0.1245 -0.1822 -0.3244
16556TIP3    H171159   4.411   1.790  15.044 -0.5109  0.1333  0.2858
16556TIP3    H271160   4.387   1.936  15.080  1.7293  0.0704  2.2557
16557TIP3   OH271161   3.818   0.544  15.987  0.1752  0.5020 -0.3753
16557TIP3    H171162   3.818   0.487  15.910 -0.2482  0.9905 -0.7422
16557TIP3    H271163   3.725   0.550  16.011  0.4377 -1.1835  1.3291
16558TIP3   OH271164   2.375   3.260  15.315 -0.8584 -0.1624  0.1987
16558TIP3    H171165   2.295   3.239  15.362 -1.3009  0.0878 -0.4271
16558TIP3    H271166   2.348   3.265  15.223 -0.7607  2.8857  0.2417
16559TIP3   OH271167   0.122   3.159   4.870 -0.1456  0.0490  0.6128
16559TIP3    H171168   0.075   3.176   4.952  0.4978 -1.6262  1.3863
16559TIP3    H271169   0.060   3.109   4.817  0.5153 -1.7440  1.4430
16560TIP3   OH271170   1.818   2.421   5.618  0.2242 -0.8605  0.4159
16560TIP3    H171171   1.756   2.349   5.620  0.7956 -1.3329  1.6399
16560TIP3    H271172   1.768   2.495   5.582 -1.0591 -1.2186  1.4310
16561TIP3   OH271173   0.666   3.074   0.802  0.3288  0.0893 -0.4125
16561TIP3    H171174   0.684   2.981   0.818 -0.6268  0.3607  3.2867
16561TIP3    H271175   0.753   3.114   0.792  1.1230 -0.6598  2.4716
16562TIP3   OH271176   1.815   1.490   2.995  0.1642  0.2095 -0.5701
16562TIP3    H171177   1.773   1.527   2.917 -0.9109 -0.9331 -0.5782
16562TIP3    H271178   1.865   1.416   2.962  1.5234  1.0473 -0.4378
16563TIP3   OH271179   6.693   2.736   1.455 -0.1441 -0.6445  0.2958
16563TIP3    H171180   6.637   2.812   1.466  1.5689  1.0992 -1.9537
16563TIP3    H271181   6.768   2.751   1.512 -0.2588 -1.1571  0.5917
16564TIP3   OH271182   0.216   5.343  13.471 -0.5018 -0.4892  0.2361
16564TIP3    H171183   0.170   5.289  13.407 -0.8115 -0.5916  0.5411
16564TIP3    H271184   0.278   5.283  13.513  0.1246 -0.2834 -0.3779
16565TIP3   OH271185   1.685   6.380   5.147 -0.2543  0.4337 -0.6835
16565TIP3    H171186   1.644   6.359   5.231 -0.7847  0.9045 -0.8201
16565TIP3    H271187   1.677   6.301   5.095  1.1193 -0.2743  0.0984
16566TIP3   OH271188   0.830   5.492   1.708  0.2760 -0.2966 -0.0298
16566TIP3    H171189   0.858   5.581   1.728  1.4478 -0.2526 -1.6037
16566TIP3    H271190   0.736   5.492   1.724  0.4580  0.8288  1.2542
16567TIP3   OH271191   3.879   4.217  13.225  0.1647  0.7000  0.2033
16567TIP3    H171192   3.885   4.122  13.233 -1.9511  0.5029  0.1020
16567TIP3    H271193   3.956   4.242  13.174  0.7769 -0.9581  0.2616
16568TIP3   OH271194   3.323   1.832   3.057  0.6803 -0.2297  0.1054
16568TIP3    H171195   3.276   1.796   3.132  0.0851 -0.9950 -0.6191
16568TIP3    H271196   3.407   1.862   3.093 -0.9995  2.9449  1.8107
16569TIP3   OH271197   1.592   4.658   4.704  0.3959  0.9584 -0.1096
16569TIP3    H171198   1.527   4.701   4.759  1.8146  0.6987  1.8531
16569TIP3    H271199   1.626   4.728   4.648  1.6807  2.1617  2.0580
16570TIP3   OH271200   6.029   3.302  16.890  0.4391 -0.3643  0.3812
16570TIP3    H171201   6.052   3.360  16.818 -1.6713 -0.6262 -0.5830
16570TIP3    H271202   6.073   3.219  16.869 -0.2087 -0.4605 -0.6834
16571TIP3   OH271203   3.736   4.206   2.421  0.4476  0.0846 -0.1408
16571TIP3    H171204   3.826   4.235   2.402  1.2593 -2.2611 -0.1901
16571TIP3    H271205   3.725   4.222   2.515  0.7871  0.7120 -0.2056
16572TIP3   OH271206   3.800   3.808   5.278  0.0749 -0.4448  0.4643
16572TIP3    H171207   3.778   3.779   5.190  0.0566  0.4153  0.1727
16572TIP3    H271208   3.723   3.856   5.308 -0.1427 -1.2283  1.1777
16573TIP3   OH271209   6.442   5.248  15.137 -0.0104  0.0075 -0.0918
16573TIP3    H171210   6.412   5.212  15.220  0.6025  0.1270  0.1860
16573TIP3    H271211   6.362   5.266  15.088 -0.3943  0.4634  0.6884
16574TIP3   OH271212   4.935   2.282  13.212 -0.1715  0.1225  0.0942
16574TIP3    H171213   4.846   2.249  13.199 -0.0826 -0.6630  1.2859
16574TIP3    H271214   4.990   2.226  13.157 -0.1667 -0.9278  1.1390
16575TIP3   OH271215   4.240   6.282  12.124 -0.7687 -0.3134 -0.2852
16575TIP3    H171216   4.251   6.190  12.147 -0.9328  0.0320  1.2813
16575TIP3    H271217   4.146   6.297  12.131 -0.7177  0.0257 -0.3045
16576TIP3   OH271218   4.252   0.688   4.979 -0.1910  0.3459 -0.4493
16576TIP3    H171219   4.189   0.623   4.948 -1.4755  1.6209 -0.6236
16576TIP3    H271220   4.217   0.717   5.063  0.5187  0.5967 -0.2371
16577TIP3   OH271221   5.227   6.338   3.507 -0.0153  0.2726  0.4723
16577TIP3    H171222   5.263   6.343   3.419 -0.4880 -0.3046  0.2381
16577TIP3    H271223   5.288   6.280   3.554 -1.2909 -1.8277 -0.2930
16578TIP3   OH271224   0.803   2.421  16.794 -0.4539 -0.3305 -0.1692
16578TIP3    H171225   0.894   2.442  16.774 -1.2394  1.4375 -2.2871
16578TIP3    H271226   0.809   2.345  16.852  2.3663  0.2504  0.4796
16579TIP3   OH271227   3.795   2.194   5.033  0.1332 -0.1547 -0.0123
16579TIP3    H171228   3.717   2.235   4.995  0.1874 -0.6517 -0.6715
16579TIP3    H271229   3.867   2.253   5.007 -0.2206  1.4099  2.2848
16580TIP3   OH271230   2.076   0.909  16.234 -0.0699  0.2230 -0.0198
16580TIP3    H171231   2.153   0.958  16.262 -0.9228  1.3271  0.4536
16580TIP3    H271232   2.093   0.819  16.262  0.3141  0.7717  1.6151
16581TIP3   OH271233   0.427   5.212   0.579 -0.4261  0.0572  0.4760
16581TIP3    H171234   0.458   5.294   0.539 -2.7388  1.8612  2.0925
16581TIP3    H271235   0.493   5.192   0.645  0.9503 -0.3048 -0.9402
16582TIP3   OH271236   1.904   2.687   0.698 -0.4286  0.8956 -0.2946
16582TIP3    H171237   1.926   2.610   0.645 -0.6697 -0.6998  1.8013
16582TIP3    H271238   1.899   2.654   0.787 -1.2941  3.2252  0.5923
16583TIP3   OH271239   5.456   5.582   2.631  0.2991 -0.2157  0.0855
16583TIP3    H171240   5.479   5.625   2.713 -1.0712 -2.0946  1.5446
16583TIP3    H271241   5.536   5.536   2.605  0.9310  0.8942 -0.0201
16584TIP3   OH271242   1.883   6.627   1.410 -0.3684 -0.1966  0.9000
16584TIP3    H171243   1.970   6.599   1.382 -0.1134 -0.9883  2.4014
16584TIP3    H271244   1.843   6.548   1.447 -1.6945  0.1797  0.3409
16585TIP3   OH271245   4.256   3.768  11.493  0.1660  0.2142 -0.3501
16585TIP3    H171246   4.258   3.784  11.587 -0.9497  0.5438 -0.3697
16585TIP3    H271247   4.322   3.700  11.479 -1.5376 -1.8939  1.0894
16586TIP3   OH271248   5.118   1.070   1.927 -0.9070 -0.2351 -0.1176
16586TIP3    H171249   5.165   1.003   1.977 -0.1563  0.0565 -0.4207
16586TIP3    H271250   5.156   1.153   1.957 -1.6315  0.0454  0.0502
16587TIP3   OH271251   2.714   3.395  14.794 -0.8464 -0.0949 -0.4098
16587TIP3    H171252   2.651   3.324  14.802 -0.7682 -0.0953  0.2450
16587TIP3    H271253   2.724   3.408  14.700 -0.0360 -1.6676 -0.5610
16588TIP3   OH271254   4.619   2.841   6.048 -0.0320 -0.4528  0.1886
16588TIP3    H171255   4.668   2.898   6.107  0.5990  1.0259 -1.6706
16588TIP3    H271256   4.531   2.880   6.045 -0.5754 -1.5050  1.3862
16589TIP3   OH271257   4.834   1.486   5.465  0.1937  0.2264 -0.5924
16589TIP3    H171258   4.858   1.393   5.458  1.5606  0.2724  2.0880
16589TIP3    H271259   4.790   1.493   5.550  2.3570  2.3463  0.4921
16590TIP3   OH271260   3.126   5.742   2.192  0.5451  0.0939  0.6226
16590TIP3    H171261   3.161   5.796   2.122 -1.0163  0.5932  0.1927
16590TIP3    H271262   3.165   5.777   2.272  1.1210  0.5351  0.1461
16591TIP3   OH271263   2.855   3.285   3.361 -0.0343  0.0210  0.6575
16591TIP3    H171264   2.910   3.362   3.345  0.4294 -0.4597 -0.1910
16591TIP3    H271265   2.898   3.215   3.311 -1.5057 -0.3396 -0.1795
16592TIP3   OH271266   5.054   4.078   5.251  0.6134 -0.1649 -0.0965
16592TIP3    H171267   5.019   3.991   5.233 -1.4559  0.7809 -0.9157
16592TIP3    H271268   5.146   4.073   5.222  0.5882 -2.0932  0.0282
16593TIP3   OH271269   1.048   4.223  14.871 -0.0504 -0.0597  0.2189
16593TIP3    H171270   1.114   4.189  14.932  0.2468  0.6537  0.3097
16593TIP3    H271271   0.970   4.170  14.888  0.0495  0.0716  1.1817
16594TIP3   OH271272   0.779   2.174  13.031  0.0764  0.0214  0.4350
16594TIP3    H171273   0.855   2.189  12.975  1.4305 -0.7722  1.9704
16594TIP3    H271274   0.704   2.196  12.976  1.4140  1.3138 -0.9939
16595TIP3   OH271275   2.485   6.756   1.921 -0.1492  0.7887  0.6071
16595TIP3    H171276   2.401   6.792   1.892  0.9214  2.9094 -0.1112
16595TIP3    H271277   2.482   6.760   2.016  0.0456  3.3588  0.5838
16596TIP3   OH271278   3.777   6.319   3.719 -0.0153  0.5220  0.0008
16596TIP3    H171279   3.853   6.357   3.676 -0.7037  2.1435  0.1302
16596TIP3    H271280   3.813   6.264   3.788  1.0689 -0.8456 -1.5720
16597TIP3   OH271281   5.929   2.681   3.560  0.2840  0.1634 -0.1518
16597TIP3    H171282   5.970   2.638   3.485 -0.7658  1.0603 -1.3132
16597TIP3    H271283   5.956   2.773   3.552 -0.7373  0.4840 -0.1133
16598TIP3   OH271284   2.095   1.247   4.910  0.0332 -0.0928 -0.4371
16598TIP3    H171285   2.132   1.176   4.858 -0.2496  0.0327 -0.8097
16598TIP3    H271286   2.114   1.223   5.001 -0.0413 -0.6265 -0.5624
16599TIP3   OH271287   1.349   2.940   0.162  0.2862 -0.0062 -0.3558
16599TIP3    H171288   1.418   2.987   0.209  0.4111 -1.9310  1.5580
16599TIP3    H271289   1.394   2.898   0.089  0.7152  0.4871 -0.3816
16600TIP3   OH271290   1.682   4.883  15.690  0.0009 -0.5093 -0.3833
16600TIP3    H171291   1.773   4.865  15.714 -0.8551 -0.8962  3.0924
16600TIP3    H271292   1.673   4.978  15.698 -0.2504 -0.6244  0.9605
16601TIP3   OH271293   1.498   0.866  17.179 -0.3877 -0.2845  0.2726
16601TIP3    H171294   1.502   0.830  17.090  0.1218 -0.2917  0.2976
16601TIP3    H271295   1.546   0.949  17.173 -0.5402 -0.1788  0.4962
16602TIP3   OH271296   3.872   0.041  16.321 -0.3174  0.0305 -0.4689
16602TIP3    H171297   3.876   0.070  16.230  0.7077  0.6783 -0.2418
16602TIP3    H271298   3.781   0.017  16.336 -0.3849 -0.6050 -1.8244
16603TIP3   OH271299   2.405   6.414  13.232  0.5153 -0.2660  0.5374
16603TIP3    H171300   2.357   6.473  13.290 -0.3041  0.2149 -0.5921
16603TIP3    H271301   2.497   6.431  13.251  0.3136  1.7737 -0.1143
16604TIP3   OH271302   1.617   1.938  13.381 -0.6625 -0.4003 -0.5382
16604TIP3    H171303   1.697   1.972  13.420 -1.9416  0.6886  1.3073
16604TIP3    H271304   1.617   1.975  13.292  0.2645  0.6302 -0.1443
16605TIP3   OH271305   2.974   6.575   0.848 -0.2149  0.7211  0.5035
16605TIP3    H171306   2.956   6.487   0.813  1.4496  0.1344  1.0372
16605TIP3    H271307   2.909   6.586   0.917  0.9137 -1.0579  1.9421
16606TIP3   OH271308   4.760   5.062   3.460  0.4391 -0.2998  0.0029
16606TIP3    H171309   4.751   4.973   3.494 -0.0159 -0.8533 -1.4847
16606TIP3    H271310   4.748   5.053   3.365 -0.0889  1.4144 -0.1284
16607TIP3   OH271311   1.770   1.848   4.204  0.1184  0.2872 -0.3363
16607TIP3    H171312   1.839   1.838   4.269  1.9703 -0.2657 -2.2875
16607TIP3    H271313   1.735   1.760   4.192  0.2366  0.2712 -0.5664
16608TIP3   OH271314   1.783   6.335   4.279  0.1644  0.1413  0.3003
16608TIP3    H171315   1.770   6.289   4.197  1.4039 -3.3363  1.8880
16608TIP3    H271316   1.873   6.367   4.275 -0.0156  0.6287  0.0431
16609TIP3   OH271317   0.301   3.403  17.040 -0.3472  0.4947  0.1075
16609TIP3    H171318   0.295   3.399  17.136 -0.6654  0.1939  0.0749
16609TIP3    H271319   0.213   3.385  17.009 -1.0826  3.9854 -0.2005
16610TIP3   OH271320   0.866   0.254  17.094  0.3330  0.0418 -0.5378
16610TIP3    H171321   0.785   0.203  17.096 -0.7386  1.6747  1.0238
16610TIP3    H271322   0.929   0.197  17.051 -1.2108 -1.9387 -0.3285
16611TIP3   OH271323   2.181   4.743  12.688 -0.1109  0.0224 -0.2517
16611TIP3    H171324   2.205   4.835  12.703  1.7434 -0.3890 -0.4757
16611TIP3    H271325   2.231   4.718  12.611  1.1761 -1.7994  1.1021
16612TIP3   OH271326   4.171   2.662  17.499 -0.6685 -0.3432 -0.4874
16612TIP3    H171327   4.171   2.756  17.517 -0.1242 -0.1013 -1.6695
16612TIP3    H271328   4.093   2.648  17.445 -0.5078 -0.4994 -0.6781
16613TIP3   OH271329   2.554   2.345  14.206 -0.6855 -0.1583 -0.3503
16613TIP3    H171330   2.648   2.366  14.212 -0.4084 -1.2939 -0.5327
16613TIP3    H271331   2.540   2.327  14.114 -0.3489 -3.1042  0.0749
16614TIP3   OH271332   3.861   3.980   1.020  0.1592  0.4616 -0.2058
16614TIP3    H171333   3.871   3.902   0.965  0.0889 -0.0510  0.4931
16614TIP3    H271334   3.948   3.992   1.059  0.4715  1.3756 -1.1289
16615TIP3   OH271335   1.625   4.696  11.133  0.4244  0.0228 -0.3174
16615TIP3    H171336   1.659   4.763  11.075  1.6774 -0.5257 -0.2388
16615TIP3    H271337   1.628   4.615  11.081 -1.4469  0.0527 -0.5543
16616TIP3   OH271338   5.360   2.746   2.293  0.3225  0.2535  0.2560
16616TIP3    H171339   5.389   2.659   2.266 -0.8308  0.0101 -0.2821
16616TIP3    H271340   5.384   2.803   2.220 -1.3366 -0.1206 -0.6428
16617TIP3   OH271341   1.479   0.034   3.597 -0.8352 -0.0319  0.5653
16617TIP3    H171342   1.388   0.062   3.598 -1.1090 -0.8508  0.0649
16617TIP3    H271343   1.476  -0.056   3.564  0.1246 -0.1798  0.8413
16618TIP3   OH271344   6.219   0.729  16.763  0.3349  0.4791  0.1958
16618TIP3    H171345   6.202   0.694  16.676  0.2610 -1.1981  0.8374
16618TIP3    H271346   6.206   0.654  16.822  0.0846  1.6319  1.6812
16619TIP3   OH271347   6.084   2.273   4.827 -0.2764 -0.1281 -0.3149
16619TIP3    H171348   6.113   2.191   4.868  1.7166 -0.0484 -1.4218
16619TIP3    H271349   6.165   2.321   4.811 -1.2666  1.2754 -1.3350
16620TIP3   OH271350   1.820   1.716  13.999 -0.1721  0.0531  0.1569
16620TIP3    H171351   1.901   1.735  14.048 -0.0866 -2.5282  1.1686
16620TIP3    H271352   1.851   1.692  13.912  0.3015 -1.7611  0.7786
16621TIP3   OH271353   3.409   3.495  12.012 -0.1315 -0.5294 -0.3814
16621TIP3    H171354   3.433   3.449  11.932  1.6104 -2.4988  1.1456
16621TIP3    H271355   3.450   3.444  12.082 -4.8127 -1.3468  2.2089
16622TIP3   OH271356   1.980   0.412  15.930 -0.5685  0.2778 -0.2973
16622TIP3    H171357   1.940   0.419  15.843 -2.0487  0.0997  0.3362
16622TIP3    H271358   1.948   0.329  15.964 -2.2339  1.5312  1.4478
16623TIP3   OH271359   1.172   4.677   1.791  0.3425  0.7305 -0.4969
16623TIP3    H171360   1.112   4.718   1.853  0.7284 -1.5636  1.5271
16623TIP3    H271361   1.256   4.720   1.806  0.5022 -0.0006  0.8622
16624TIP3   OH271362   0.694   3.377  17.174 -0.2446 -0.3449 -0.1871
16624TIP3    H171363   0.746   3.367  17.095 -0.6089 -1.0873 -0.3442
16624TIP3    H271364   0.747   3.434  17.231  0.1597 -0.0723 -0.8302
16625TIP3   OH271365   6.254   4.610  15.016 -0.1041 -0.2584  0.4646
16625TIP3    H171366   6.341   4.581  14.988 -0.0826  0.9872 -0.8952
16625TIP3    H271367   6.197   4.590  14.942 -0.5516  0.8989  0.4842
16626TIP3   OH271368   5.975   5.096  12.343 -0.0669 -0.4574  0.1479
16626TIP3    H171369   6.028   5.030  12.388  0.8505  2.8084  4.6106
16626TIP3    H271370   6.037   5.166  12.323 -1.7765  1.1536  0.2774
16627TIP3   OH271371   3.778   1.038   1.490 -0.5820  0.0773  0.1973
16627TIP3    H171372   3.816   1.069   1.408 -0.5748 -0.3236  0.0487
16627TIP3    H271373   3.796   1.108   1.553 -1.5438  0.8921 -0.3979
16628TIP3   OH271374   3.071   0.516   6.451  0.5090 -0.1948 -0.0356
16628TIP3    H171375   3.040   0.606   6.439 -0.4970 -0.6121 -0.6819
16628TIP3    H271376   2.992   0.465   6.468  0.8065 -1.2723 -1.6010
16629TIP3   OH271377   3.031   0.461   3.367  0.5266 -0.5268 -0.7183
16629TIP3    H171378   3.010   0.518   3.293  0.8792  0.3107 -0.1858
16629TIP3    H271379   3.014   0.515   3.444  0.9402 -1.1215 -0.2051
16630TIP3   OH271380   2.425   6.308   1.415  0.4254  0.3960  0.3994
16630TIP3    H171381   2.499   6.362   1.387  0.3300  0.7664  0.8369
16630TIP3    H271382   2.462   6.221   1.429  0.3383  0.0211 -1.5105
16631TIP3   OH271383   1.652   3.525   5.699 -0.1593  0.1358 -0.1281
16631TIP3    H171384   1.727   3.466   5.708 -0.7620 -0.4208  1.6163
16631TIP3    H271385   1.676   3.602   5.750 -1.5464 -0.9045  2.2656
16632TIP3   OH271386   5.487   1.216   6.331 -0.0755 -0.2934 -0.0764
16632TIP3    H171387   5.440   1.137   6.304 -1.4121  1.3194 -2.9683
16632TIP3    H271388   5.499   1.265   6.250  0.2074  2.7313  1.6530
16633TIP3   OH271389   3.768   6.360   1.135 -0.1325 -0.4090  0.1366
16633TIP3    H171390   3.810   6.322   1.058 -3.0559  0.2636 -1.9578
16633TIP3    H271391   3.698   6.299   1.157 -0.7379  0.4960  0.8264
16634TIP3   OH271392   0.085   4.565   2.895  0.3549 -0.5010  0.7001
16634TIP3    H171393   0.138   4.638   2.927  0.4147  0.6727 -1.8209
16634TIP3    H271394   0.001   4.575   2.941  0.4649  1.0081  0.6343
16635TIP3   OH271395   4.437   5.269  17.081 -0.2382  0.2917  0.2145
16635TIP3    H171396   4.486   5.224  17.012 -1.8364  1.0705 -1.4975
16635TIP3    H271397   4.505   5.298  17.143  1.1185 -1.5351 -0.3222
16636TIP3   OH271398   5.459   2.847   6.656  0.2951  0.3147 -0.2925
16636TIP3    H171399   5.541   2.832   6.610  0.4515  0.0872  0.0529
16636TIP3    H271400   5.449   2.770   6.712 -1.4052 -0.9073 -2.1334
16637TIP3   OH271401   4.401   1.065   3.481 -0.0627  0.0557  0.2182
16637TIP3    H171402   4.490   1.069   3.446 -0.2102  3.8197 -0.1113
16637TIP3    H271403   4.358   1.143   3.446 -2.6261 -0.1049  2.6731
16638TIP3   OH271404   2.141   4.259  15.801  0.0824 -0.1900 -0.0090
16638TIP3    H171405   2.218   4.228  15.849 -0.0505  0.4023  0.6008
16638TIP3    H271406   2.119   4.343  15.841 -1.6806 -0.9442  0.7393
16639TIP3   OH271407   1.102   6.710   1.318  0.1379 -0.2010  0.3064
16639TIP3    H171408   1.034   6.744   1.261 -0.5080 -0.9971  0.5771
16639TIP3    H271409   1.118   6.621   1.286  3.0258  0.8172 -1.4958
16640TIP3   OH271410   1.124   2.804  13.753  0.0500  0.1784 -0.3533
16640TIP3    H171411   1.075   2.727  13.723  0.3276 -0.8079  1.5755
16640TIP3    H271412   1.215   2.777  13.752  0.3370  1.0907 -1.2799
16641TIP3   OH271413   1.850   6.224  14.539 -0.2388 -0.4008 -0.0626
16641TIP3    H171414   1.877   6.239  14.630  0.3000 -0.2618 -0.2428
16641TIP3    H271415   1.780   6.288  14.524 -2.9294 -2.7804  1.3720
16642TIP3   OH271416   1.325   5.299   1.555 -0.5547  0.1470 -0.2224
16642TIP3    H171417   1.371   5.381   1.576 -1.8952  1.2151 -1.2324
16642TIP3    H271418   1.373   5.232   1.602  1.7051  1.2593 -0.7824
16643TIP3   OH271419   2.316   6.006  16.612  0.0323 -0.5091  0.5902
16643TIP3    H171420   2.240   5.989  16.558  0.0174  0.6303  0.2111
16643TIP3    H271421   2.380   6.044  16.552  0.1225  0.5028  1.2970
16644TIP3   OH271422   1.174   6.628  15.005 -0.0303 -0.5055 -0.2119
16644TIP3    H171423   1.223   6.690  14.952  0.6781 -0.0044  0.9901
16644TIP3    H271424   1.111   6.681  15.053 -1.0921 -1.0293 -0.9913
16645TIP3   OH271425   0.069   2.978  13.285  0.0663  0.3832 -0.0589
16645TIP3    H171426  -0.020   3.012  13.293 -0.7192 -1.2916 -1.1673
16645TIP3    H271427   0.075   2.946  13.195  1.8648  0.6342 -0.0654
16646TIP3   OH271428   3.751   4.830  16.003  0.3904  0.0934  0.2668
16646TIP3    H171429   3.672   4.776  16.016 -0.0992  0.8436  0.4369
16646TIP3    H271430   3.728   4.888  15.931  0.7851  0.3356  0.3379
16647TIP3   OH271431   5.683   0.876  11.607 -0.1231  0.4746 -0.3591
16647TIP3    H171432   5.772   0.854  11.579  0.2955 -1.8197  2.2555
16647TIP3    H271433   5.627   0.818  11.555  0.2746 -0.7273  0.5024
16648TIP3   OH271434   6.344   3.880   0.473 -0.2978  0.1100 -0.0290
16648TIP3    H171435   6.351   3.785   0.474 -1.2299  0.0135 -1.0321
16648TIP3    H271436   6.287   3.899   0.399  1.0470  1.5343 -0.7542
16649TIP3   OH271437   5.713   0.796  15.739 -0.6289  0.2011 -0.7483
16649TIP3    H171438   5.788   0.748  15.774  0.0931  2.1158  0.5064
16649TIP3    H271439   5.696   0.864  15.804 -3.0326  0.2594 -1.3662
16650TIP3   OH271440   3.821   1.847   2.938 -0.1986  0.3967 -0.1899
16650TIP3    H171441   3.885   1.917   2.924  0.6524  0.0199  1.4691
16650TIP3    H271442   3.839   1.784   2.868  0.2494  0.9887 -0.6185
16651TIP3   OH271443   5.529   2.074  11.716 -0.3305 -0.1545  0.0999
16651TIP3    H171444   5.493   2.155  11.680  0.2201  1.4703  2.9138
16651TIP3    H271445   5.597   2.048  11.654 -1.0404  1.0847 -1.2546
16652TIP3   OH271446   1.702   1.557   5.366 -0.5162  0.3607 -0.2519
16652TIP3    H171447   1.731   1.467   5.381  1.7594  1.1263  0.4173
16652TIP3    H271448   1.687   1.592   5.454 -1.6223  0.5724 -0.5197
16653TIP3   OH271449   4.350   3.844   6.341  0.1828 -0.3203  0.3745
16653TIP3    H171450   4.336   3.755   6.373 -0.0442 -0.3004  0.3293
16653TIP3    H271451   4.443   3.861   6.358 -0.2420  0.2354  2.3841
16654TIP3   OH271452   3.922   3.425   3.660  0.4194 -0.2010  0.0960
16654TIP3    H171453   4.012   3.453   3.642  0.5791 -1.3908 -1.1582
16654TIP3    H271454   3.918   3.416   3.755  1.8501 -0.8176  0.1275
16655TIP3   OH271455   0.307   0.350  16.324 -0.4978  0.1079  0.3712
16655TIP3    H171456   0.331   0.380  16.236 -1.1515  1.7969  0.7249
16655TIP3    H271457   0.211   0.352  16.325 -0.4959  0.6860  1.2841
16656TIP3   OH271458   0.481   5.396   0.864 -0.5059 -0.4159  0.2503
16656TIP3    H171459   0.500   5.479   0.820 -3.6021 -0.3632 -1.1802
16656TIP3    H271460   0.450   5.422   0.951  1.1518 -0.2950  0.8508
16657TIP3   OH271461   1.664   5.977  15.492  0.2468  0.0391 -0.2137
16657TIP3    H171462   1.662   6.028  15.573  0.9442  1.0378 -0.7973
16657TIP3    H271463   1.591   6.012  15.440  1.7186  1.6683 -1.2927
16658TIP3   OH271464   1.916   0.024   3.729  0.0368 -0.3966  0.1264
16658TIP3    H171465   1.857   0.088   3.690 -0.6784  0.6893  2.7180
16658TIP3    H271466   1.968   0.075   3.792  1.0489 -1.9990  0.6510
16659TIP3   OH271467   2.005   5.100   5.024 -0.1567 -0.7155  0.3292
16659TIP3    H171468   2.080   5.051   4.990 -0.1231  0.8018 -1.9729
16659TIP3    H271469   1.977   5.050   5.101  1.0510 -3.2208 -0.7507
16660TIP3   OH271470   0.077   6.599   5.881  0.0902 -0.2812  0.2432
16660TIP3    H171471   0.171   6.586   5.892  0.4401  0.2566 -1.6931
16660TIP3    H271472   0.044   6.515   5.849  0.2042 -0.0487 -0.5183
16661TIP3   OH271473   1.210   0.074  11.946 -0.3514  0.0210 -0.3551
16661TIP3    H171474   1.191   0.151  11.999  0.4621  0.0325 -0.0727
16661TIP3    H271475   1.305   0.077  11.932 -0.6845  0.8280 -3.0425
16662TIP3   OH271476   1.082   5.727  13.238 -0.3269  0.9274 -0.0105
16662TIP3    H171477   0.999   5.716  13.285  1.0601  0.6717  2.5636
16662TIP3    H271478   1.135   5.652  13.264  0.3565  0.4561 -2.5412
16663TIP3   OH271479   0.272   2.596   3.352 -0.3665 -0.0502 -0.4356
16663TIP3    H171480   0.343   2.567   3.294  1.5094  0.7746  1.3172
16663TIP3    H271481   0.288   2.690   3.363 -0.5748 -0.1987  1.4706
16664TIP3   OH271482   1.625   2.873  11.394 -0.3602  0.1248 -0.6368
16664TIP3    H171483   1.603   2.781  11.378 -0.6568 -0.0108  0.4689
16664TIP3    H271484   1.543   2.913  11.424 -0.0352  0.5471 -0.2939
16665TIP3   OH271485   3.187   0.246   3.382  0.4636 -0.1689  0.0717
16665TIP3    H171486   3.147   0.332   3.370 -0.1310 -0.5733 -0.9559
16665TIP3    H271487   3.129   0.202   3.444 -0.8722 -0.8387 -1.5968
16666TIP3   OH271488   2.743   3.107   6.027 -0.1842 -0.1499 -0.1571
16666TIP3    H171489   2.828   3.121   6.069 -0.9939  1.4532  1.0218
16666TIP3    H271490   2.688   3.071   6.097 -1.2779  1.6146 -0.0680
16667TIP3   OH271491   3.133   6.309   3.838  0.1581 -0.0831  0.3933
16667TIP3    H171492   3.142   6.386   3.781 -1.3210 -0.7356 -0.8004
16667TIP3    H271493   3.104   6.345   3.922  0.2561  0.7290  0.0909
16668TIP3   OH271494   3.417   4.669  11.528  0.3785 -0.2943  0.0820
16668TIP3    H171495   3.399   4.748  11.477  0.9472 -0.9647 -1.1994
16668TIP3    H271496   3.512   4.672  11.545  0.3571 -0.5514  0.2598
16669TIP3   OH271497   0.643   1.304   4.649 -0.0650 -0.3619  0.4380
16669TIP3    H171498   0.674   1.388   4.617 -0.0792 -0.0199  1.3078
16669TIP3    H271499   0.611   1.259   4.571  2.0571 -0.5023 -0.4140
16670TIP3   OH271500   1.868   3.772   3.651 -0.0394  0.0177 -0.3476
16670TIP3    H171501   1.853   3.793   3.743 -0.6095  2.5327 -0.9671
16670TIP3    H271502   1.912   3.849   3.615  0.5359 -1.0682 -2.1235
16671TIP3   OH271503   4.796   3.551   0.777 -0.1263  0.7730  0.3377
16671TIP3    H171504   4.725   3.596   0.824 -0.9140  1.3084 -1.3034
16671TIP3    H271505   4.800   3.464   0.817 -0.1121  1.5050  2.0244
16672TIP3   OH271506   1.421   1.164  12.802 -0.0701 -0.1097  0.3357
16672TIP3    H171507   1.484   1.095  12.824  1.3812  1.1298  0.2449
16672TIP3    H271508   1.383   1.137  12.719  0.7013 -0.6525  0.1515
16673TIP3   OH271509   2.233   6.443   4.898 -0.3526 -0.1799 -0.1681
16673TIP3    H171510   2.293   6.442   4.823 -1.1637  0.6141 -0.8574
16673TIP3    H271511   2.260   6.520   4.949 -1.0092  0.4306 -0.7038
16674TIP3   OH271512   3.703   5.875  16.645  0.5343  0.3752 -0.0730
16674TIP3    H171513   3.724   5.969  16.653  1.6351  0.2156 -0.8846
16674TIP3    H271514   3.741   5.836  16.724 -0.4157  0.6698  0.5507
16675TIP3   OH271515   3.003   5.843   2.941  0.4103  1.1747  0.2527
16675TIP3    H171516   2.974   5.931   2.966 -0.8459  0.7893  0.2078
16675TIP3    H271517   3.092   5.856   2.909 -0.4622  2.7771 -1.7844
16676TIP3   OH271518   0.541   2.193  13.266 -0.9181  0.2960 -0.2222
16676TIP3    H171519   0.481   2.240  13.207 -1.0677 -0.3393 -0.5938
16676TIP3    H271520   0.483   2.137  13.318 -0.7999  0.9559  0.6440
16677TIP3   OH271521   0.065   2.822   0.107  0.4550 -0.2932  0.0726
16677TIP3    H171522   0.032   2.732   0.106  2.3809 -1.0575 -0.0152
16677TIP3    H271523   0.157   2.813   0.131  0.3396  1.8057  1.5443
16678TIP3   OH271524   4.091   4.236   5.160 -0.3618 -0.2965 -0.1516
16678TIP3    H171525   4.010   4.263   5.203 -0.4198  0.5102 -0.7510
16678TIP3    H271526   4.066   4.158   5.110 -0.6243 -0.4024  0.1379
16679TIP3   OH271527   0.661   3.606   2.735 -0.0140  0.0936 -0.6306
16679TIP3    H171528   0.728   3.537   2.736  0.1789  0.2900  0.0308
16679TIP3    H271529   0.582   3.562   2.764  0.0589  0.0999 -0.4225
16680TIP3   OH271530   0.323   4.454  14.917 -0.5987  0.5577  0.6089
16680TIP3    H171531   0.238   4.421  14.889  1.1387 -3.9380 -0.1481
16680TIP3    H271532   0.359   4.498  14.840 -1.4831  0.8878  0.3749
16681TIP3   OH271533   3.566   6.291  14.471 -0.1979 -0.3365 -0.1211
16681TIP3    H171534   3.478   6.319  14.443 -0.1892 -1.7057 -1.7252
16681TIP3    H271535   3.622   6.309  14.395  0.7668 -0.1755  0.6161
16682TIP3   OH271536   6.413   5.039  15.319  0.1344  0.2295  0.1396
16682TIP3    H171537   6.497   5.031  15.364 -0.9900 -1.4055  2.1201
16682TIP3    H271538   6.414   4.971  15.252 -0.0652 -0.6406  1.0004
16683TIP3   OH271539   3.163   4.806   4.746  0.4961 -0.1504  0.1426
16683TIP3    H171540   3.240   4.849   4.783 -0.1749  1.7594 -0.5386
16683TIP3    H271541   3.193   4.771   4.663  1.2506 -1.7924  1.0550
16684TIP3   OH271542   4.575   1.536  15.800 -0.2046 -0.0959  0.3191
16684TIP3    H171543   4.635   1.610  15.792 -1.5149  1.0182  0.4527
16684TIP3    H271544   4.487   1.575  15.791 -0.9548 -1.5278  1.1180
16685TIP3   OH271545   3.353   0.401  17.473  0.0058 -0.4479 -0.5298
16685TIP3    H171546   3.415   0.350  17.420 -0.8041 -4.0414  1.6135
16685TIP3    H271547   3.404   0.430  17.549 -0.4798 -2.1734  0.5186
16686TIP3   OH271548   4.493   1.969   0.425  0.2921 -0.2303  0.1662
16686TIP3    H171549   4.400   1.951   0.412 -0.0330  1.4986 -0.2039
16686TIP3    H271550   4.495   2.039   0.490  1.3978 -0.9245  0.9060
16687TIP3   OH271551   2.343   5.963   0.068 -0.3627  0.1352 -0.3473
16687TIP3    H171552   2.390   5.882   0.048  1.3269  1.1359 -0.6623
16687TIP3    H271553   2.306   5.991  -0.015 -1.1699 -0.4403 -0.1853
16688TIP3   OH271554   2.807   0.358  13.568 -0.1893 -0.2759  0.1912
16688TIP3    H171555   2.727   0.330  13.612  0.4757  0.3990  1.9573
16688TIP3    H271556   2.790   0.448  13.539 -0.5410 -0.6322 -0.7344
16689TIP3   OH271557   1.964   6.304   2.993  0.0995  0.1938  0.2598
16689TIP3    H171558   1.944   6.384   2.944 -0.1848  0.0084  0.0650
16689TIP3    H271559   1.882   6.255   2.990  0.2717 -0.0977  0.3883
16690TIP3   OH271560   2.629   0.664   2.402 -0.2805 -0.2397 -0.5570
16690TIP3    H171561   2.547   0.696   2.364  0.1739  0.2121 -1.1721
16690TIP3    H271562   2.625   0.693   2.493 -1.1698 -0.9381 -0.3526
16691TIP3   OH271563   2.392   5.239   4.736 -0.0621  0.2437  0.2350
16691TIP3    H171564   2.366   5.322   4.777  1.9727  0.2431  1.6425
16691TIP3    H271565   2.467   5.261   4.681 -0.5474 -0.3993 -0.7089
16692TIP3   OH271566   1.739   4.168  16.729  0.4038  0.3398 -0.9227
16692TIP3    H171567   1.667   4.140  16.672 -0.9690 -0.1882  0.9595
16692TIP3    H271568   1.807   4.101  16.716 -0.3533 -0.4132 -1.1177
16693TIP3   OH271569   2.046   1.310   0.973  0.0496 -0.3088  0.4498
16693TIP3    H171570   1.992   1.338   1.046  1.6793  0.2890  1.4971
16693TIP3    H271571   2.095   1.235   1.006  0.2938 -0.4809 -0.2648
16694TIP3   OH271572   0.393   0.872   1.359  0.1018  0.3194  0.3692
16694TIP3    H171573   0.364   0.784   1.382  1.6452 -0.6447 -1.1007
16694TIP3    H271574   0.316   0.914   1.320 -0.7545 -0.2290  1.4281
16695TIP3   OH271575   1.056   4.447   6.552 -0.4093 -0.2692 -0.7425
16695TIP3    H171576   1.106   4.528   6.539 -0.3086 -0.4396 -1.4398
16695TIP3    H271577   1.123   4.380   6.569 -0.4753 -0.2684 -0.4726
16696TIP3   OH271578   3.903   1.464   0.419 -0.5734 -0.0181  0.2541
16696TIP3    H171579   3.995   1.447   0.400 -0.4077 -0.8218  1.6938
16696TIP3    H271580   3.904   1.509   0.503 -1.5311 -0.6410  0.6091
16697TIP3   OH271581   0.184   0.687   4.918  0.2454  0.1330 -0.2781
16697TIP3    H171582   0.224   0.676   5.005 -0.8159  0.5094  0.2813
16697TIP3    H271583   0.097   0.648   4.927  0.4899 -0.7269 -1.4917
16698TIP3   OH271584   0.843   6.721  16.308  0.5665  0.5125 -0.2664
16698TIP3    H171585   0.826   6.627  16.319 -2.1919  0.8464 -0.8911
16698TIP3    H271586   0.936   6.727  16.287  1.0321 -1.9759  0.7380
16699TIP3   OH271587   5.052   1.791  11.794 -0.2177 -0.1886 -0.1302
16699TIP3    H171588   5.132   1.778  11.845  0.8558  0.0033 -1.6830
16699TIP3    H271589   5.006   1.708  11.800 -0.8374  0.2450  2.2375
16700TIP3   OH271590   2.944   2.362  13.438 -0.2405  0.3048  0.0378
16700TIP3    H171591   2.872   2.372  13.502 -1.6302 -0.9349 -1.2466
16700TIP3    H271592   2.899   2.356  13.354  1.3057 -1.6879 -0.6949
16701TIP3   OH271593   3.327   4.797   5.505  0.6138  0.5767 -0.3282
16701TIP3    H171594   3.337   4.879   5.554 -2.1718  0.1560  1.1449
16701TIP3    H271595   3.388   4.805   5.432  0.6092  3.8497 -0.1137
16702TIP3   OH271596   6.012   3.340   0.513 -0.0560 -0.1924  0.3814
16702TIP3    H171597   6.081   3.284   0.478  0.1489  0.7269 -0.7256
16702TIP3    H271598   6.008   3.317   0.606  2.7874  0.7178  0.8518
16703TIP3   OH271599   4.082   2.268   4.725 -0.1759 -0.3349  0.3779
16703TIP3    H171600   4.074   2.290   4.817  0.2306 -1.5939  0.7342
16703TIP3    H271601   4.176   2.255   4.711 -0.0491  1.2244 -0.5741
16704TIP3   OH271602   2.012   6.421   2.383 -0.1337  0.1249  0.3478
16704TIP3    H171603   1.987   6.484   2.315 -0.0957  1.1855  1.2956
16704TIP3    H271604   1.959   6.344   2.363 -1.3099  0.9771  0.0427
16705TIP3   OH271605   2.180   4.091   3.189  0.6341 -0.0678  0.2636
16705TIP3    H171606   2.273   4.083   3.208  0.3455  0.0905  1.9173
16705TIP3    H271607   2.145   4.003   3.203  0.2464  0.2704  1.6037
16706TIP3   OH271608   4.974   4.958  17.457  0.1479  0.0591  0.4295
16706TIP3    H171609   5.027   4.894  17.504  0.1266 -0.5738 -0.3860
16706TIP3    H271610   4.887   4.920  17.454  0.2780 -0.1826 -0.6170
16707TIP3   OH271611   5.898   5.847  15.634  0.4464 -0.2619  0.4991
16707TIP3    H171612   5.852   5.768  15.660 -0.6094  0.0132 -0.4870
16707TIP3    H271613   5.974   5.816  15.585 -0.3379 -0.6567 -0.4779
16708TIP3   OH271614   4.115   6.402   1.595 -0.1488  0.1054  0.0449
16708TIP3    H171615   4.062   6.452   1.533  2.2354  0.5757 -1.7497
16708TIP3    H271616   4.153   6.331   1.543  1.3957  0.1078  1.0811
16709TIP3   OH271617   3.423   6.654   2.900  0.1492  0.2945  0.0547
16709TIP3    H171618   3.516   6.654   2.923 -0.1310  0.2140  1.2474
16709TIP3    H271619   3.379   6.685   2.979 -0.8813 -0.1490 -0.3324
16710TIP3   OH271620   0.741   4.968   1.486 -0.3439 -0.1693  0.4061
16710TIP3    H171621   0.694   4.940   1.564  0.5206 -0.8281  0.7130
16710TIP3    H271622   0.814   5.021   1.519  0.2207 -0.7239  0.0816
16711TIP3   OH271623   0.231   6.494   3.030  0.0181  0.2180 -0.2755
16711TIP3    H171624   0.147   6.492   3.076  0.3635 -0.6299  0.3423
16711TIP3    H271625   0.259   6.585   3.035 -0.5400  0.3756  0.0981
16712TIP3   OH271626   1.234   4.538  17.208  0.0910  0.7635  0.2175
16712TIP3    H171627   1.158   4.567  17.156 -0.0810 -0.6359 -0.3345
16712TIP3    H271628   1.300   4.606  17.192 -0.4297  1.0743 -0.7257
16713TIP3   OH271629   5.501   3.602  11.518 -0.4766  0.4366  1.1471
16713TIP3    H171630   5.575   3.660  11.531 -0.2800  0.4530  0.0751
16713TIP3    H271631   5.515   3.565  11.430 -1.4817  0.0763  1.1254
16714TIP3   OH271632   1.346   3.110   1.804  0.1304  0.0573 -0.0810
16714TIP3    H171633   1.330   3.017   1.822  1.8105  0.3268  3.7140
16714TIP3    H271634   1.433   3.111   1.763  0.8527 -0.0282  1.3784
16715TIP3   OH271635   2.854   1.000  12.733  0.0717  0.4480  0.7044
16715TIP3    H171636   2.763   1.031  12.731 -0.7529 -1.7976  0.3465
16715TIP3    H271637   2.891   1.031  12.651 -0.6505  0.6189  0.4327
16716TIP3   OH271638   6.582   5.439  14.299 -0.3453  0.0680 -0.0898
16716TIP3    H171639   6.553   5.443  14.390 -0.3473 -0.0372 -0.0859
16716TIP3    H271640   6.609   5.348  14.286 -2.8674 -0.6143 -0.9932
16717TIP3   OH271641   3.644   0.455   4.767 -0.3880  0.5740 -0.3800
16717TIP3    H171642   3.681   0.514   4.832  0.2135  0.2089 -0.3757
16717TIP3    H271643   3.579   0.507   4.720 -0.7219  0.8829  0.4133
16718TIP3   OH271644   0.599   3.093   4.782 -0.4834  0.5601 -0.2259
16718TIP3    H171645   0.511   3.132   4.787 -0.7395 -0.1792  1.9677
16718TIP3    H271646   0.648   3.136   4.852  0.6465  0.3017 -0.8467
16719TIP3   OH271647   0.250   5.373  15.525 -0.3681  0.3441 -0.1939
16719TIP3    H171648   0.177   5.433  15.511  0.7304  1.5457 -0.9945
16719TIP3    H271649   0.210   5.294  15.562 -2.1924  0.5761 -1.5801
16720TIP3   OH271650   2.845   4.995   5.039  0.1401  0.3247  0.6764
16720TIP3    H171651   2.795   5.062   5.086 -0.9386  0.0564 -0.0720
16720TIP3    H271652   2.865   4.929   5.106  0.8251  1.1609  1.3173
16721TIP3   OH271653   0.496   3.793   5.267  0.0833  0.2241  0.1410
16721TIP3    H171654   0.435   3.748   5.209  0.9040 -1.2907  0.3906
16721TIP3    H271655   0.460   3.782   5.354 -1.7999  3.5594 -0.0740
16722TIP3   OH271656   0.067   5.506   3.579  0.1485  0.1023 -0.1994
16722TIP3    H171657   0.105   5.419   3.567 -0.3112 -0.0179 -0.8232
16722TIP3    H271658   0.136   5.567   3.552  0.1128 -0.1003 -0.7658
16723TIP3   OH271659   0.813   1.678   6.457  0.1564 -0.2536  0.1079
16723TIP3    H171660   0.741   1.615   6.444  0.7239 -0.9329  0.2106
16723TIP3    H271661   0.891   1.624   6.461  1.1199  0.6310 -3.2640
16724TIP3   OH271662   1.997   4.378  11.638  0.0649  0.6743 -0.2098
16724TIP3    H171663   1.944   4.300  11.624  0.4843  0.2819  0.3558
16724TIP3    H271664   1.937   4.441  11.679 -0.6866  1.2088 -2.0258
16725TIP3   OH271665   2.813   3.268  16.845 -0.1279 -0.2479  0.7813
16725TIP3    H171666   2.792   3.175  16.835 -0.3533  0.0364 -1.9245
16725TIP3    H271667   2.909   3.270  16.853  0.2845 -0.5734 -2.8080
16726TIP3   OH271668   0.068   4.627   2.617  0.3778  0.2753 -0.2753
16726TIP3    H171669   0.076   4.586   2.703 -0.0460 -2.1366 -1.2892
16726TIP3    H271670  -0.024   4.616   2.593  0.9446 -1.4432 -2.0183
16727TIP3   OH271671   0.576   1.641  16.480 -0.1243 -0.1328  0.3454
16727TIP3    H171672   0.611   1.553  16.466 -1.5802 -0.5603 -0.9361
16727TIP3    H271673   0.518   1.656  16.405  0.1157  1.9459  0.5163
16728TIP3   OH271674   2.554   0.602   4.156 -0.1865  0.2146  0.0201
16728TIP3    H171675   2.482   0.658   4.185 -0.0683  0.1566  0.4419
16728TIP3    H271676   2.522   0.512   4.170 -0.6816  0.1547 -1.4099
16729TIP3   OH271677   4.904   3.036  11.656 -0.1465 -0.0084 -0.5443
16729TIP3    H171678   4.935   3.001  11.739  0.0332 -1.1262 -1.0667
16729TIP3    H271679   4.911   2.963  11.594 -3.2960 -0.2409 -0.8331
16730TIP3   OH271680   0.942   0.233   3.627 -0.1661 -0.2673  0.0447
16730TIP3    H171681   0.907   0.202   3.543 -2.0396  1.6513  0.0220
16730TIP3    H271682   0.874   0.291   3.661  1.4077  0.5703  1.9617
16731TIP3   OH271683   4.981   0.488  15.825 -0.2308  0.6386  0.2876
16731TIP3    H171684   4.900   0.491  15.877 -0.1615 -0.4368  0.4827
16731TIP3    H271685   5.049   0.521  15.884 -0.1526 -0.5699  0.9167
16732TIP3   OH271686   6.064   6.348   5.379  0.6059  0.4175 -0.0862
16732TIP3    H171687   6.099   6.436   5.362  0.4211  0.9293  1.8947
16732TIP3    H271688   6.139   6.289   5.365  0.5086  0.7321 -2.3175
16733TIP3   OH271689   2.373   6.538  14.680  0.1683 -0.8221 -0.3087
16733TIP3    H171690   2.460   6.561  14.647 -0.6763  0.8915 -1.4957
16733TIP3    H271691   2.389   6.474  14.749  2.6547  2.0331  1.9940
16734TIP3   OH271692   3.135   4.435  15.297  0.3985 -0.2057  0.5581
16734TIP3    H171693   3.127   4.419  15.391  0.1892  3.5701  1.3674
16734TIP3    H271694   3.226   4.459  15.284 -0.1112  1.8748  0.4134
16735TIP3   OH271695   2.909   2.720  14.536  0.1318 -0.3633 -0.2993
16735TIP3    H171696   2.827   2.769  14.529 -0.0451 -0.7741 -1.3772
16735TIP3    H271697   2.908   2.683  14.624 -1.2632 -1.0766 -0.5903
16736TIP3   OH271698   2.335   5.696  15.194 -0.0850  0.2941 -0.0537
16736TIP3    H171699   2.368   5.663  15.278  1.2312 -0.8905 -1.0014
16736TIP3    H271700   2.341   5.792  15.202  0.7514  0.1821  0.9104
16737TIP3   OH271701   6.286   6.445  15.583  0.1098  0.2803 -0.2363
16737TIP3    H171702   6.214   6.473  15.641  1.7163  0.1628  1.9513
16737TIP3    H271703   6.254   6.364  15.543 -0.7136 -0.1918  1.2962
16738TIP3   OH271704   6.230   5.766   5.653 -0.1366 -0.4482  0.6784
16738TIP3    H171705   6.273   5.717   5.723 -0.4472 -1.7213 -0.0004
16738TIP3    H271706   6.137   5.756   5.670 -0.2252 -1.2658 -0.2414
16739TIP3   OH271707   4.529   3.721   4.382 -0.0004  0.2766 -0.3983
16739TIP3    H171708   4.516   3.692   4.472 -2.1290  0.9725 -0.4060
16739TIP3    H271709   4.573   3.806   4.390  0.3117  0.0841 -0.0543
16740TIP3   OH271710   1.232   5.946  12.782 -0.2174  0.1797  0.6439
16740TIP3    H171711   1.165   5.901  12.833  0.7991  0.1398  1.9831
16740TIP3    H271712   1.309   5.889  12.786 -0.2265 -0.0645 -1.3619
16741TIP3   OH271713   2.116   0.542   2.962  0.3085  0.4235 -0.2351
16741TIP3    H171714   2.051   0.609   2.943  1.0818  1.0260 -0.8288
16741TIP3    H271715   2.065   0.464   2.983 -0.6044  0.7164 -1.2586
16742TIP3   OH271716   4.327   4.162  12.642 -0.1217  0.2914  0.3839
16742TIP3    H171717   4.287   4.126  12.721 -2.0521  1.2510 -0.0864
16742TIP3    H271718   4.403   4.211  12.674 -1.5563  1.7179  1.8586
16743TIP3   OH271719   0.103   3.229  11.992 -0.0606  0.2507  0.2889
16743TIP3    H171720   0.087   3.234  12.086  1.4758 -0.5615  0.6174
16743TIP3    H271721   0.185   3.275  11.979 -0.1279  0.1334 -0.6255
16744TIP3   OH271722   4.861   2.818   5.329  0.4303 -0.1680  0.4027
16744TIP3    H171723   4.923   2.776   5.269 -2.5743 -2.1694 -1.5554
16744TIP3    H271724   4.907   2.897   5.358  3.0131 -0.2902 -2.7155
16745TIP3   OH271725   2.785   5.822   5.521  0.4465 -0.7280  0.6381
16745TIP3    H171726   2.768   5.916   5.513 -1.2619 -1.0204  0.3748
16745TIP3    H271727   2.770   5.804   5.614 -3.0719 -1.3267  0.1024
16746TIP3   OH271728   5.122   6.248  16.099 -0.1028  0.3730  0.4366
16746TIP3    H171729   5.192   6.301  16.137  0.1944  0.6320 -0.4570
16746TIP3    H271730   5.143   6.241  16.006  0.9948 -3.0261  0.7840
16747TIP3   OH271731   6.548   0.527   1.738 -0.1112 -0.4226 -0.0964
16747TIP3    H171732   6.535   0.440   1.700 -1.4895  0.6281 -2.1986
16747TIP3    H271733   6.625   0.517   1.794  1.3818 -2.3926 -2.2924
16748TIP3   OH271734   1.436   4.955   2.465  0.3235 -0.0323  0.0141
16748TIP3    H171735   1.442   5.047   2.437  0.1559  0.4706  1.5203
16748TIP3    H271736   1.351   4.926   2.434 -0.9578  1.2804  2.0453
16749TIP3   OH271737   1.769   5.612   4.159 -0.1334  0.3081  0.1971
16749TIP3    H171738   1.680   5.579   4.151 -1.0464  2.5596  0.3868
16749TIP3    H271739   1.814   5.576   4.082 -1.1649 -0.8803  0.1106
16750TIP3   OH271740   5.162   5.765   6.289  0.5364 -0.3102 -1.2196
16750TIP3    H171741   5.085   5.766   6.346  1.4516 -1.5124  0.1086
16750TIP3    H271742   5.225   5.823   6.333  0.6627  0.0849 -1.9093
16751TIP3   OH271743   3.734   4.277   5.030  0.6531  0.0302 -0.7730
16751TIP3    H171744   3.792   4.202   5.040 -0.4135 -0.8640 -1.1003
16751TIP3    H271745   3.723   4.287   4.936  0.9047  0.6907 -0.7331
16752TIP3   OH271746   3.325   0.869   0.227  0.6838 -0.5092  0.2562
16752TIP3    H171747   3.398   0.840   0.172  0.9095  0.4496  0.0371
16752TIP3    H271748   3.247   0.856   0.173  0.7405 -1.0041  0.2839
16753TIP3   OH271749   3.498   0.466  14.981 -0.4069  0.6710  0.1102
16753TIP3    H171750   3.563   0.532  14.955 -0.2374  0.5758  0.2973
16753TIP3    H271751   3.514   0.451  15.074 -0.8672  0.8409  0.2228
16754TIP3   OH271752   4.214   5.045  12.272  0.6642  0.0151 -0.2488
16754TIP3    H171753   4.129   5.077  12.302  1.3287  2.7327 -0.9786
16754TIP3    H271754   4.269   5.047  12.350  0.5355  0.0410 -0.1586
16755TIP3   OH271755   3.608   5.675  13.290  0.3397  0.2200 -0.4930
16755TIP3    H171756   3.603   5.760  13.246  2.2007  0.0235 -1.1724
16755TIP3    H271757   3.518   5.657  13.318 -0.4839  1.4316 -2.1921
16756TIP3   OH271758   5.560   6.192  13.380  0.0419 -0.4371 -0.0467
16756TIP3    H171759   5.467   6.184  13.359 -0.1714 -2.5855  1.4097
16756TIP3    H271760   5.564   6.265  13.443 -0.5251  0.1799 -0.7048
16757TIP3   OH271761   3.307   1.404   2.846 -0.1445  0.0405  0.1927
16757TIP3    H171762   3.304   1.352   2.765 -4.0557  0.3967 -0.0811
16757TIP3    H271763   3.351   1.486   2.820  0.5814 -0.6837 -0.9675
16758TIP3   OH271764   2.208   4.624  15.565 -0.3458  0.5761  0.1474
16758TIP3    H171765   2.211   4.533  15.594 -0.7471 -0.0260 -1.5302
16758TIP3    H271766   2.121   4.633  15.525 -0.2639  1.6622  0.1811
16759TIP3   OH271767   6.318   1.263   3.665 -0.5724  0.3295 -0.7176
16759TIP3    H171768   6.394   1.314   3.692 -0.3273  1.0223 -2.5531
16759TIP3    H271769   6.319   1.267   3.569 -2.6655 -0.0220 -0.8095
16760TIP3   OH271770   0.510   6.515  14.919  0.1729  0.7130  0.3674
16760TIP3    H171771   0.563   6.450  14.873  1.4475  2.9677 -1.5831
16760TIP3    H271772   0.424   6.509  14.877 -0.5347 -1.2956  1.9050
16761TIP3   OH271773   6.637   4.124  15.147 -0.2387 -0.1771 -0.3358
16761TIP3    H171774   6.678   4.081  15.072  1.1367 -0.5319  0.5835
16761TIP3    H271775   6.569   4.180  15.108  0.3491 -0.4501 -1.8259
16762TIP3   OH271776   0.354   4.264  15.247 -0.0466  0.1888  0.7256
16762TIP3    H171777   0.319   4.251  15.159 -0.5375  0.3060  0.8981
16762TIP3    H271778   0.384   4.355  15.247  2.0212 -0.4417 -0.0123
16763TIP3   OH271779   6.446   1.296   2.280 -0.1198 -0.0798 -0.9235
16763TIP3    H171780   6.402   1.336   2.205  0.5839  1.2238 -0.6625
16763TIP3    H271781   6.385   1.309   2.353 -0.5759 -0.8920 -1.1451
16764TIP3   OH271782   2.232   1.610   1.031 -0.0084  0.1282 -0.1006
16764TIP3    H171783   2.189   1.616   1.116 -0.1735 -0.4554 -0.1373
16764TIP3    H271784   2.294   1.537   1.041  0.6171  0.6398 -0.2006
16765TIP3   OH271785   5.152   1.461  12.040 -0.0356  0.2401 -0.1662
16765TIP3    H171786   5.230   1.433  12.089 -2.4735  0.4067  4.3061
16765TIP3    H271787   5.111   1.380  12.011 -0.6604 -0.2287  1.8730
16766TIP3   OH271788   1.942   3.444   4.390  0.0256  0.1649  0.4381
16766TIP3    H171789   2.028   3.486   4.397 -0.1203  0.3085  1.4915
16766TIP3    H271790   1.885   3.512   4.354 -0.0743  0.7032  1.5738
16767TIP3   OH271791   0.849   6.674   2.325 -0.4460  0.0021  0.3010
16767TIP3    H171792   0.847   6.602   2.262 -0.3619 -0.3779  0.7291
16767TIP3    H271793   0.940   6.705   2.323 -0.2134 -0.6089  0.8970
16768TIP3   OH271794   5.082   5.428   1.501  0.5285  0.0323 -0.1848
16768TIP3    H171795   5.000   5.387   1.473  1.6260 -2.2102 -0.3784
16768TIP3    H271796   5.073   5.520   1.476 -1.8132 -0.1973 -0.4055
16769TIP3   OH271797   6.157   1.727   1.422  0.3483  0.0008 -0.2939
16769TIP3    H171798   6.182   1.638   1.394  0.1002 -0.3917  0.6861
16769TIP3    H271799   6.092   1.713   1.490 -1.5440  0.9763 -1.7974
16770TIP3   OH271800   1.334   2.705   6.236  0.1383 -0.1122  0.0954
16770TIP3    H171801   1.350   2.619   6.198  0.3128  0.7750 -1.9571
16770TIP3    H271802   1.243   2.701   6.267 -0.2125 -0.7042 -0.9625
16771TIP3   OH271803   2.194   3.351  15.092  0.3830  0.6845 -0.1092
16771TIP3    H171804   2.135   3.294  15.043  0.3786 -1.3615  2.1544
16771TIP3    H271805   2.258   3.381  15.026 -0.1161 -1.2331 -1.5500
16772TIP3   OH271806   5.988   1.996   2.227  0.3552  0.1350  0.0004
16772TIP3    H171807   6.057   2.027   2.169 -0.1370  0.0141 -0.6557
16772TIP3    H271808   5.913   2.051   2.207 -0.0904 -0.5146 -0.1327
16773TIP3   OH271809   0.605   4.180   4.754  0.0163 -0.4826  0.7457
16773TIP3    H171810   0.562   4.129   4.823  0.1809 -1.7609 -0.0556
16773TIP3    H271811   0.632   4.114   4.689  2.4177  0.3389  0.8094
16774TIP3   OH271812   2.133   6.184  12.796  0.1722  0.8208  0.4691
16774TIP3    H171813   2.083   6.223  12.868  0.5165  1.8305  0.1797
16774TIP3    H271814   2.072   6.183  12.723  0.8231  2.9409 -0.1531
16775TIP3   OH271815   5.802   3.696   0.222 -0.1126  0.2168 -0.2893
16775TIP3    H171816   5.785   3.642   0.145  0.4213 -1.6630  0.8375
16775TIP3    H271817   5.802   3.634   0.295 -0.8030  1.9582  1.2710
16776TIP3   OH271818   3.811   4.975  12.783 -0.9955 -0.1560  0.2574
16776TIP3    H171819   3.878   5.038  12.754 -1.8432 -0.0247 -1.5904
16776TIP3    H271820   3.819   4.973  12.878  0.2949  1.3639  0.2212
16777TIP3   OH271821   5.252   6.424  11.979  0.0424  0.5323 -0.4619
16777TIP3    H171822   5.186   6.477  11.935  1.6536  1.9421 -1.3112
16777TIP3    H271823   5.240   6.443  12.072 -1.6938 -0.4250 -0.4624
16778TIP3   OH271824   4.637   2.086   2.259 -0.8361 -0.4794  0.4422
16778TIP3    H171825   4.617   2.179   2.261 -2.5598 -0.7999  0.2768
16778TIP3    H271826   4.623   2.060   2.168 -1.4647 -1.0840  0.6977
16779TIP3   OH271827   2.008   2.217  15.295  0.3848 -0.1997 -0.6526
16779TIP3    H171828   2.065   2.259  15.359 -2.2589  1.1027  1.0426
16779TIP3    H271829   2.008   2.125  15.320  0.4492  0.0725  0.3809
16780TIP3   OH271830   4.858   4.130   5.424 -0.5310 -0.8425 -0.0232
16780TIP3    H171831   4.780   4.147   5.371 -1.5985 -2.3078  0.9922
16780TIP3    H271832   4.931   4.136   5.362 -1.2915  1.5891 -0.7909
16781TIP3   OH271833   1.397   1.181  13.408 -0.0439  0.3580 -0.2751
16781TIP3    H171834   1.423   1.142  13.491  1.1813 -0.6971 -1.1219
16781TIP3    H271835   1.443   1.130  13.342  0.2279  2.1348 -1.5390
16782TIP3   OH271836   2.340   3.867   6.244 -0.0222 -0.1254  1.2700
16782TIP3    H171837   2.300   3.781   6.256 -0.4291  0.1334  1.8399
16782TIP3    H271838   2.425   3.860   6.287  0.3430 -0.5243  0.4970
16783TIP3   OH271839   6.077   6.181   6.037  0.0156 -0.0875  0.0774
16783TIP3    H171840   6.114   6.269   6.029 -0.9244  0.2400 -0.8796
16783TIP3    H271841   6.137   6.125   5.987 -0.1390  0.2474 -0.4909
16784TIP3   OH271842   1.099   3.837   4.722  0.1188  0.6177  0.4343
16784TIP3    H171843   1.177   3.789   4.694 -0.5894 -1.2429  1.5171
16784TIP3    H271844   1.038   3.770   4.750 -2.6749  1.8738 -2.0947
16785TIP3   OH271845   5.529   6.409   0.660 -0.1378 -0.4775 -0.2544
16785TIP3    H171846   5.438   6.388   0.640  0.1585 -0.9745 -1.1053
16785TIP3    H271847   5.531   6.416   0.756 -1.2813  0.5812 -0.2800
16786TIP3   OH271848   4.894   5.523  14.116 -0.5722 -0.1617  0.7502
16786TIP3    H171849   4.803   5.542  14.135 -0.3026  1.3627  0.6839
16786TIP3    H271850   4.914   5.444  14.165 -1.7604 -0.1555  1.2525
16787TIP3   OH271851   4.911   3.236  15.558  0.1818  0.1371  0.1866
16787TIP3    H171852   4.838   3.207  15.503  0.7246 -1.5801  0.3203
16787TIP3    H271853   4.903   3.184  15.638  0.9489  0.6893  0.6386
16788TIP3   OH271854   4.372   0.315   3.125  0.3966 -0.2066 -0.3977
16788TIP3    H171855   4.389   0.221   3.121  0.3420 -0.2616  0.4030
16788TIP3    H271856   4.277   0.323   3.136  0.5893 -0.1802  1.8301
16789TIP3   OH271857   3.950   3.325  11.283 -0.3583 -0.1047 -0.2892
16789TIP3    H171858   3.933   3.324  11.378 -0.9589 -0.5605 -0.3925
16789TIP3    H271859   3.983   3.413  11.265  0.1686 -0.1499  0.4144
16790TIP3   OH271860   0.337   4.681  11.290  0.2187  0.6562 -0.1962
16790TIP3    H171861   0.426   4.699  11.321  0.1705 -0.4856  0.6764
16790TIP3    H271862   0.342   4.591  11.257 -0.9102  0.1029  1.0730
16791TIP3   OH271863   0.412   2.874  16.506 -0.2321  0.1968 -0.4696
16791TIP3    H171864   0.458   2.830  16.577 -1.4109  0.3748  0.4302
16791TIP3    H271865   0.376   2.802  16.452  1.3300  0.0516 -1.3773
16792TIP3   OH271866   0.090   3.515   2.014  0.1668 -0.3879  0.2436
16792TIP3    H171867   0.114   3.471   1.932  2.2098  0.8359  0.1302
16792TIP3    H271868   0.124   3.458   2.082  1.8437  0.3992  0.1163
16793TIP3   OH271869   1.391   3.755  17.271  0.1915  0.4997 -0.2257
16793TIP3    H171870   1.458   3.822  17.255  0.1138  0.2823 -1.6249
16793TIP3    H271871   1.341   3.751  17.189 -0.6276 -0.3545  0.2920
16794TIP3   OH271872   4.826   4.491   6.221  0.1297  0.4077 -0.1634
16794TIP3    H171873   4.856   4.582   6.220 -1.9984  1.1603 -0.7060
16794TIP3    H271874   4.744   4.492   6.172  1.1381 -2.2392 -2.1496
16795TIP3   OH271875   4.215   3.521  17.307 -0.1961  0.0719  0.3129
16795TIP3    H171876   4.148   3.564  17.361 -0.2522  1.2419 -0.6614
16795TIP3    H271877   4.297   3.560  17.334  0.0401 -0.8648  1.0127
16796TIP3   OH271878   1.967   6.334   4.896  0.5142 -0.8870 -0.6184
16796TIP3    H171879   1.974   6.248   4.937 -1.3739 -0.4029  0.8720
16796TIP3    H271880   2.053   6.373   4.908  0.8266 -1.8360  0.4487
16797TIP3   OH271881   5.892   0.516  17.091  0.1005 -0.3430  0.2667
16797TIP3    H171882   5.797   0.516  17.102 -0.1557  0.9043 -1.5141
16797TIP3    H271883   5.911   0.437  17.041 -0.0144 -0.5371  0.5304
16798TIP3   OH271884   4.730   3.349  14.378  0.6564 -0.0123  0.4479
16798TIP3    H171885   4.671   3.332  14.305  0.0189 -1.3489  1.2209
16798TIP3    H271886   4.689   3.420  14.427 -0.6650 -1.2835  1.2778
16799TIP3   OH271887   0.939   6.508   4.386  0.2785 -0.1531 -0.2234
16799TIP3    H171888   0.969   6.425   4.423 -0.1661 -0.3259 -0.2444
16799TIP3    H271889   0.845   6.509   4.402  0.4374  0.8604  0.7641
16800TIP3   OH271890   4.861   5.439  12.233 -0.5509  0.0946 -0.3739
16800TIP3    H171891   4.902   5.356  12.254 -1.5970 -0.6281 -1.0656
16800TIP3    H271892   4.931   5.504  12.241  0.4395 -0.9402 -0.4770
16801TIP3   OH271893   1.931   6.469   3.901  0.2605  0.4953 -0.4767
16801TIP3    H171894   1.935   6.556   3.940  1.5723 -0.3232  1.3583
16801TIP3    H271895   1.838   6.445   3.905 -0.1125  1.7775 -0.9908
16802TIP3   OH271896   0.346   2.778   1.762  0.3071  0.1152  0.6072
16802TIP3    H171897   0.396   2.723   1.701 -0.6764 -0.5403  0.3640
16802TIP3    H271898   0.400   2.782   1.841 -0.8096 -3.6897  1.7951
16803TIP3   OH271899   6.519   3.785   2.741  0.0839 -0.3063 -0.2314
16803TIP3    H171900   6.565   3.867   2.721 -0.0456 -0.0832  0.3565
16803TIP3    H271901   6.529   3.732   2.662  1.0387 -0.1204 -0.2487
16804TIP3   OH271902   5.411   4.456  14.075 -0.6445  0.1426 -0.6421
16804TIP3    H171903   5.471   4.390  14.111  0.6351  1.0937 -0.9590
16804TIP3    H271904   5.382   4.419  13.992 -0.4052 -0.2727 -0.5473
16805TIP3   OH271905   0.110   2.157  14.544 -0.5228  0.3239 -0.1084
16805TIP3    H171906   0.055   2.226  14.508  1.1896  0.8286 -1.8922
16805TIP3    H271907   0.193   2.200  14.565  0.6537 -1.1694 -1.4561
16806TIP3   OH271908   1.876   3.372  13.376 -0.5143  0.0781  0.3145
16806TIP3    H171909   1.954   3.326  13.344 -0.3633 -0.2627  1.1556
16806TIP3    H271910   1.908   3.460  13.398 -0.6951  0.4363 -0.7968
16807TIP3   OH271911   1.944   5.966  13.269  0.3456 -0.3124 -0.6023
16807TIP3    H171912   1.980   6.049  13.300 -0.2705 -0.3733  0.3394
16807TIP3    H271913   1.925   5.980  13.177  1.7629  0.0538 -0.8567
16808TIP3   OH271914   0.419   3.295  16.721  0.2320  0.6428  0.3220
16808TIP3    H171915   0.457   3.311  16.808 -0.4084 -0.4673  0.8309
16808TIP3    H271916   0.329   3.269  16.739  0.8072 -2.2016 -0.4340
16809TIP3   OH271917   4.900   3.933  16.575  0.0569  0.0473  0.2045
16809TIP3    H171918   4.871   3.909  16.663  1.9656  2.2028  1.5471
16809TIP3    H271919   4.910   4.029  16.578  0.9290  0.1000 -2.1117
16810TIP3   OH271920   2.285   2.972  15.765  0.8459  0.4804  0.4632
16810TIP3    H171921   2.302   2.887  15.806  2.7674  0.3884 -0.4662
16810TIP3    H271922   2.220   2.954  15.698  1.0476 -0.2025  0.4489
16811TIP3   OH271923   2.176   1.369   0.442  0.1345  0.0596  0.2083
16811TIP3    H171924   2.128   1.351   0.524  0.0939  0.6160  0.3093
16811TIP3    H271925   2.109   1.366   0.374  0.4483 -2.3009 -0.0824
16812TIP3   OH271926   1.983   6.651   4.728  0.0323  0.2611 -0.2667
16812TIP3    H171927   1.914   6.599   4.687 -0.3555  1.4773 -1.2208
16812TIP3    H271928   2.018   6.705   4.657  1.2050  0.4897  0.4498
16813TIP3   OH271929   6.447   4.661   4.938  0.4790  0.0611  0.4878
16813TIP3    H171930   6.527   4.615   4.913  0.5903  0.0685  0.8189
16813TIP3    H271931   6.459   4.680   5.031 -0.3375 -0.8192  0.7798
16814TIP3   OH271932   5.335   3.237  12.215  0.0282  0.6351 -0.2724
16814TIP3    H171933   5.334   3.270  12.125 -1.9872  1.7315  0.1080
16814TIP3    H271934   5.336   3.315  12.270  4.3159  0.0887  0.8234
16815TIP3   OH271935   6.349   2.106  15.872 -0.2635  0.5510 -0.0307
16815TIP3    H171936   6.317   2.191  15.900 -0.6015 -0.1447  1.8270
16815TIP3    H271937   6.409   2.078  15.941 -0.0914 -0.6801 -0.6369
16816TIP3   OH271938   2.212   5.588  17.312 -0.0899 -0.8357  0.6881
16816TIP3    H171939   2.276   5.579  17.241  0.9239  0.5750  1.3605
16816TIP3    H271940   2.128   5.594  17.268  0.5020 -0.1582 -0.4090
16817TIP3   OH271941   5.434   4.708   4.375  0.0609 -0.1262  0.1335
16817TIP3    H171942   5.371   4.688   4.444  0.1036  0.3212  0.3086
16817TIP3    H271943   5.415   4.646   4.305  0.3539 -0.9377  0.7561
16818TIP3   OH271944   6.486   5.236   0.571  0.8807  0.0421  0.4469
16818TIP3    H171945   6.565   5.284   0.548  0.1351  2.0970  1.9383
16818TIP3    H271946   6.464   5.265   0.659 -2.4419  0.8416 -0.4892
16819TIP3   OH271947   1.137   3.678  14.732  0.5710  0.1477  0.4020
16819TIP3    H171948   1.187   3.617  14.679 -1.1116  0.3384 -1.5465
16819TIP3    H271949   1.131   3.637  14.818  2.4634 -0.7056  0.1566
16820TIP3   OH271950   4.874   4.901  17.062  0.1056 -0.3593 -0.1260
16820TIP3    H171951   4.938   4.852  17.010 -2.7880 -2.3456 -2.1008
16820TIP3    H271952   4.811   4.835  17.090 -1.9107  1.6905  0.4093
16821TIP3   OH271953   1.057   1.928   3.027  0.2288 -0.2435  0.2014
16821TIP3    H171954   0.969   1.898   3.050 -0.3918 -0.1373 -1.8192
16821TIP3    H271955   1.050   2.023   3.024  0.2928 -0.2519 -0.3380
16822TIP3   OH271956   6.714   2.183  11.033  0.3631 -0.5126  0.3083
16822TIP3    H171957   6.684   2.258  10.982  3.1151 -0.7758 -1.9854
16822TIP3    H271958   6.662   2.109  10.999  1.1329 -0.4280 -1.1515
16823TIP3   OH271959   3.524   2.465  11.750 -0.0341  0.3003  0.4204
16823TIP3    H171960   3.512   2.464  11.655 -0.0862  0.2795  0.4276
16823TIP3    H271961   3.619   2.471  11.762  0.4663 -4.0220  0.3495
16824TIP3   OH271962   3.741   6.574   0.654 -0.1819 -0.0472  0.2840
16824TIP3    H171963   3.678   6.610   0.716 -2.0387 -0.5335 -1.2271
16824TIP3    H271964   3.730   6.627   0.575 -0.0494 -1.3082 -0.6196
16825TIP3   OH271965   6.417   2.065  16.730  0.4540 -0.5778  0.0851
16825TIP3    H171966   6.389   2.131  16.794  0.5310 -0.0008 -0.4670
16825TIP3    H271967   6.462   2.116  16.662  1.2956 -1.2943  0.0896
16826TIP3   OH271968   6.497   5.526  15.187  0.2548  0.4902  0.4114
16826TIP3    H171969   6.402   5.530  15.199 -0.0393  1.4063 -1.7421
16826TIP3    H271970   6.514   5.435  15.162 -0.1285  0.4399  0.3255
16827TIP3   OH271971   2.986   1.636   3.008  0.0667  0.2528  0.0276
16827TIP3    H171972   2.910   1.613   2.954 -0.0309 -0.4107  0.4358
16827TIP3    H271973   3.013   1.553   3.048  1.9664  0.1706 -1.2950
16828TIP3   OH271974   1.150   0.309  15.791 -0.6339  0.0301 -0.8375
16828TIP3    H171975   1.074   0.357  15.823 -0.6380 -0.0100 -0.7861
16828TIP3    H271976   1.155   0.329  15.698 -1.1748 -0.6104 -1.0103
16829TIP3   OH271977   2.251   2.557  14.951 -0.1424  0.3116 -0.0470
16829TIP3    H171978   2.306   2.551  15.030 -0.2526  1.1343  0.1009
16829TIP3    H271979   2.297   2.503  14.886  1.9702  2.5388 -0.5563
16830TIP3   OH271980   3.057   0.443  14.307  0.1054  0.0996  0.0412
16830TIP3    H171981   3.012   0.521  14.274  1.2894  0.7791 -0.0272
16830TIP3    H271982   3.124   0.424  14.241 -0.8420 -1.6363 -0.4820
16831TIP3   OH271983   1.427   2.418  12.004 -1.1626  0.0191 -0.4654
16831TIP3    H171984   1.339   2.400  11.972 -0.9502 -0.9858 -0.5215
16831TIP3    H271985   1.415   2.485  12.071 -1.8416  0.6773 -1.2233
16832TIP3   OH271986   0.509   4.482  12.578  0.1517 -0.1658  0.1990
16832TIP3    H171987   0.589   4.524  12.610  0.3313 -1.6308  1.7929
16832TIP3    H271988   0.482   4.537  12.505  1.8176  1.1902  0.5190
16833TIP3   OH271989   5.136   0.054   2.583  0.2037 -0.2421  0.1128
16833TIP3    H171990   5.173   0.124   2.529  0.6709  0.2605  1.0583
16833TIP3    H271991   5.042   0.064   2.575  0.2710  0.1636 -0.1761
16834TIP3   OH271992   5.508   3.608   2.870  0.1140 -0.0841  0.1145
16834TIP3    H171993   5.427   3.632   2.825  0.3599  0.4039 -0.0723
16834TIP3    H271994   5.529   3.684   2.925  0.0893 -0.4745  0.6697
16835TIP3   OH271995   5.673   4.011  11.669 -0.1974  0.2249  0.5631
16835TIP3    H171996   5.685   3.972  11.582  0.5036  0.5877  0.4897
16835TIP3    H271997   5.734   3.965  11.725  2.0579  2.4169  0.0850
16836TIP3   OH271998   4.760   5.708  11.886 -0.1424  0.1415 -0.3549
16836TIP3    H171999   4.731   5.625  11.924  1.0883  0.3057  1.0430
16836TIP3    H272000   4.854   5.711  11.906 -0.1873  1.9134 -0.2822
16837TIP3   OH272001   1.246   5.484  13.340 -0.5939 -0.0997 -0.0750
16837TIP3    H172002   1.332   5.451  13.366 -0.9829 -0.6141  0.6081
16837TIP3    H272003   1.184   5.426  13.385 -1.3500 -1.8744 -3.1435
16838TIP3   OH272004   3.994   4.287   2.442 -0.7128 -0.6714 -0.2449
16838TIP3    H172005   4.003   4.343   2.365 -0.4955  0.6573  0.7096
16838TIP3    H272006   4.064   4.314   2.501 -2.4240  0.1976  1.5054
16839TIP3   OH272007   2.338   0.174   3.825  0.5532  0.6481  0.2473
16839TIP3    H172008   2.297   0.094   3.791  1.1690 -0.3122  1.6212
16839TIP3    H272009   2.287   0.246   3.789  0.7882 -0.2944 -2.1344
16840TIP3   OH272010   3.435   2.236   3.734 -0.6962 -0.4039  0.3095
16840TIP3    H172011   3.505   2.232   3.799 -0.0997  0.7939 -0.2433
16840TIP3    H272012   3.372   2.169   3.763  0.1359 -0.7328  1.4228
16841TIP3   OH272013   1.358   4.260   1.107 -0.2210  0.0080 -0.3787
16841TIP3    H172014   1.300   4.323   1.150 -1.0645 -0.8045 -0.2976
16841TIP3    H272015   1.433   4.312   1.078 -1.7684  1.4271 -2.0531
16842TIP3   OH272016   1.109   2.097   5.469  0.1781  0.3313  0.9406
16842TIP3    H172017   1.186   2.047   5.440  1.3144  2.1612  0.6278
16842TIP3    H272018   1.044   2.081   5.401  0.8840  0.1288  0.2887
16843TIP3   OH272019   5.977   1.034   1.238  0.1657 -0.1143  0.3774
16843TIP3    H172020   6.002   1.009   1.326 -0.9567  0.9052  1.0108
16843TIP3    H272021   5.969   1.129   1.241  3.4743  0.3846 -1.7345
16844TIP3   OH272022   1.641   6.768  16.955 -0.3094  0.0432 -0.3660
16844TIP3    H172023   1.637   6.725  17.040  1.9216 -1.0037 -0.7118
16844TIP3    H272024   1.603   6.704  16.894  1.9439 -1.0784 -0.7074
16845TIP3   OH272025   3.185   2.953   0.079  0.7631  0.0502 -0.3056
16845TIP3    H172026   3.232   3.033   0.057  0.2484  0.8582  1.3927
16845TIP3    H272027   3.237   2.913   0.149 -1.1459  1.1658  1.9062
16846TIP3   OH272028   3.252   1.317  15.788  0.0547 -0.0704  0.5193
16846TIP3    H172029   3.275   1.272  15.706 -0.0421 -1.8093  1.3930
16846TIP3    H272030   3.163   1.347  15.774 -0.1735 -0.8656  0.1718
16847TIP3   OH272031   3.534   2.782  14.273  0.4644 -0.6034 -0.0230
16847TIP3    H172032   3.544   2.753  14.363 -0.4778  0.0394  0.3008
16847TIP3    H272033   3.467   2.724  14.236 -0.4627  0.2893  0.2343
16848TIP3   OH272034   3.186   1.078   6.093  0.7170  0.0405 -0.3349
16848TIP3    H172035   3.223   0.990   6.093 -0.2609 -0.5069  2.9466
16848TIP3    H272036   3.143   1.086   6.008  1.9645 -2.0855 -1.2505
16849TIP3   OH272037   0.928   1.315   5.943 -0.6034  0.2309 -0.3018
16849TIP3    H172038   0.840   1.312   5.906 -0.5492  0.8948 -0.4930
16849TIP3    H272039   0.919   1.371   6.021 -0.5594 -0.5361  0.2644
16850TIP3   OH272040   5.103   1.974  15.474  0.3102  1.0134 -0.3558
16850TIP3    H172041   5.093   2.067  15.456 -0.8002  1.1637  0.9111
16850TIP3    H272042   5.021   1.935  15.443 -0.0218  0.7453  0.8276
16851TIP3   OH272043   1.072   5.319  10.923 -0.0967 -0.4614  0.1732
16851TIP3    H172044   0.991   5.298  10.968 -0.5036  1.3122  0.3756
16851TIP3    H272045   1.089   5.411  10.947  1.6292 -0.6046 -0.3642
16852TIP3   OH272046   4.709   3.087  14.116  0.3575 -0.0340 -0.1935
16852TIP3    H172047   4.787   3.095  14.170  1.6192  0.8802 -2.0412
16852TIP3    H272048   4.681   3.178  14.102 -0.0651 -0.2671 -0.8719
16853TIP3   OH272049   3.355   1.740   0.052 -0.1139  0.3568  0.0890
16853TIP3    H172050   3.351   1.651   0.086 -1.1896 -0.1808 -1.3873
16853TIP3    H272051   3.265   1.760   0.026 -0.0062  2.0975  0.9067
16854TIP3   OH272052   3.664   2.911   4.200  0.1584 -0.3004 -0.7844
16854TIP3    H172053   3.625   2.995   4.176 -1.6988 -1.4929 -2.2703
16854TIP3    H272054   3.666   2.861   4.118 -0.6710 -2.3925  0.3911
16855TIP3   OH272055   6.305   3.499   2.224  0.3142  0.7691  0.1006
16855TIP3    H172056   6.229   3.476   2.276  1.0384  1.0756  1.3235
16855TIP3    H272057   6.275   3.571   2.168 -0.2722  0.9611  0.6545
16856TIP3   OH272058   0.060   6.338  13.146  0.2028 -0.0278 -0.0071
16856TIP3    H172059   0.041   6.391  13.070  0.4250  0.3753  0.2175
16856TIP3    H272060  -0.020   6.288  13.161  0.2283 -0.2618 -0.6228
16857TIP3   OH272061   3.402   2.517  15.561 -0.2276  0.4039 -0.2678
16857TIP3    H172062   3.405   2.496  15.468  0.7251 -1.5624  0.1556
16857TIP3    H272063   3.319   2.481  15.591 -0.1610  0.3085 -0.1971
16858TIP3   OH272064   5.648   4.753  13.557  0.4675 -1.2595 -0.4183
16858TIP3    H172065   5.698   4.832  13.539  0.1064 -0.9306  0.0040
16858TIP3    H272066   5.580   4.781  13.618  0.7973 -2.0337  0.3437
16859TIP3   OH272067   6.649   1.628  14.053 -0.5728  0.7223  0.2103
16859TIP3    H172068   6.713   1.620  14.124 -0.7303  2.3562  0.5899
16859TIP3    H272069   6.568   1.592  14.089 -0.0121 -0.9379 -0.1161
16860TIP3   OH272070   4.162   3.267  12.419  0.2514 -0.0629 -0.5564
16860TIP3    H172071   4.109   3.234  12.491  0.0659 -1.0802 -1.1360
16860TIP3    H272072   4.117   3.347  12.390 -0.3714 -0.3391 -0.3576
16861TIP3   OH272073   0.123   2.538   2.212  0.2811 -0.2198 -0.0381
16861TIP3    H172074   0.089   2.541   2.123  0.2340 -1.1359 -0.0610
16861TIP3    H272075   0.126   2.445   2.233  2.2285 -0.1511  0.1701
16862TIP3   OH272076   6.161   1.582   5.514  0.0746  0.4402  0.4229
16862TIP3    H172077   6.245   1.549   5.547 -0.8116 -2.1280  0.3705
16862TIP3    H272078   6.161   1.557   5.421 -0.2451  1.5547  0.1131
16863TIP3   OH272079   1.167   2.273  13.746 -0.5439 -0.6646 -0.2258
16863TIP3    H172080   1.103   2.278  13.817  1.8663 -1.5412  2.1846
16863TIP3    H272081   1.209   2.358  13.745  1.3973 -1.5197  1.5070
16864TIP3   OH272082   0.864   1.636  16.881 -0.6189  0.3901 -0.5205
16864TIP3    H172083   0.787   1.579  16.887  0.0178 -0.7453 -2.3624
16864TIP3    H272084   0.866   1.665  16.790  2.3842 -1.5542 -1.2141
16865TIP3   OH272085   1.683   0.820   1.337 -0.2671 -0.7116 -0.0606
16865TIP3    H172086   1.591   0.815   1.361 -0.5125  1.5261 -0.3097
16865TIP3    H272087   1.684   0.822   1.241 -0.2638  1.9417 -0.0961
16866TIP3   OH272088   2.333   3.451  11.448  0.2694 -0.2787 -0.0898
16866TIP3    H172089   2.413   3.497  11.474  0.4110 -0.4884 -0.1538
16866TIP3    H272090   2.270   3.521  11.432  0.7550 -0.0439 -1.1090
16867TIP3   OH272091   2.661   3.477  13.683 -0.7107  0.7106 -0.0128
16867TIP3    H172092   2.647   3.561  13.640 -1.5473  1.7614  2.1448
16867TIP3    H272093   2.574   3.436  13.683 -0.0457 -0.8721 -2.3125
16868TIP3   OH272094   3.833   4.307   0.391  0.7044 -0.3495 -0.2040
16868TIP3    H172095   3.758   4.298   0.332  1.1392 -0.2627 -0.7663
16868TIP3    H272096   3.878   4.386   0.362  0.1110  0.5433  1.1636
16869TIP3   OH272097   2.767   5.204   5.228  0.3927 -0.1921 -0.3851
16869TIP3    H172098   2.799   5.195   5.318 -1.5756  3.3881  0.8747
16869TIP3    H272099   2.795   5.291   5.201  0.4597 -0.9686 -3.0852
16870TIP3   OH272100   2.188   2.553   5.719 -0.1929 -0.2607 -0.7046
16870TIP3    H172101   2.222   2.641   5.732  1.2390 -0.5453 -2.1720
16870TIP3    H272102   2.207   2.508   5.802  0.0269  0.5136 -0.3304
16871TIP3   OH272103   3.440   0.064   3.369  0.3978  0.1450 -0.0433
16871TIP3    H172104   3.363   0.104   3.410 -0.0636  1.0891 -1.7506
16871TIP3    H272105   3.514   0.111   3.406  0.1789 -0.5909  1.4163
16872TIP3   OH272106   2.301   5.163  12.014 -0.2686 -0.5104  0.2412
16872TIP3    H172107   2.356   5.217  11.956 -2.6636  2.0799  0.1791
16872TIP3    H272108   2.263   5.097  11.955  0.2379 -0.2998 -0.3452
16873TIP3   OH272109   4.234   2.006  15.157  0.5019  0.1319  0.1449
16873TIP3    H172110   4.188   2.054  15.225 -0.0102  0.9206 -0.7373
16873TIP3    H272111   4.166   1.955  15.112  0.9014 -0.7331  0.4915
16874TIP3   OH272112   2.550   0.568  13.733 -0.0266  0.0949  0.3978
16874TIP3    H172113   2.461   0.592  13.704  0.4037 -0.4896 -1.5633
16874TIP3    H272114   2.547   0.473  13.744  0.7371 -0.1739 -1.3406
16875TIP3   OH272115   0.222   2.939   1.342 -0.0479 -0.7517 -0.0945
16875TIP3    H172116   0.126   2.945   1.350 -0.3164 -2.3565 -1.4430
16875TIP3    H272117   0.255   3.016   1.387 -1.9044 -0.9650  1.7982
16876TIP3   OH272118   4.149   0.755  11.703 -0.1991 -0.0891  0.0639
16876TIP3    H172119   4.223   0.803  11.666 -0.2278  0.7772  1.0583
16876TIP3    H272120   4.074   0.815  11.692 -0.9270 -1.2377 -1.5752
16877TIP3   OH272121   0.911   5.927  15.472 -0.1637  0.0734 -0.6137
16877TIP3    H172122   0.937   6.000  15.416 -0.9696  1.1418  0.3721
16877TIP3    H272123   0.958   5.851  15.435  2.3178  1.4115 -0.4608
16878TIP3   OH272124   2.022   0.198   6.827  0.2566  0.3858 -0.7950
16878TIP3    H172125   2.048   0.242   6.908  1.0546 -1.5440  0.0785
16878TIP3    H272126   2.104   0.175   6.784 -0.0915 -0.8941 -0.8241
16879TIP3   OH272127   1.759   3.360  13.109 -0.2551  0.5098 -0.3996
16879TIP3    H172128   1.804   3.335  13.189 -1.1221 -0.1929 -0.1064
16879TIP3    H272129   1.745   3.454  13.117 -1.2721  0.2896  0.8021
16880TIP3   OH272130   5.609   3.320   4.104  0.3521  0.3811 -0.0430
16880TIP3    H172131   5.569   3.311   4.191 -0.5253  0.3599 -0.4367
16880TIP3    H272132   5.653   3.236   4.089 -2.0045 -0.7992 -0.8349
16881TIP3   OH272133   4.424   3.648  13.614  0.6538 -0.5246  0.1344
16881TIP3    H172134   4.465   3.731  13.588  0.9529 -0.2990  1.2570
16881TIP3    H272135   4.413   3.600  13.532 -0.6930  1.1322 -0.7301
16882TIP3   OH272136   2.120   2.233   4.024  0.5906 -0.1049 -0.2574
16882TIP3    H172137   2.205   2.201   4.055  0.4584 -1.8004 -1.4552
16882TIP3    H272138   2.066   2.154   4.017 -0.9088  0.8648 -0.0953
16883TIP3   OH272139   6.245   6.507  13.228  0.0653 -0.2786  0.4106
16883TIP3    H172140   6.340   6.513  13.244 -0.0489  0.6791  0.8024
16883TIP3    H272141   6.211   6.465  13.307 -0.1347  1.7843  1.4923
16884TIP3   OH272142   1.020   4.090  11.375  0.1856  0.3197 -0.4095
16884TIP3    H172143   1.101   4.064  11.331  0.1062  0.9955 -0.9739
16884TIP3    H272144   1.028   4.184  11.386 -1.0874  0.6175 -1.6897
16885TIP3   OH272145   2.078   0.542   0.862  0.5275 -0.7743  1.2352
16885TIP3    H172146   2.101   0.486   0.789 -0.0927  1.0756 -0.4827
16885TIP3    H272147   2.157   0.593   0.880  0.3562 -0.4455  1.0802
16886TIP3   OH272148   6.408   4.960   3.404  0.3982 -0.2573 -0.5956
16886TIP3    H172149   6.336   4.925   3.352  0.0992  1.5250 -1.4691
16886TIP3    H272150   6.376   5.046   3.434  2.1978  0.6533 -1.1386
16887TIP3   OH272151   3.741   1.255   1.884  0.0126 -0.1934 -0.0773
16887TIP3    H172152   3.655   1.213   1.879  1.6136 -4.1082  1.7714
16887TIP3    H272153   3.781   1.237   1.799 -0.0625 -0.5742 -0.0331
16888TIP3   OH272154   1.235   3.217   2.808  0.0829 -0.4967  0.4498
16888TIP3    H172155   1.177   3.141   2.798 -3.9483  2.3369 -0.5661
16888TIP3    H272156   1.250   3.223   2.902 -1.9162 -1.0256  0.8569
16889TIP3   OH272157   5.617   0.919  13.195 -0.2480 -0.3195  0.1350
16889TIP3    H172158   5.672   0.859  13.245  1.0130 -0.1990 -1.0437
16889TIP3    H272159   5.617   0.884  13.106 -0.9073  0.4870 -0.2005
16890TIP3   OH272160   4.003   4.413  17.464 -0.3792  0.2802  0.1212
16890TIP3    H172161   4.025   4.450  17.378  0.2520  0.0169  0.1588
16890TIP3    H272162   4.017   4.318  17.452  2.3753  0.4543  1.2453
16891TIP3   OH272163   3.927   5.524  17.046  0.1121  0.6269 -0.6337
16891TIP3    H172164   3.890   5.572  17.120 -0.2264  0.3043 -0.5879
16891TIP3    H272165   4.017   5.556  17.039 -0.3072  1.7863 -1.0515
16892TIP3   OH272166   4.899   3.103  11.917  0.4138 -0.0441  0.2601
16892TIP3    H172167   4.968   3.166  11.938  0.0626  0.3326  0.2910
16892TIP3    H272168   4.846   3.147  11.850  0.0078 -0.1927  0.4817
16893TIP3   OH272169   4.192   4.796  15.768  0.1715  0.0805  0.4120
16893TIP3    H172170   4.282   4.788  15.798  0.4310 -0.9601 -0.5981
16893TIP3    H272171   4.139   4.770  15.843  0.5696  3.0278  1.8563
16894TIP3   OH272172   1.639   6.557   4.134 -0.3105 -0.3808  0.0110
16894TIP3    H172173   1.678   6.523   4.215 -0.0972  1.8736  0.9386
16894TIP3    H272174   1.550   6.583   4.158  0.2409  1.7323  0.0061
16895TIP3   OH272175   1.051   2.357  15.210 -0.3469 -0.8656  0.6895
16895TIP3    H172176   1.012   2.437  15.245 -1.9782 -1.8254  1.2028
16895TIP3    H272177   0.996   2.336  15.134  1.2421 -0.4948 -0.6059
16896TIP3   OH272178   5.961   2.126  16.935  0.1594  0.2592 -0.4047
16896TIP3    H172179   5.956   2.126  17.030 -2.4272  0.2385 -0.4769
16896TIP3    H272180   5.931   2.039  16.910  0.3601  0.4278 -1.2575
16897TIP3   OH272181   2.306   1.917  17.281  0.1604  0.3835 -0.0873
16897TIP3    H172182   2.397   1.927  17.308  0.1419  0.1214  0.0823
16897TIP3    H272183   2.257   1.917  17.363  0.2185 -1.6611  0.0070
16898TIP3   OH272184   4.886   1.747  13.417 -0.1180  0.1258  0.1479
16898TIP3    H172185   4.854   1.658  13.401  1.7747 -0.3996 -0.9958
16898TIP3    H272186   4.901   1.750  13.512  0.7785 -1.1404  0.0682
16899TIP3   OH272187   5.942   1.311   1.305  0.0122  0.8167  0.1932
16899TIP3    H172188   5.883   1.327   1.231 -0.2662  0.8227  0.4165
16899TIP3    H272189   5.884   1.291   1.378  0.3195 -0.2233  0.1717
16900TIP3   OH272190   5.555   2.210  14.309 -0.2845 -0.4914  0.8780
16900TIP3    H172191   5.532   2.301  14.291 -0.2211 -0.0232  2.9563
16900TIP3    H272192   5.647   2.202  14.281 -0.2812  0.0805  0.7149
16901TIP3   OH272193   2.030   6.139  11.580 -0.2699 -0.1510 -0.1286
16901TIP3    H172194   1.971   6.081  11.532 -0.6958  0.0293  0.1673
16901TIP3    H272195   2.112   6.090  11.586  0.3314  0.4828 -2.4473
16902TIP3   OH272196   5.938   5.320   4.934 -0.4343  0.6619 -0.3042
16902TIP3    H172197   5.944   5.227   4.915 -0.3304  0.8432 -1.2167
16902TIP3    H272198   6.003   5.335   5.002 -1.9343 -0.3127  1.4503
16903TIP3   OH272199   4.528   2.404   6.174 -0.7080 -0.7237  0.1618
16903TIP3    H172200   4.591   2.397   6.246 -0.3349 -0.8277 -0.1667
16903TIP3    H272201   4.581   2.390   6.095 -0.9422  0.2997 -0.1898
16904TIP3   OH272202   3.110   2.372  11.611 -0.6465 -0.0814 -0.3010
16904TIP3    H172203   3.178   2.337  11.554 -0.6148 -0.4113 -0.0612
16904TIP3    H272204   3.126   2.467  11.612 -0.4813 -0.1029 -0.6198
16905TIP3   OH272205   0.727   3.548   4.554 -0.0880 -0.1687  0.2829
16905TIP3    H172206   0.722   3.496   4.634  1.6925  0.1567  0.6405
16905TIP3    H272207   0.761   3.488   4.488 -2.9810 -0.8831 -0.7164
16906TIP3   OH272208   0.024   5.093   3.770  0.0638  0.2416 -0.7522
16906TIP3    H172209  -0.050   5.116   3.713 -0.9616  0.0101  0.4410
16906TIP3    H272210   0.005   5.003   3.798  1.1628 -0.0696 -0.9721
16907TIP3   OH272211   4.423   0.929   0.741  0.6547 -0.1158 -0.3209
16907TIP3    H172212   4.491   0.971   0.689  0.8147  0.4723  0.3452
16907TIP3    H272213   4.384   1.000   0.792 -0.2633 -0.4957 -0.4717
16908TIP3   OH272214   1.885   4.616   4.309  0.2054  0.6234 -0.2775
16908TIP3    H172215   1.891   4.610   4.404  1.4555 -0.4826 -0.3954
16908TIP3    H272216   1.904   4.528   4.278  1.1430  1.2521 -1.5988
16909TIP3   OH272217   4.576   5.623  13.011 -0.5397 -0.2822  0.1745
16909TIP3    H172218   4.495   5.625  13.062 -1.5663 -0.7922 -1.3703
16909TIP3    H272219   4.588   5.531  12.989 -0.5821  0.0175 -1.1905
16910TIP3   OH272220   1.429   4.091  13.807 -0.6537  0.2330  0.3358
16910TIP3    H172221   1.378   4.124  13.880 -0.2307  0.2983  0.6039
16910TIP3    H272222   1.519   4.092  13.838 -0.4734  0.2401 -0.1781
16911TIP3   OH272223   4.437   2.156   4.355  0.1927  0.1864 -0.1694
16911TIP3    H172224   4.394   2.121   4.433  1.8509  1.6234  1.4811
16911TIP3    H272225   4.530   2.145   4.373  0.6404  1.7263 -1.3838
16912TIP3   OH272226   6.614   1.472   2.084  0.0379  0.2602  0.0693
16912TIP3    H172227   6.575   1.461   1.997  0.6402 -1.3355 -0.0245
16912TIP3    H272228   6.549   1.436   2.144 -0.0184  0.5844  0.2026
16913TIP3   OH272229   5.161   5.533   5.833 -0.2102 -0.1953  0.2891
16913TIP3    H172230   5.110   5.603   5.791 -0.2541 -1.2259 -1.4660
16913TIP3    H272231   5.249   5.542   5.795  0.3673  0.2014  1.6556
16914TIP3   OH272232   2.519   3.423   3.847 -0.3638  0.2791  0.2248
16914TIP3    H172233   2.559   3.431   3.933 -0.7167  1.9770  0.2776
16914TIP3    H272234   2.504   3.329   3.835  0.5569 -0.0672  1.5931
16915TIP3   OH272235   1.097   5.273   4.085  0.1554 -0.3868 -0.5765
16915TIP3    H172236   1.140   5.338   4.141  0.6414 -0.1592 -1.2081
16915TIP3    H272237   1.134   5.189   4.115  0.2004 -0.2909 -0.3631
16916TIP3   OH272238   1.027   6.069   5.385  0.1011 -0.4999  0.2960
16916TIP3    H172239   1.102   6.047   5.440  0.8259  1.7471  0.2916
16916TIP3    H272240   1.044   6.025   5.302  0.6038 -1.2900  0.8101
16917TIP3   OH272241   0.185   1.465  15.399 -0.3274 -0.2671  0.1191
16917TIP3    H172242   0.211   1.485  15.489  2.0063 -0.4861 -0.4439
16917TIP3    H272243   0.151   1.547  15.364  1.7190  0.6909  0.2708
16918TIP3   OH272244   5.855   2.393  11.929 -0.2541  0.0394 -0.2605
16918TIP3    H172245   5.800   2.469  11.911  0.3156  0.3177 -0.8938
16918TIP3    H272246   5.865   2.392  12.024 -1.6753 -0.2637 -0.0893
16919TIP3   OH272247   0.595   3.541   3.114 -0.3843  0.4041  0.3782
16919TIP3    H172248   0.682   3.512   3.139 -0.1795  0.6796 -0.0097
16919TIP3    H272249   0.578   3.499   3.030 -1.5988 -1.5823  1.5168
16920TIP3   OH272250   2.520   0.751  17.491 -0.5414  0.0593 -0.0734
16920TIP3    H172251   2.508   0.815  17.561 -0.1259 -0.4422  0.4636
16920TIP3    H272252   2.433   0.712  17.479 -0.6698  0.3281 -0.0105
16921TIP3   OH272253   1.117   6.269  15.554 -0.3660 -0.2023 -0.1175
16921TIP3    H172254   1.104   6.353  15.599 -0.9751  0.6974 -1.8657
16921TIP3    H272255   1.209   6.246  15.571  0.2365  1.5587 -0.7558
16922TIP3   OH272256   2.245   2.667  17.525  0.1641 -0.0743  0.0036
16922TIP3    H172257   2.189   2.728  17.573 -0.7358 -0.2822 -0.7772
16922TIP3    H272258   2.271   2.602  17.591 -1.1463 -0.4195  0.2027
16923TIP3   OH272259   2.823   2.203  12.658  0.1989  0.0354  0.1558
16923TIP3    H172260   2.813   2.196  12.753 -1.0739  2.3851  0.2622
16923TIP3    H272261   2.837   2.296  12.642  4.3036 -0.7023 -1.7131
16924TIP3   OH272262   3.062   0.823   0.091  0.2568 -0.1469  0.1918
16924TIP3    H172263   3.096   0.741   0.054  1.0624  0.9318 -1.6034
16924TIP3    H272264   2.984   0.842   0.039  1.1559  1.1712 -0.7562
16925TIP3   OH272265   4.603   3.586   1.925  0.3903  0.2578  0.6292
16925TIP3    H172266   4.652   3.504   1.922  2.9258  1.6861 -1.9491
16925TIP3    H272267   4.519   3.566   1.885 -0.6542 -1.8668  3.5662
16926TIP3   OH272268   3.778   6.220   5.130 -0.1796  0.0309  0.3742
16926TIP3    H172269   3.873   6.221   5.120 -0.3588 -0.6127 -2.2645
16926TIP3    H272270   3.755   6.127   5.138 -0.6905  0.0197 -0.9644
16927TIP3   OH272271   1.255   6.344  13.037  0.1554  0.0199 -0.4177
16927TIP3    H172272   1.159   6.351  13.034  0.0731 -0.7399  0.1467
16927TIP3    H272273   1.279   6.376  13.124  0.3412 -0.5096 -0.2702
16928TIP3   OH272274   2.397   1.124  14.292  0.1934  0.4515  0.2683
16928TIP3    H172275   2.452   1.055  14.255 -1.6550  0.8559 -3.7037
16928TIP3    H272276   2.458   1.192  14.319  1.8113 -0.9430  0.2824
16929TIP3   OH272277   6.466   4.056  16.127  0.0452  0.4701  0.4380
16929TIP3    H172278   6.531   3.999  16.168 -0.3676  0.7643  1.5302
16929TIP3    H272279   6.397   3.997  16.099 -0.3301  0.4029  1.4676
16930TIP3   OH272280   4.169   6.350  13.189  0.4907 -0.4481 -0.5406
16930TIP3    H172281   4.195   6.411  13.258  1.8427 -1.7730  0.1702
16930TIP3    H272282   4.076   6.337  13.202  0.3875  0.6473 -0.0573
16931TIP3   OH272283   5.801   6.684   3.001 -0.4173  0.3224  0.7079
16931TIP3    H172284   5.802   6.622   2.928 -1.1644 -1.1594  1.9179
16931TIP3    H272285   5.883   6.667   3.048 -0.5191  0.4179  0.9192
16932TIP3   OH272286   2.778   4.597   5.723  0.4069 -0.7560 -0.0445
16932TIP3    H172287   2.706   4.655   5.699  1.3113  0.2609 -0.3368
16932TIP3    H272288   2.792   4.614   5.817  0.3482 -0.8640 -0.0161
16933TIP3   OH272289   4.320   2.853  14.035 -0.5344  0.1134  0.3108
16933TIP3    H172290   4.255   2.898  13.981 -0.1563  1.1783  0.7100
16933TIP3    H272291   4.276   2.773  14.064 -1.1945  0.1692 -0.4982
16934TIP3   OH272292   1.191   1.811   0.211  0.2076  0.6767 -0.3501
16934TIP3    H172293   1.181   1.896   0.256 -0.6497  0.9572 -1.0427
16934TIP3    H272294   1.166   1.746   0.277 -2.5699  1.1626 -0.8060
16935TIP3   OH272295   4.994   4.768   0.700 -0.3015 -0.0251  0.5678
16935TIP3    H172296   4.962   4.844   0.651 -0.1468  0.8400  1.7683
16935TIP3    H272297   5.073   4.741   0.653 -0.2721  0.6529  0.2094
16936TIP3   OH272298   1.977   3.774  16.396  0.0085  0.0625 -0.8610
16936TIP3    H172299   1.941   3.686  16.387  0.4744 -0.1414 -0.7790
16936TIP3    H272300   2.050   3.777  16.334  0.2148  0.2676 -0.6129
16937TIP3   OH272301   0.059   0.308  15.065  0.1529  0.6972 -0.0124
16937TIP3    H172302   0.069   0.232  15.008  0.0610  1.7506 -1.5211
16937TIP3    H272303   0.133   0.304  15.125  1.4959  0.6782 -1.6081
16938TIP3   OH272304   3.792   2.493  11.678  0.4466 -1.0146  0.2478
16938TIP3    H172305   3.862   2.476  11.742  0.2031 -0.8158  0.5675
16938TIP3    H272306   3.836   2.540  11.607  0.6370 -0.8751  0.4567
16939TIP3   OH272307   3.717   5.642   1.355 -0.1185  0.5202 -0.5445
16939TIP3    H172308   3.732   5.680   1.268 -1.2859 -0.2382 -1.1071
16939TIP3    H272309   3.759   5.557   1.351  0.6922  0.8879 -0.0056
16940TIP3   OH272310   4.880   5.550   6.220 -0.2811  0.2820 -0.0909
16940TIP3    H172311   4.860   5.641   6.197  0.1929  0.2979 -0.4497
16940TIP3    H272312   4.825   5.532   6.296 -0.7277  0.7218 -0.3049
16941TIP3   OH272313   6.172   3.038   3.888  0.3133  0.1111  0.4345
16941TIP3    H172314   6.192   2.970   3.824  1.2909  0.4946  0.3263
16941TIP3    H272315   6.181   3.120   3.839 -2.1687  0.3133  0.1897
16942TIP3   OH272316   5.334   3.298  16.941  0.5055  0.2195  0.0082
16942TIP3    H172317   5.332   3.387  16.909  0.4244 -0.1294 -0.9733
16942TIP3    H272318   5.349   3.244  16.864  0.1840 -0.6474  0.5298
16943TIP3   OH272319   6.555   4.603   4.278  0.0810  0.6150 -0.2602
16943TIP3    H172320   6.535   4.627   4.369  0.6914 -0.0543  0.0551
16943TIP3    H272321   6.487   4.539   4.255 -1.0623  1.9678 -0.8370
16944TIP3   OH272322   1.833   0.822   3.828 -0.4013 -0.1674 -0.5769
16944TIP3    H172323   1.769   0.845   3.760 -0.4298 -0.5133 -0.6721
16944TIP3    H272324   1.820   0.888   3.896 -2.2489 -1.3359  0.3025
16945TIP3   OH272325   3.479   4.094  16.787 -0.3973 -0.0712 -0.8757
16945TIP3    H172326   3.537   4.083  16.863 -1.9407 -0.6246  0.2906
16945TIP3    H272327   3.492   4.014  16.736 -2.0596 -1.5044  0.8054
16946TIP3   OH272328   5.918   0.778   1.789 -0.2375  0.3498  0.1457
16946TIP3    H172329   5.997   0.725   1.782 -1.1122 -0.9902 -0.2334
16946TIP3    H272330   5.880   0.776   1.701 -1.5511 -0.4945  0.6909
16947TIP3   OH272331   1.734   4.555  16.234  0.4991 -0.2876  0.1388
16947TIP3    H172332   1.753   4.461  16.229  0.2390 -0.6218  3.1643
16947TIP3    H272333   1.646   4.563  16.198  0.4032 -1.2643  0.1261
16948TIP3   OH272334   3.951   3.397  14.633 -0.3594  0.0069  0.6557
16948TIP3    H172335   4.036   3.375  14.593 -0.7579  2.5151 -1.8445
16948TIP3    H272336   3.889   3.337  14.591 -0.1616 -0.2894  0.7795
16949TIP3   OH272337   3.792   4.673   5.276 -0.3627 -0.2670 -0.1082
16949TIP3    H172338   3.775   4.620   5.198 -1.0480 -0.8815  0.4392
16949TIP3    H272339   3.873   4.636   5.311  0.3297  0.4661 -0.8904
16950TIP3   OH272340   4.792   5.669  15.608  0.3171  0.4087  0.3746
16950TIP3    H172341   4.854   5.634  15.671 -1.3046 -1.3470  1.0845
16950TIP3    H272342   4.800   5.612  15.531  2.5347  2.7378 -1.2784
16951TIP3   OH272343   6.373   4.378   3.595 -0.4378 -0.0611 -0.6774
16951TIP3    H172344   6.410   4.441   3.657  0.2643  0.4185 -1.5504
16951TIP3    H272345   6.303   4.426   3.551  0.2901  0.2264 -1.5512
16952TIP3   OH272346   3.451   2.845  13.025  0.6296 -0.3297  0.4323
16952TIP3    H172347   3.541   2.862  13.054  0.4059 -0.5052  1.2486
16952TIP3    H272348   3.398   2.851  13.105 -0.4335  2.0761 -0.3608
16953TIP3   OH272349   2.170   4.015   1.780  0.4100 -0.2109  0.1656
16953TIP3    H172350   2.101   4.047   1.838 -0.0947 -1.2006  0.1206
16953TIP3    H272351   2.156   4.062   1.697 -0.5747 -0.8146 -0.0288
16954TIP3   OH272352   3.407   3.505   5.801 -0.1412 -0.3763 -0.3935
16954TIP3    H172353   3.406   3.595   5.768 -0.0481  0.0894  0.8418
16954TIP3    H272354   3.321   3.493   5.840 -0.4753 -1.1371 -1.3322
16955TIP3   OH272355   1.744   5.309  13.550  0.3631 -0.2596  0.4661
16955TIP3    H172356   1.779   5.253  13.620  1.2010 -0.4881 -0.1074
16955TIP3    H272357   1.774   5.397  13.572  0.8656 -0.3744  0.2588
16956TIP3   OH272358   2.493   5.631  15.533  0.2691  0.5441 -0.2148
16956TIP3    H172359   2.543   5.626  15.614  0.3503 -0.8831 -0.3277
16956TIP3    H272360   2.414   5.680  15.556  0.9075  1.3146  0.3860
16957TIP3   OH272361   2.361   3.019  11.309 -0.2271 -0.1387  0.0651
16957TIP3    H172362   2.373   3.113  11.297  0.7896 -0.3319 -0.5842
16957TIP3    H272363   2.339   2.987  11.221  1.0662 -0.7214 -0.0691
16958TIP3   OH272364   5.513   1.275  14.569  0.0612 -0.0901 -0.3820
16958TIP3    H172365   5.460   1.294  14.491  0.5813  0.5329 -0.5929
16958TIP3    H272366   5.583   1.340  14.567  0.3998 -0.4198  0.3100
16959TIP3   OH272367   0.963   1.163   0.421 -0.4944 -0.0779  0.1867
16959TIP3    H172368   0.887   1.171   0.364 -0.7464 -0.1931  0.5044
16959TIP3    H272369   0.940   1.094   0.483  0.4597 -1.1964 -0.6452
16960TIP3   OH272370   1.759   5.571  12.574  0.1516  0.8058  0.2332
16960TIP3    H172371   1.667   5.581  12.551 -0.1595 -0.3096  0.9142
16960TIP3    H272372   1.758   5.546  12.666  1.0694 -0.2603 -0.0244
16961TIP3   OH272373   3.960   0.359   0.316 -0.3082  0.1867  0.1419
16961TIP3    H172374   3.971   0.322   0.228  0.4861 -2.5903  1.2916
16961TIP3    H272375   4.010   0.440   0.314  2.8988 -1.6018 -1.0212
16962TIP3   OH272376   4.093   5.328   6.332  0.1265  0.3856  0.0228
16962TIP3    H172377   4.043   5.276   6.396 -1.3999  0.9002 -0.6881
16962TIP3    H272378   4.138   5.394   6.385 -0.0130 -0.0464  0.6924
16963TIP3   OH272379   4.324   5.541   2.393 -0.0301 -0.2086  0.2088
16963TIP3    H172380   4.406   5.555   2.441  0.2229 -0.2649 -0.1991
16963TIP3    H272381   4.306   5.625   2.352 -1.1522  0.3426  1.7622
16964TIP3   OH272382   0.302   6.729   1.825  0.1955 -0.4670 -0.2773
16964TIP3    H172383   0.318   6.746   1.918  0.2872  0.1780 -0.4002
16964TIP3    H272384   0.389   6.710   1.789  0.5570  1.5980 -0.6635
16965TIP3   OH272385   0.368   1.912   1.982  0.1008 -0.4445 -0.2164
16965TIP3    H172386   0.378   1.830   1.933 -3.9168 -3.0572  2.6856
16965TIP3    H272387   0.403   1.892   2.069 -4.9281 -1.0007  1.9770
16966TIP3   OH272388   5.223   2.147  16.719 -0.0943  0.7260 -0.8035
16966TIP3    H172389   5.291   2.150  16.651  0.0691  1.9123 -0.5986
16966TIP3    H272390   5.196   2.055  16.721  0.0475  0.6225 -2.3280
16967TIP3   OH272391   2.334   5.420  15.865 -0.2711 -0.0120  0.1072
16967TIP3    H172392   2.342   5.358  15.936  2.9156 -0.1542 -0.2250
16967TIP3    H272393   2.325   5.366  15.786 -0.7486  0.0505  0.1181
16968TIP3   OH272394   6.152   3.133   6.026  0.2339  0.4407  0.3074
16968TIP3    H172395   6.196   3.161   6.106 -0.3485  1.5994  0.2324
16968TIP3    H272396   6.190   3.047   6.008  0.6382  0.3116  1.6227
16969TIP3   OH272397   6.666   5.876  17.124 -0.3748 -0.0811  0.0420
16969TIP3    H172398   6.719   5.802  17.154 -1.0062  0.0667  1.6007
16969TIP3    H272399   6.700   5.951  17.173 -1.0674  0.2873 -0.0368
16970TIP3   OH272400   4.144   1.546   0.299  0.0903  0.0587  0.2840
16970TIP3    H172401   4.125   1.454   0.281  0.7819 -0.1906  0.7863
16970TIP3    H272402   4.095   1.594   0.232 -0.4191 -0.6614  0.1288
16971TIP3   OH272403   4.793   1.435   0.987 -0.0339 -0.6207 -0.2259
16971TIP3    H172404   4.877   1.389   0.999  0.1171 -0.0608  1.0808
16971TIP3    H272405   4.817   1.518   0.947  0.4797  0.8155  2.7815
16972TIP3   OH272406   0.966   6.149  17.135 -0.2204 -0.9705  0.2390
16972TIP3    H172407   0.895   6.154  17.200  0.1858  0.5500  0.6050
16972TIP3    H272408   1.042   6.185  17.180  0.1209 -0.0788 -0.9991
16973TIP3   OH272409   2.889   6.575  14.450  0.1912 -0.3098 -0.7551
16973TIP3    H172410   2.891   6.501  14.511 -1.3928 -1.1811 -1.6917
16973TIP3    H272411   2.981   6.592  14.431  0.6777 -0.7067  1.0186
16974TIP3   OH272412   5.673   3.279  11.134 -0.0624 -0.1632 -0.4141
16974TIP3    H172413   5.590   3.258  11.090  0.7467 -2.0719 -1.1483
16974TIP3    H272414   5.728   3.316  11.065  0.0033  0.2639 -0.1358
16975TIP3   OH272415   4.518   5.547   3.451  0.6225  0.0799  0.5701
16975TIP3    H172416   4.489   5.638   3.453  0.8111  0.1389  0.6391
16975TIP3    H272417   4.523   5.525   3.358 -1.3205 -0.4717  0.5640
16976TIP3   OH272418   3.307   3.366   4.682 -0.2371  0.2324 -0.1388
16976TIP3    H172419   3.381   3.382   4.622 -0.3445 -0.7709 -0.5564
16976TIP3    H272420   3.249   3.440   4.667  0.0730  0.3605 -0.7758
16977TIP3   OH272421   0.173   5.674  16.049 -0.0602 -0.5421  0.4961
16977TIP3    H172422   0.163   5.764  16.079 -2.5413 -0.7040  0.4152
16977TIP3    H272423   0.248   5.640  16.097  0.4782  1.3488  1.0623
16978TIP3   OH272424   3.601   5.488  16.229  0.4639 -0.3713 -0.0878
16978TIP3    H172425   3.594   5.414  16.170 -0.3172 -0.6286  0.3100
16978TIP3    H272426   3.518   5.536  16.219 -0.4019 -1.3130  1.9400
16979TIP3   OH272427   0.268   2.922  14.219 -0.0376  0.9698 -0.5333
16979TIP3    H172428   0.259   3.007  14.178  0.3891  1.8028  1.0313
16979TIP3    H272429   0.351   2.887  14.184 -0.7004  0.7159 -1.9343
16980TIP3   OH272430   0.685   4.555  14.436  0.0985 -0.4664 -0.2579
16980TIP3    H172431   0.747   4.545  14.508  0.1950 -0.3251 -0.3211
16980TIP3    H272432   0.711   4.637  14.393 -0.0263 -0.4940 -0.3870
16981TIP3   OH272433   6.149   0.495   1.449 -0.3049 -0.1530  0.0202
16981TIP3    H172434   6.077   0.443   1.412 -3.5851  1.9888  2.7571
16981TIP3    H272435   6.148   0.474   1.543  0.1578  2.5724  0.7206
16982TIP3   OH272436   4.252   6.146  12.811 -0.3397  1.2909  0.0581
16982TIP3    H172437   4.160   6.168  12.828 -0.2123  3.3421 -1.4977
16982TIP3    H272438   4.301   6.207  12.867  0.0344  1.9130 -0.9205
16983TIP3   OH272439   0.931   4.473   3.536 -0.0720  0.2190  0.0862
16983TIP3    H172440   0.901   4.391   3.576  1.1918 -0.2876  0.0386
16983TIP3    H272441   1.008   4.448   3.485  1.9124  1.8354  2.1100
16984TIP3   OH272442   1.522   5.591  15.858  0.0237 -0.0198  0.3633
16984TIP3    H172443   1.467   5.662  15.890 -0.1573 -0.9474  2.2537
16984TIP3    H272444   1.462   5.516  15.850  0.6755 -0.6076  0.8513
16985TIP3   OH272445   5.888   5.897   1.526  0.4834  0.3738  0.0755
16985TIP3    H172446   5.913   5.842   1.601 -1.1961 -0.0478  0.3688
16985TIP3    H272447   5.959   5.884   1.463 -0.2764 -2.9932 -0.2804
16986TIP3   OH272448   5.988   3.132  16.496  0.0287  0.1503  0.0861
16986TIP3    H172449   6.014   3.042  16.518  0.2511 -0.0430 -0.8993
16986TIP3    H272450   6.065   3.169  16.454  0.9896  1.8123  3.0651
16987TIP3   OH272451   1.245   5.239   5.351  0.7935  0.8663  0.7165
16987TIP3    H172452   1.229   5.329   5.325 -1.4256  0.1828 -0.5171
16987TIP3    H272453   1.160   5.196   5.343  1.4634 -1.0111  2.6921
16988TIP3   OH272454   6.074   3.701   0.133  0.6476  0.4102  0.0151
16988TIP3    H172455   5.978   3.703   0.131  0.6462  0.5024  0.1363
16988TIP3    H272456   6.097   3.762   0.203  0.7361 -1.3143  1.5351
16989TIP3   OH272457   3.832   2.246  14.676  0.1990 -0.2393 -0.0033
16989TIP3    H172458   3.776   2.181  14.632 -1.1023  0.2999  0.8087
16989TIP3    H272459   3.920   2.229  14.641 -0.5804 -0.5875 -1.9196
16990TIP3   OH272460   1.302   1.938  14.742 -0.0070  0.5723  0.0103
16990TIP3    H172461   1.221   1.886  14.738  0.5393 -0.2632 -0.3750
16990TIP3    H272462   1.305   1.983  14.657  0.2554  0.1064 -0.2287
16991TIP3   OH272463   3.845   3.172   5.147  0.2111 -0.1233  0.2989
16991TIP3    H172464   3.864   3.228   5.223 -1.5758  0.5371  0.3118
16991TIP3    H272465   3.773   3.116   5.175  0.1750 -0.5519 -0.5985
16992TIP3   OH272466   3.079   1.824  13.177 -0.0167  0.0487 -0.2761
16992TIP3    H172467   3.038   1.900  13.136 -1.2061 -0.8959 -0.9009
16992TIP3    H272468   3.036   1.749  13.137 -0.7319 -0.9473  2.1731
16993TIP3   OH272469   1.265   0.412  14.500  0.0063 -0.3067  0.3434
16993TIP3    H172470   1.336   0.369  14.550  1.1490 -0.6845 -1.5153
16993TIP3    H272471   1.286   0.505  14.504 -0.2717 -0.2662  1.0741
16994TIP3   OH272472   6.001   0.118   1.502 -0.0490  0.1892 -0.2677
16994TIP3    H172473   6.051   0.165   1.436  0.4050 -0.2298 -0.2272
16994TIP3    H272474   5.949   0.186   1.545  0.5998  0.6671 -0.2086
16995TIP3   OH272475   3.472   1.119   5.627 -0.4034  0.7906 -0.1825
16995TIP3    H172476   3.473   1.143   5.719 -0.3687 -1.3193  0.4123
16995TIP3    H272477   3.555   1.073   5.613 -1.6564 -1.5149 -0.4663
16996TIP3   OH272478   3.590   1.878   4.442  0.2529  0.1994 -0.0483
16996TIP3    H172479   3.645   1.807   4.407 -2.1323 -0.9471 -1.8119
16996TIP3    H272480   3.578   1.856   4.534 -0.2025 -1.5907 -0.4949
16997TIP3   OH272481   5.163   6.233   2.952  0.4507  0.3693  0.5426
16997TIP3    H172482   5.248   6.192   2.964  0.6889  1.2570  2.1502
16997TIP3    H272483   5.171   6.317   2.996 -1.3192  0.3864  0.8870
16998TIP3   OH272484   1.515   5.401  13.398  0.3779  0.2868 -0.3961
16998TIP3    H172485   1.545   5.485  13.432  0.3622  0.0655  0.1685
16998TIP3    H272486   1.568   5.336  13.443  0.3209 -0.0152 -0.7575
16999TIP3   OH272487   6.605   5.373  13.000  0.0101  0.2162 -0.1445
16999TIP3    H172488   6.656   5.344  12.924  0.9816 -0.4707  0.7338
16999TIP3    H272489   6.585   5.464  12.981  2.4656  0.8505 -0.1253
17000TIP3   OH272490   5.097   1.154   4.126  0.1052 -0.8382  0.2091
17000TIP3    H172491   5.150   1.121   4.053 -0.1520 -0.9469  0.0702
17000TIP3    H272492   5.157   1.209   4.176 -0.1803  0.7042 -1.0729
17001TIP3   OH272493   1.293   0.469  13.072  0.2825  0.0743 -0.4306
17001TIP3    H172494   1.309   0.557  13.106 -0.6274 -0.0388  0.3231
17001TIP3    H272495   1.380   0.429  13.067  0.6956  0.9630 -0.6720
17002TIP3   OH272496   3.987   3.473   0.227  0.4472  0.7067 -0.1870
17002TIP3    H172497   3.911   3.428   0.191 -0.4373  0.8802  1.3938
17002TIP3    H272498   3.988   3.558   0.182  1.8151 -0.5621 -2.7832
17003TIP3   OH272499   5.424   3.087   3.996 -0.4798  0.2865 -0.3531
17003TIP3    H172500   5.479   3.082   3.918 -0.8601 -0.0989 -0.5979
17003TIP3    H272501   5.445   3.008   4.046 -0.8596  0.1000 -0.4830
17004TIP3   OH272502   2.211   2.844   5.116  0.0882 -0.2552 -0.1574
17004TIP3    H172503   2.266   2.782   5.162 -0.4961 -0.7183 -0.0667
17004TIP3    H272504   2.216   2.924   5.167 -0.5403 -0.7557  0.7186
17005TIP3   OH272505   2.808   3.701   3.813  0.2388 -0.5190 -0.5487
17005TIP3    H172506   2.765   3.763   3.755  0.8756 -0.1594 -0.6434
17005TIP3    H272507   2.833   3.628   3.757 -1.4867 -1.3902 -0.2462
17006TIP3   OH272508   2.941   4.824  16.680  0.1295 -0.3954  0.4021
17006TIP3    H172509   2.932   4.824  16.584 -1.1504  1.0379  0.4841
17006TIP3    H272510   2.962   4.733  16.701  1.8431 -0.4695 -1.3333
17007TIP3   OH272511   3.587   4.271  16.011  0.3947 -0.1041 -0.1696
17007TIP3    H172512   3.548   4.267  16.098 -0.2971 -0.2213 -0.4787
17007TIP3    H272513   3.653   4.340  16.017  0.6949 -0.4500  0.5805
17008TIP3   OH272514   5.036   4.590  12.410 -0.4091  0.2366  0.2693
17008TIP3    H172515   5.021   4.558  12.499 -1.4130  0.3954  0.1708
17008TIP3    H272516   4.957   4.563  12.362  0.3385 -0.2832 -0.6959
17009TIP3   OH272517   0.766   6.197  14.361 -0.4280  0.1578 -0.3328
17009TIP3    H172518   0.693   6.250  14.329  0.3624  1.4724 -0.0478
17009TIP3    H272519   0.806   6.160  14.283  0.6908  2.2722 -0.8358
17010TIP3   OH272520   2.423   1.558  17.112  0.0513 -0.5226  0.3593
17010TIP3    H172521   2.367   1.606  17.172 -0.5289 -1.1027  0.2874
17010TIP3    H272522   2.416   1.467  17.140  0.6053 -0.6612  0.0686
17011TIP3   OH272523   0.729   2.933  14.668 -0.3091 -0.1452  0.2344
17011TIP3    H172524   0.796   2.949  14.734  1.2957  0.0238 -1.3479
17011TIP3    H272525   0.777   2.896  14.594 -2.1279 -0.8990 -0.6428
17012TIP3   OH272526   4.768   4.158  12.178 -0.2880 -0.7523 -0.5025
17012TIP3    H172527   4.851   4.174  12.223 -0.3465 -0.1342 -0.6124
17012TIP3    H272528   4.763   4.062  12.171 -0.3370 -0.8722  0.9052
17013TIP3   OH272529   4.135   3.861  11.083  0.0433 -0.3806  0.6060
17013TIP3    H172530   4.161   3.946  11.120 -1.4911  1.3711 -2.0157
17013TIP3    H272531   4.215   3.809  11.084  1.8565  2.1754 -0.3998
17014TIP3   OH272532   0.726   6.384   1.160 -0.1533  0.1940 -0.6445
17014TIP3    H172533   0.749   6.397   1.252  0.2062  0.0223 -0.7118
17014TIP3    H272534   0.746   6.292   1.143  1.7951  0.7253 -1.4683
17015TIP3   OH272535   5.267   5.989   3.283  0.5049  0.0988 -0.9539
17015TIP3    H172536   5.182   5.971   3.324  0.8251 -1.0862 -0.7825
17015TIP3    H272537   5.331   5.974   3.352  0.8969  0.5033 -1.2219
17016TIP3   OH272538   6.658   6.245  15.439  0.7007  0.0323  0.0395
17016TIP3    H172539   6.734   6.195  15.468  0.9231 -1.0309 -2.1417
17016TIP3    H272540   6.676   6.262  15.346 -1.8724 -0.5493 -0.6229
17017TIP3   OH272541   0.252   3.885  12.191 -0.8908  0.2473  0.5299
17017TIP3    H172542   0.163   3.885  12.226 -0.3807  0.7047  1.9045
17017TIP3    H272543   0.307   3.904  12.267  0.2057  2.4647 -0.7151
17018TIP3   OH272544   5.219   2.622   2.732 -0.0784  0.5416 -0.1573
17018TIP3    H172545   5.267   2.544   2.758  0.4304  0.8646 -0.1036
17018TIP3    H272546   5.138   2.619   2.784  0.6254  0.8349  1.0083
17019TIP3   OH272547   4.540   1.319  13.036  0.6564  1.0770  0.0173
17019TIP3    H172548   4.569   1.342  12.948 -0.3729 -0.6946 -0.8493
17019TIP3    H272549   4.456   1.365  13.046 -0.6408 -0.9221 -1.1053
17020TIP3   OH272550   0.276   1.388   2.965 -0.2670 -0.1334  0.0280
17020TIP3    H172551   0.222   1.459   2.931 -1.0976 -0.2468  1.0617
17020TIP3    H272552   0.226   1.309   2.946  0.1064 -0.3456 -0.0780
17021TIP3   OH272553   1.760   4.111   2.157 -0.4154 -0.1188  0.1542
17021TIP3    H172554   1.691   4.046   2.145 -0.5720 -0.0632  0.7422
17021TIP3    H272555   1.764   4.124   2.251 -0.7524  1.1247  0.0096
17022TIP3   OH272556   4.332   5.703   4.701  0.5601  0.1386 -0.4023
17022TIP3    H172557   4.384   5.624   4.716 -1.7648 -1.7992 -1.7775
17022TIP3    H272558   4.284   5.716   4.783 -0.3718 -1.0063 -0.7361
17023TIP3   OH272559   5.383   2.766  17.170  0.0072 -0.5279  0.4644
17023TIP3    H172560   5.358   2.717  17.248  1.4133  0.8910  1.8828
17023TIP3    H272561   5.416   2.700  17.109  0.1580 -1.5234  1.6013
17024TIP3   OH272562   2.100   6.042  16.356  0.4336 -0.6359 -0.6297
17024TIP3    H172563   2.117   5.998  16.273 -1.2007 -1.7255 -0.4367
17024TIP3    H272564   2.089   5.970  16.419 -0.0274  0.1265  0.1798
17025TIP3   OH272565   0.863   1.830   2.675  0.3229  0.0179 -0.1983
17025TIP3    H172566   0.772   1.799   2.675 -0.3963  1.9556 -1.2388
17025TIP3    H272567   0.915   1.751   2.680 -1.4105 -1.1035  2.0389
17026TIP3   OH272568   4.281   4.374  16.623  0.2244  0.0058 -0.2941
17026TIP3    H172569   4.361   4.402  16.668 -0.6228  0.8481  0.7620
17026TIP3    H272570   4.300   4.286  16.592  1.2756 -0.1333  0.6838
17027TIP3   OH272571   5.618   2.013  11.146  0.2355 -0.1485 -0.5081
17027TIP3    H172572   5.592   1.949  11.080 -1.9479  1.3307 -1.1600
17027TIP3    H272573   5.711   2.029  11.129  0.4062 -1.8776 -1.3743
17028TIP3   OH272574   2.405   4.079  13.013  0.0955  0.0042  0.0949
17028TIP3    H172575   2.393   4.098  12.920  0.8359  0.8985  0.1720
17028TIP3    H272576   2.352   4.000  13.028  0.2144 -0.3384 -1.1491
17029TIP3   OH272577   1.506   3.778  14.082  1.0704  0.4291 -0.2282
17029TIP3    H172578   1.462   3.860  14.102  0.4226  0.6536 -2.3691
17029TIP3    H272579   1.588   3.782  14.132 -0.9026  0.3087  3.2849
17030TIP3   OH272580   5.670   2.715  14.763 -0.0260 -0.1323  0.2635
17030TIP3    H172581   5.739   2.775  14.732 -1.1603  0.4611 -1.2486
17030TIP3    H272582   5.669   2.646  14.697 -0.8243 -0.1754  0.3201
17031TIP3   OH272583   6.755   4.461  16.882  0.0178 -0.2924  0.1361
17031TIP3    H172584   6.840   4.419  16.894  0.2153  0.1833  0.4442
17031TIP3    H272585   6.765   4.512  16.801 -0.1739 -0.7204 -0.1603
17032TIP3   OH272586   0.618   5.844  14.296  0.1591 -0.3859  0.0501
17032TIP3    H172587   0.535   5.805  14.326  0.1216 -0.1014  0.3233
17032TIP3    H272588   0.627   5.923  14.349  1.5140 -1.3466  1.3093
17033TIP3   OH272589   6.225   3.155  12.790  0.1166 -0.0939  0.3426
17033TIP3    H172590   6.262   3.113  12.867  0.6978  1.6611  1.0667
17033TIP3    H272591   6.200   3.242  12.820 -2.6465 -0.4406 -0.6601
17034TIP3   OH272592   4.245   3.530   4.090 -0.2628  0.1030  0.1381
17034TIP3    H172593   4.247   3.443   4.131 -1.4975 -0.9309 -1.8602
17034TIP3    H272594   4.332   3.566   4.106  0.0886 -1.2508  1.5138
17035TIP3   OH272595   5.548   4.597  15.712 -0.8583 -0.1696  0.4844
17035TIP3    H172596   5.641   4.582  15.728 -1.0225  0.1119  1.8377
17035TIP3    H272597   5.507   4.511  15.723 -0.7892 -0.2550  0.0872
17036TIP3   OH272598   4.834   2.917  10.741  0.2587 -0.0493 -0.6402
17036TIP3    H172599   4.872   2.984  10.684 -0.2357  0.7107 -0.1074
17036TIP3    H272600   4.800   2.851  10.681 -1.9619  1.6405 -1.3781
17037TIP3   OH272601   5.750   5.521   2.582 -0.6216  0.1892 -0.9701
17037TIP3    H172602   5.800   5.554   2.507  0.0374  0.1240 -0.5648
17037TIP3    H272603   5.810   5.528   2.656 -1.3360  0.4365 -0.4048
17038TIP3   OH272604   5.232   2.917  15.629  0.1902  0.7025 -0.1874
17038TIP3    H172605   5.285   2.996  15.624 -0.4575  1.1630  0.0696
17038TIP3    H272606   5.192   2.919  15.716 -0.2785  0.3900 -0.3872
17039TIP3   OH272607   1.023   0.474  11.922  0.2268  0.0570 -0.0328
17039TIP3    H172608   1.054   0.384  11.939  0.4489  0.3226  1.0211
17039TIP3    H272609   1.101   0.528  11.931 -0.3455  0.6461  1.8694
17040TIP3   OH272610   2.236   3.392   2.904 -0.0307  0.1300  0.1529
17040TIP3    H172611   2.198   3.327   2.844 -1.5067 -1.0346  2.1948
17040TIP3    H272612   2.197   3.371   2.989  0.5686  2.8288  1.1948
17041TIP3   OH272613   5.287   2.439   1.727  0.0659 -0.4762 -0.4407
17041TIP3    H172614   5.257   2.359   1.683 -1.6081 -0.2036  0.1051
17041TIP3    H272615   5.211   2.497   1.724 -1.6127 -1.5930  5.5455
17042TIP3   OH272616   3.710   0.133   2.524  0.0948  0.3423 -0.0425
17042TIP3    H172617   3.729   0.225   2.506 -0.9508  0.5557 -0.1234
17042TIP3    H272618   3.671   0.100   2.443  0.6540 -0.2377 -0.0899
17043TIP3   OH272619   3.737   3.274  14.067  0.0234  0.3943 -0.2011
17043TIP3    H172620   3.822   3.282  14.111 -1.0589  1.6162  1.7838
17043TIP3    H272621   3.674   3.266  14.138 -1.5150 -1.0389 -1.6499
17044TIP3   OH272622   0.654   3.156   5.160 -0.0789  0.3594 -0.0930
17044TIP3    H172623   0.724   3.105   5.120 -0.1266  0.1178  0.1292
17044TIP3    H272624   0.693   3.243   5.174  0.3970  0.0441  0.6302
17045TIP3   OH272625   1.844   2.209  11.292  0.6489 -0.2790  0.6468
17045TIP3    H172626   1.756   2.175  11.273 -0.3061  1.4455  1.6786
17045TIP3    H272627   1.863   2.266  11.218 -1.8705  4.2085  2.9910
17046TIP3   OH272628   0.704   5.856  12.279 -0.4691  0.8530  0.0296
17046TIP3    H172629   0.681   5.882  12.190 -0.4052  1.3380  0.1514
17046TIP3    H272630   0.799   5.866  12.284 -0.6112  2.2378  0.5771
17047TIP3   OH272631   1.529   0.202   4.741 -0.4653  0.4537  0.4231
17047TIP3    H172632   1.611   0.194   4.692 -0.9076  1.5802 -0.5559
17047TIP3    H272633   1.546   0.157   4.824  0.6977 -0.4657 -0.2862
17048TIP3   OH272634   3.049   4.721   5.502 -0.2289 -0.0586  0.6564
17048TIP3    H172635   3.142   4.741   5.509 -0.5253  1.1539  1.5030
17048TIP3    H272636   3.022   4.697   5.590 -0.8409  0.2511  0.5663
17049TIP3   OH272637   6.296   6.056  11.759 -1.0148  0.9489 -0.0665
17049TIP3    H172638   6.257   6.087  11.841 -1.1262 -1.9470  1.0988
17049TIP3    H272639   6.246   5.977  11.737  2.2050 -1.2786 -0.1096
17050TIP3   OH272640   0.097   1.695  16.602  0.4955  0.1006 -0.0660
17050TIP3    H172641   0.117   1.699  16.695 -2.5087 -0.0805  0.7031
17050TIP3    H272642   0.063   1.783  16.581 -0.0547 -0.2403 -0.6461
17051TIP3   OH272643   1.873   4.756   2.390  0.0747  0.0358 -0.2421
17051TIP3    H172644   1.864   4.845   2.423 -1.8705 -0.6532  1.3223
17051TIP3    H272645   1.940   4.716   2.445  2.5864  1.0609 -2.3674
17052TIP3   OH272646   5.607   4.669   6.322 -0.1922 -0.0617 -0.6950
17052TIP3    H172647   5.594   4.752   6.367  0.1816  0.4818 -1.5529
17052TIP3    H272648   5.525   4.653   6.275 -0.1605 -0.0254 -0.7634
17053TIP3   OH272649   2.784   6.156  15.934  0.2440 -0.1155 -0.0687
17053TIP3    H172650   2.871   6.154  15.974 -0.3027 -1.3522  1.1391
17053TIP3    H272651   2.749   6.242  15.957  0.6457 -0.1212  0.5927
17054TIP3   OH272652   1.355   5.772   1.183  0.3498  0.2449 -0.0868
17054TIP3    H172653   1.327   5.762   1.092 -1.0110  1.0914  0.2076
17054TIP3    H272654   1.301   5.709   1.232 -0.3772  1.1793  0.3593
17055TIP3   OH272655   4.304   2.750  12.742 -0.2339  0.1312 -0.3641
17055TIP3    H172656   4.348   2.770  12.659  0.1341  0.8113 -0.0078
17055TIP3    H272657   4.350   2.673  12.775 -0.4823 -0.2405 -0.8571
17056TIP3   OH272658   5.355   0.892  15.824  0.4508  0.0358  0.5421
17056TIP3    H172659   5.332   0.878  15.916  0.3902  0.0453  0.5284
17056TIP3    H272660   5.362   0.987  15.815 -0.8777  0.1302  0.2182
17057TIP3   OH272661   5.142   5.302   5.511  0.2547  0.7668  0.4881
17057TIP3    H172662   5.201   5.289   5.437 -0.0852  0.2504  0.3002
17057TIP3    H272663   5.059   5.263   5.483  0.4868 -0.6611  1.6231
17058TIP3   OH272664   1.238   4.678  13.470 -0.3870 -0.3311  0.5056
17058TIP3    H172665   1.319   4.630  13.453  0.0307  0.0295  1.3957
17058TIP3    H272666   1.265   4.769  13.478 -0.9852 -0.1132  0.1244
17059TIP3   OH272667   6.251   1.225  14.273 -0.5660 -0.6690  0.1862
17059TIP3    H172668   6.193   1.156  14.305 -0.7357 -0.1650  0.9920
17059TIP3    H272669   6.249   1.292  14.341 -0.9698  0.4630 -0.8907
17060TIP3   OH272670   1.624   0.965   1.626 -0.2380  0.1735  0.0160
17060TIP3    H172671   1.546   1.006   1.662  0.0615 -0.3971  1.3758
17060TIP3    H272672   1.596   0.877   1.602  0.0684 -0.1602  0.8615
17061TIP3   OH272673   6.173   6.017  15.636 -0.4760 -0.4656  0.3740
17061TIP3    H172674   6.242   6.050  15.578 -0.4375 -0.4679  0.4185
17061TIP3    H272675   6.120   5.960  15.580  0.5696 -1.8562  0.7509
17062TIP3   OH272676   6.383   3.566  17.173  0.5991  0.0445 -0.1191
17062TIP3    H172677   6.460   3.541  17.225  0.9643  1.4624  0.0589
17062TIP3    H272678   6.399   3.657  17.148 -0.7657  0.1862 -0.5697
17063TIP3   OH272679   4.541   2.744   5.220 -0.7874 -0.4315 -0.3207
17063TIP3    H172680   4.540   2.833   5.254 -1.5343 -1.1220  1.6093
17063TIP3    H272681   4.632   2.728   5.197  0.3738 -0.6417  3.6679
17064TIP3   OH272682   1.376   4.351   1.873 -0.2214 -0.1465  0.3444
17064TIP3    H172683   1.417   4.407   1.938 -0.7823 -1.1619  1.6161
17064TIP3    H272684   1.401   4.262   1.899 -1.4976 -0.6464 -0.0758
17065TIP3   OH272685   5.704   2.479  15.123  0.3196 -0.1791 -0.3625
17065TIP3    H172686   5.651   2.544  15.076 -0.4886 -0.0667  0.6647
17065TIP3    H272687   5.753   2.434  15.054 -0.6925  0.1001 -1.2974
17066TIP3   OH272688   2.904   4.833  15.259 -0.3691  0.3794  0.3015
17066TIP3    H172689   2.917   4.782  15.339 -0.0715 -1.0653 -0.6275
17066TIP3    H272690   2.830   4.791  15.216 -0.1229  0.7466 -0.4878
17067TIP3   OH272691   2.185   6.147   0.415 -0.3916 -0.1073  0.2743
17067TIP3    H172692   2.107   6.098   0.390 -1.3555 -0.0152  2.8077
17067TIP3    H272693   2.154   6.236   0.431  0.5661  0.3524 -0.3431
17068TIP3   OH272694   3.339   1.515   5.642 -0.6368  0.2562 -0.3324
17068TIP3    H172695   3.373   1.479   5.561 -3.0003  0.2095 -1.3856
17068TIP3    H272696   3.358   1.448   5.708 -0.0624 -0.3981 -1.1467
17069TIP3   OH272697   4.673   4.385  16.067  0.1184  0.3971  0.2938
17069TIP3    H172698   4.741   4.418  16.127  0.8889 -0.2216 -0.2193
17069TIP3    H272699   4.640   4.306  16.109 -0.1816  0.6094  0.4638
17070TIP3   OH272700   5.722   1.870   1.537  0.0766 -0.1631  0.2610
17070TIP3    H172701   5.717   1.901   1.627  0.5493  1.0231 -0.1119
17070TIP3    H272702   5.714   1.949   1.483  0.7281 -0.7408 -0.7203
17071TIP3   OH272703   1.210   3.876  12.914  0.4831 -0.4544 -0.6173
17071TIP3    H172704   1.254   3.838  12.990  2.3444  1.4632 -0.6357
17071TIP3    H272705   1.152   3.943  12.950 -0.4612 -1.1731 -0.7678
17072TIP3   OH272706   5.728   3.980  16.080  0.1207  0.8455 -0.7478
17072TIP3    H172707   5.661   4.039  16.114  0.3039 -0.0616  1.3628
17072TIP3    H272708   5.731   3.909  16.144  1.1551 -0.5468 -2.2725
17073TIP3   OH272709   3.768   1.169  16.363  0.1050  0.4779  0.0319
17073TIP3    H172710   3.674   1.166  16.383  0.7495  0.4438  3.7053
17073TIP3    H272711   3.780   1.253  16.317 -1.6588  0.5665 -0.3354
17074TIP3   OH272712   2.713   4.945   1.174 -0.2360 -0.0155 -0.0370
17074TIP3    H172713   2.715   4.927   1.080  1.1703 -0.1560 -0.0002
17074TIP3    H272714   2.720   4.859   1.215  0.2389  0.1222  0.1807
17075TIP3   OH272715   5.084   2.963  12.518  0.3223  0.0887 -0.1376
17075TIP3    H172716   5.013   2.903  12.539  1.3135 -0.7352  0.9766
17075TIP3    H272717   5.061   3.045  12.563 -1.6744  1.0726 -2.6816
17076TIP3   OH272718   6.125   2.323  11.949  0.4514 -0.4333  0.3357
17076TIP3    H172719   6.177   2.345  12.026  0.3904  0.0580  0.2391
17076TIP3    H272720   6.058   2.391  11.945  0.7180 -0.2071 -0.3979
17077TIP3   OH272721   5.767   0.847  14.455 -0.0110 -0.0477 -0.2597
17077TIP3    H172722   5.841   0.807  14.409  0.2591 -1.5611  1.3964
17077TIP3    H272723   5.802   0.929  14.490  0.6957 -0.4456 -0.0255
17078TIP3   OH272724   5.745   0.886   1.133 -0.4875  0.2635 -0.0217
17078TIP3    H172725   5.782   0.945   1.198 -2.1482  0.0518  1.1627
17078TIP3    H272726   5.694   0.822   1.183  0.8823 -1.9821 -1.2807
17079TIP3   OH272727   3.936   5.945   1.134 -0.0550 -0.0419 -0.7628
17079TIP3    H172728   4.001   6.004   1.173  0.5728 -0.1143 -1.6670
17079TIP3    H272729   3.853   5.971   1.173  0.3685  0.7534 -0.3747
17080TIP3   OH272730   2.276   2.826   3.298  0.1278 -0.3360 -0.0092
17080TIP3    H172731   2.296   2.739   3.332  2.6009  0.1932  0.0805
17080TIP3    H272732   2.184   2.820   3.270  0.0210 -2.7466  0.5992
17081TIP3   OH272733   5.009   6.663   1.829 -0.3181  0.1906  0.3852
17081TIP3    H172734   4.991   6.685   1.921  0.1155 -1.8640  1.0069
17081TIP3    H272735   4.992   6.569   1.823 -0.0316  0.2280 -1.5751
17082TIP3   OH272736   1.637   1.273   4.705 -0.6230  0.4816  0.0130
17082TIP3    H172737   1.725   1.306   4.722 -1.1609  2.1058 -0.1063
17082TIP3    H272738   1.650   1.199   4.646  0.6984  0.2076  0.6199
17083TIP3   OH272739   3.566   3.869   6.212  0.3946  0.3449 -0.9053
17083TIP3    H172740   3.515   3.907   6.283  0.6024 -0.1619 -0.4803
17083TIP3    H272741   3.505   3.813   6.164  0.6820 -0.7384 -0.0359
17084TIP3   OH272742   1.822   0.989   5.018  0.4331 -0.4453 -0.4438
17084TIP3    H172743   1.839   1.062   5.077 -1.4987 -0.0990 -0.2666
17084TIP3    H272744   1.800   0.916   5.077 -0.8736 -0.2647 -0.6791
17085TIP3   OH272745   0.342   5.651  17.213  0.5317 -0.7824  0.3070
17085TIP3    H172746   0.416   5.712  17.218 -0.0759 -0.0293  0.4463
17085TIP3    H272747   0.373   5.572  17.256  1.0805 -0.2824  0.8616
17086TIP3   OH272748   3.900   4.812  17.356 -0.2022  0.2210 -0.6919
17086TIP3    H172749   3.987   4.776  17.373 -0.4706  0.2154  0.7826
17086TIP3    H272750   3.839   4.743  17.381 -0.6925  1.2759  1.2636
17087TIP3   OH272751   5.946   3.712  13.217 -0.3158  0.1611  0.5916
17087TIP3    H172752   5.940   3.621  13.246 -2.2826  0.6980  2.1086
17087TIP3    H272753   6.005   3.754  13.279  2.0148 -0.3804 -1.1413
17088TIP3   OH272754   4.359   5.794  11.547  0.1684  0.3623 -0.7380
17088TIP3    H172755   4.397   5.829  11.467  1.5167  0.3194 -0.1383
17088TIP3    H272756   4.428   5.740  11.585 -0.5852  0.0758  0.2611
17089TIP3   OH272757   5.125   6.064   2.531 -0.0048 -0.2892  0.1306
17089TIP3    H172758   5.082   5.984   2.501 -1.1212  0.3728 -0.1071
17089TIP3    H272759   5.099   6.072   2.623 -0.5164  0.1785 -0.0469
17090TIP3   OH272760   5.400   4.390  14.955 -0.3766  0.0142  0.5118
17090TIP3    H172761   5.428   4.460  14.898 -1.4489  0.2025  0.1908
17090TIP3    H272762   5.461   4.393  15.029  0.5051  0.2986 -0.2102
17091TIP3   OH272763   3.407   3.315  16.080 -0.7685  0.0625  0.1476
17091TIP3    H172764   3.454   3.397  16.093 -1.8939  0.7614 -0.0436
17091TIP3    H272765   3.370   3.323  15.992 -0.2285 -1.0017 -0.1905
17092TIP3   OH272766   2.761   6.429   4.465 -0.1306 -0.1001  0.7988
17092TIP3    H172767   2.834   6.374   4.494  0.9346 -0.6421 -2.5270
17092TIP3    H272768   2.785   6.457   4.376 -3.6855  0.2242 -0.2103
17093TIP3   OH272769   6.124   2.756   2.036  0.4128  0.0035 -0.2702
17093TIP3    H172770   6.044   2.803   2.059 -1.3815  0.1188 -5.4514
17093TIP3    H272771   6.191   2.825   2.027 -0.2647  0.6117 -0.7551
17094TIP3   OH272772   4.536   2.316  16.927  0.4720  0.4450  0.7146
17094TIP3    H172773   4.612   2.342  16.978  0.9356 -0.0144  0.2764
17094TIP3    H272774   4.534   2.221  16.934  1.1820  0.2620 -0.9587
17095TIP3   OH272775   5.219   6.107  17.149  0.1118 -0.6440 -0.2664
17095TIP3    H172776   5.200   6.080  17.239  0.6164  0.9742  0.3661
17095TIP3    H272777   5.293   6.168  17.158 -1.0211  1.0079 -1.5525
17096TIP3   OH272778   4.920   3.581   4.737 -0.0171  0.2405  0.4545
17096TIP3    H172779   4.833   3.563   4.702  1.0771 -0.3347 -2.2419
17096TIP3    H272780   4.979   3.568   4.662  2.6401 -1.5454  2.6489
17097TIP3   OH272781   4.827   3.103   5.144 -0.3756 -0.3411  0.3140
17097TIP3    H172782   4.886   3.029   5.157  1.9512  1.5036  1.1418
17097TIP3    H272783   4.759   3.091   5.210 -1.7890 -3.2169 -1.5159
17098TIP3   OH272784   3.510   4.009   1.726 -0.4420  0.2601 -0.1093
17098TIP3    H172785   3.578   4.077   1.722 -1.1255  1.0173  0.6867
17098TIP3    H272786   3.518   3.972   1.814 -1.4971  0.8479  0.2566
17099TIP3   OH272787   4.990   0.934  12.788 -0.5842  0.0896  0.1314
17099TIP3    H172788   4.960   0.844  12.800 -2.6982  0.5596 -1.2658
17099TIP3    H272789   5.048   0.930  12.712  1.5410 -0.4847  1.6838
17100TIP3   OH272790   4.162   4.267   0.392  0.1132 -0.4805  0.4457
17100TIP3    H172791   4.130   4.191   0.343 -0.6305  0.0484  0.0955
17100TIP3    H272792   4.166   4.237   0.483 -0.3125 -0.8977  0.3300
17101TIP3   OH272793   3.293   2.458  16.365 -0.0619 -0.2137 -0.0182
17101TIP3    H172794   3.362   2.506  16.320  2.7653 -2.7805  1.1668
17101TIP3    H272795   3.340   2.395  16.420 -3.3860 -2.4494  0.5819
17102TIP3   OH272796   5.908   3.090  15.721 -0.3288  0.3226  0.7326
17102TIP3    H172797   5.974   3.092  15.652 -1.9053  0.9529 -0.8443
17102TIP3    H272798   5.866   3.004  15.711 -1.4955  0.9480 -0.0961
17103TIP3   OH272799   1.883   4.353   3.405  0.2525 -0.2292  0.2236
17103TIP3    H172800   1.810   4.415   3.414 -0.9015 -1.2293 -1.5202
17103TIP3    H272801   1.928   4.356   3.490 -0.4117  2.1335  0.5703
17104TIP3   OH272802   2.708   2.388  14.638 -0.0785  0.2940  0.2495
17104TIP3    H172803   2.732   2.310  14.588 -1.4135  1.7849 -2.9459
17104TIP3    H272804   2.661   2.443  14.576 -0.0631  3.2484  2.6421
17105TIP3   OH272805   2.193   0.677  14.918  0.0468  0.4491 -0.1146
17105TIP3    H172806   2.102   0.685  14.946  0.1605  0.7635  0.1782
17105TIP3    H272807   2.215   0.762  14.881  0.2986  0.4547  0.0445
17106TIP3   OH272808   0.127   6.662  13.982 -0.2981  0.0551 -0.1037
17106TIP3    H172809   0.179   6.634  14.058  0.6956  0.9073 -0.4452
17106TIP3    H272810   0.190   6.665  13.910 -1.2098 -0.6316 -0.9541
17107TIP3   OH272811   0.099   4.288   5.373 -0.2436 -0.5184  0.3233
17107TIP3    H172812   0.133   4.308   5.460  0.0176 -2.1442  0.6179
17107TIP3    H272813   0.172   4.308   5.314  1.0898 -3.2288  0.8852
17108TIP3   OH272814   1.716   1.380  11.835 -0.0668  0.1481 -0.0486
17108TIP3    H172815   1.792   1.330  11.862  0.4709  1.3352  0.7118
17108TIP3    H272816   1.644   1.317  11.836  0.6225 -0.6495  0.6977
17109TIP3   OH272817   3.431   4.426   3.804 -0.1111  0.2801 -0.7334
17109TIP3    H172818   3.401   4.381   3.883 -0.1820  1.3063 -0.1623
17109TIP3    H272819   3.388   4.511   3.807  0.1135  0.4403 -1.7358
17110TIP3   OH272820   3.492   4.752  17.100 -0.1759 -0.3335 -0.1859
17110TIP3    H172821   3.401   4.730  17.078 -0.7451  0.6519  1.0607
17110TIP3    H272822   3.491   4.847  17.110  1.2125 -0.2110 -1.0672
17111TIP3   OH272823   1.365   5.265   4.429  0.5971  0.4717  0.0952
17111TIP3    H172824   1.305   5.222   4.491  1.5099  0.7036  1.1828
17111TIP3    H272825   1.308   5.315   4.371 -0.3324 -0.2611  0.3460
17112TIP3   OH272826   1.458   4.956  14.663  0.0052  0.4687 -0.2059
17112TIP3    H172827   1.482   4.981  14.752 -0.3297  1.4717 -0.3841
17112TIP3    H272828   1.486   4.865  14.655 -0.7549  0.0784  1.2113
17113TIP3   OH272829   0.503   1.560   0.378  0.2809 -0.2040 -0.1250
17113TIP3    H172830   0.504   1.631   0.314 -0.8508  0.2451  0.3156
17113TIP3    H272831   0.411   1.553   0.404  0.5032 -1.3113  0.4237
17114TIP3   OH272832   3.138   2.942  15.596 -0.2742 -0.1537 -0.1464
17114TIP3    H172833   3.101   2.930  15.508  1.1546  1.4179 -1.0286
17114TIP3    H272834   3.230   2.962  15.579  0.5408 -1.9255  1.8458
17115TIP3   OH272835   6.462   4.136  12.175 -0.1606  0.0777 -0.0414
17115TIP3    H172836   6.430   4.074  12.109  2.2177 -1.0489 -0.2370
17115TIP3    H272837   6.433   4.101  12.258 -0.0170 -0.5471 -0.2523
17116TIP3   OH272838   5.181   4.706  15.349  0.2885 -0.6275 -0.4006
17116TIP3    H172839   5.123   4.685  15.276  0.4228 -0.9027 -0.4301
17116TIP3    H272840   5.160   4.796  15.372  0.1911 -0.5670 -0.7281
17117TIP3   OH272841   4.927   3.057   0.519  0.4245  0.0569  0.0767
17117TIP3    H172842   5.009   3.019   0.487  0.3232  0.7495 -1.0761
17117TIP3    H272843   4.944   3.077   0.611  0.7898 -1.8588  0.4538
17118TIP3   OH272844   5.691   2.933   3.071  0.0730  0.0379  0.3250
17118TIP3    H172845   5.735   2.869   3.126  0.6876 -0.2864 -0.5202
17118TIP3    H272846   5.660   3.000   3.132 -1.9673 -1.7819  1.4395
17119TIP3   OH272847   5.330   4.874   1.023 -0.5206  0.2620 -0.3121
17119TIP3    H172848   5.259   4.904   1.080 -0.2884 -1.0166  0.7172
17119TIP3    H272849   5.342   4.782   1.047  1.8296  0.5712 -0.0651
17120TIP3   OH272850   3.080   2.616  15.456  0.1655 -0.1812 -0.1161
17120TIP3    H172851   3.101   2.554  15.526  2.7923  1.4651  0.7063
17120TIP3    H272852   3.164   2.637  15.416 -0.9510  0.9840 -1.9995
17121TIP3   OH272853   0.667   3.296   4.121 -0.1084  0.0521  0.2310
17121TIP3    H172854   0.609   3.346   4.064 -1.1744 -0.7830  0.5508
17121TIP3    H272855   0.749   3.289   4.072 -0.7989 -0.1184 -0.9350
17122TIP3   OH272856   1.065   6.446  16.367  0.1243  0.4769  0.0338
17122TIP3    H172857   1.081   6.526  16.317 -3.6195  0.5751 -1.3213
17122TIP3    H272858   1.072   6.474  16.459 -1.0073  2.4084 -0.4079
17123TIP3   OH272859   5.263   0.122   0.193  0.0590 -0.0672  0.2845
17123TIP3    H172860   5.240   0.035   0.160  1.5732  0.1362 -1.5089
17123TIP3    H272861   5.333   0.106   0.256  0.4779 -0.1381 -0.1971
17124TIP3   OH272862   2.291   1.728  16.915 -0.0123 -0.1143  0.1171
17124TIP3    H172863   2.354   1.664  16.949  0.3078  0.2598  0.2229
17124TIP3    H272864   2.330   1.813  16.932  0.5380  0.0883 -1.8646
17125TIP3   OH272865   1.500   5.877   0.025 -0.4786 -0.0234  0.3462
17125TIP3    H172866   1.479   5.923  -0.056 -2.4426 -1.4740 -0.0484
17125TIP3    H272867   1.470   5.936   0.095  1.9397  1.5901  0.1624
17126TIP3   OH272868   2.669   6.261  13.539 -0.1205 -0.0652  0.1354
17126TIP3    H172869   2.579   6.291  13.555  0.2499  0.2121  1.9343
17126TIP3    H272870   2.673   6.246  13.445 -1.8111  0.7172 -0.0991
17127TIP3   OH272871   5.070   5.634  12.252  0.7945  0.3773  0.2126
17127TIP3    H172872   5.006   5.704  12.262  0.2199 -0.1322  0.2019
17127TIP3    H272873   5.151   5.669  12.291 -0.3550 -0.1892  3.4497
17128TIP3   OH272874   5.975   3.682  13.771  0.1879  0.3696 -0.2973
17128TIP3    H172875   5.900   3.741  13.766  0.7980  1.1544 -0.4330
17128TIP3    H272876   5.945   3.610  13.826 -0.8375  0.4076 -0.7877
17129TIP3   OH272877   3.367   5.264  16.278  0.0054  0.2411  0.1729
17129TIP3    H172878   3.318   5.332  16.324 -0.6888  0.8159 -1.3601
17129TIP3    H272879   3.375   5.297  16.189  2.0615 -0.4537  0.0631
17130TIP3   OH272880   6.492   4.043   0.280 -0.0065 -0.3295 -0.0653
17130TIP3    H172881   6.440   4.040   0.200 -0.5338  0.9342  0.2085
17130TIP3    H272882   6.447   3.985   0.340  0.8642 -1.9699 -0.9156
17131TIP3   OH272883   6.591   1.790   3.537 -0.0675  0.4779  0.4794
17131TIP3    H172884   6.643   1.866   3.561  0.5235 -0.0523  0.9237
17131TIP3    H272885   6.652   1.716   3.543 -0.8591 -0.1547  0.9899
17132TIP3   OH272886   5.422   5.070   5.836  0.9511  0.0282 -0.0166
17132TIP3    H172887   5.347   5.069   5.776  0.8951 -2.2679 -0.0190
17132TIP3    H272888   5.484   5.129   5.795 -0.4136  1.1304 -0.5803
17133TIP3   OH272889   1.476   5.192   3.427  0.0374  0.3512  0.9437
17133TIP3    H172890   1.484   5.137   3.349  0.3825  1.2397  0.3419
17133TIP3    H272891   1.447   5.276   3.394  2.7584  1.5814  1.4271
17134TIP3   OH272892   2.676   1.224   1.844 -0.4351  0.2088  0.5269
17134TIP3    H172893   2.614   1.282   1.800 -0.9388 -1.2108 -0.7259
17134TIP3    H272894   2.623   1.174   1.906 -0.9345 -2.0287 -1.5475
17135TIP3   OH272895   4.451   2.820   3.628 -0.0493 -0.1355  0.0329
17135TIP3    H172896   4.418   2.795   3.542 -0.0414 -0.4156  0.1115
17135TIP3    H272897   4.508   2.748   3.654  0.0107 -0.0132  0.2376
17136TIP3   OH272898   3.162   0.344   3.060 -0.2168 -0.7942 -0.2034
17136TIP3    H172899   3.210   0.424   3.079  0.8631 -1.4651 -0.0270
17136TIP3    H272900   3.076   0.357   3.100 -0.5239  0.7954 -1.2941
17137TIP3   OH272901   5.627   6.397   3.105 -0.0926  0.2650 -0.3515
17137TIP3    H172902   5.599   6.417   3.016 -0.8598  1.1306  0.0729
17137TIP3    H272903   5.558   6.342   3.141  0.5373 -0.6519 -0.4911
17138TIP3   OH272904   4.992   3.711  14.460 -0.4060 -0.5732  0.3484
17138TIP3    H172905   4.933   3.664  14.401  0.5291  0.0211 -1.1082
17138TIP3    H272906   5.075   3.663  14.453 -0.1588 -0.2168  0.8262
17139TIP3   OH272907   5.293   0.108   4.993  0.0233  0.1698  0.7011
17139TIP3    H172908   5.378   0.068   4.975 -0.5371 -0.6690 -0.2274
17139TIP3    H272909   5.305   0.158   5.073  1.1950 -0.5293  0.9669
17140TIP3   OH272910   0.549   2.584  15.508 -0.9269 -0.6916 -0.3732
17140TIP3    H172911   0.559   2.657  15.570 -0.8387 -0.7923 -0.2675
17140TIP3    H272912   0.538   2.507  15.564 -0.1550 -0.8829 -0.4741
17141TIP3   OH272913   0.570   4.550  13.451 -0.2686  0.2363 -0.3477
17141TIP3    H172914   0.611   4.467  13.478 -0.8684  0.2880  0.7851
17141TIP3    H272915   0.639   4.615  13.463 -0.2657  0.1270  0.2887
17142TIP3   OH272916   1.927   0.284  11.899 -1.1573  0.0318  0.3618
17142TIP3    H172917   1.976   0.277  11.981 -1.5123 -2.7812  0.4191
17142TIP3    H272918   1.838   0.307  11.926 -1.4548 -1.6151  0.8947
17143TIP3   OH272919   1.282   3.693   0.095  0.0740  0.4466  0.4535
17143TIP3    H172920   1.289   3.782   0.129 -0.5266  0.9172 -0.5992
17143TIP3    H272921   1.196   3.664   0.123  0.1531  0.3024  0.5465
17144TIP3   OH272922   0.415   3.206  11.080  0.2214  0.1955  0.0541
17144TIP3    H172923   0.410   3.182  10.988 -0.7369 -0.0298  0.1491
17144TIP3    H272924   0.354   3.279  11.089  2.2439  1.9966  0.0049
17145TIP3   OH272925   2.112   6.123  13.587  0.4439  0.2707  0.1659
17145TIP3    H172926   2.179   6.114  13.520  0.5005  0.2392  0.2262
17145TIP3    H272927   2.086   6.034  13.607 -1.2293  0.3491 -1.4517
17146TIP3   OH272928   0.726   0.582   6.504 -0.0343 -0.2567 -0.1628
17146TIP3    H172929   0.638   0.591   6.468  0.7469  2.1570 -1.7003
17146TIP3    H272930   0.783   0.587   6.428  1.5490  1.2604  1.0663
17147TIP3   OH272931   5.331   5.225  14.120  0.5046  0.2130  0.1618
17147TIP3    H172932   5.298   5.229  14.210 -0.1947  1.6733 -0.1285
17147TIP3    H272933   5.309   5.310  14.083 -0.5078 -0.8495 -1.8404
17148TIP3   OH272934   5.060   2.616   4.565 -0.0443 -0.8843  0.1624
17148TIP3    H172935   5.153   2.639   4.564 -0.0321 -0.9331 -0.7898
17148TIP3    H272936   5.044   2.586   4.654  1.1610 -2.1122  0.0042
17149TIP3   OH272937   0.506   3.353   4.360 -0.8879 -0.5064  0.3736
17149TIP3    H172938   0.513   3.262   4.391 -0.0321 -0.6743 -0.2622
17149TIP3    H272939   0.557   3.354   4.278  0.3311  0.8669  1.0958
17150TIP3   OH272940   2.219   0.277  12.723  0.2167 -0.1688 -0.2347
17150TIP3    H172941   2.165   0.315  12.653 -0.0422 -0.8361 -0.4051
17150TIP3    H272942   2.248   0.193  12.688  0.4313 -0.3210  0.2982
17151TIP3   OH272943   6.552   1.920  16.998 -0.2974  0.4129 -0.4258
17151TIP3    H172944   6.601   1.972  17.062 -2.9510  0.3103  1.8717
17151TIP3    H272945   6.588   1.832  17.008  0.0054  0.5953  0.2099
17152TIP3   OH272946   1.620   5.797  16.161  0.5829 -0.2537 -0.1792
17152TIP3    H172947   1.673   5.795  16.241 -2.2008 -1.3922  1.8133
17152TIP3    H272948   1.613   5.705  16.135 -0.2544 -0.1287 -0.4418
17153TIP3   OH272949   4.713   0.575   0.264  0.4875 -0.4887 -0.3390
17153TIP3    H172950   4.694   0.554   0.172 -0.4013 -0.6083 -0.1328
17153TIP3    H272951   4.754   0.661   0.261  0.1816 -0.3565 -0.8266
17154TIP3   OH272952   3.712   4.917  11.229  0.6111 -0.9265  0.0427
17154TIP3    H172953   3.729   4.962  11.146  0.1637 -0.7773  0.0277
17154TIP3    H272954   3.733   4.825  11.211  2.7152 -0.5549  0.4271
17155TIP3   OH272955   0.305   0.746  13.401 -0.5098 -0.3312  0.3054
17155TIP3    H172956   0.251   0.764  13.324 -0.1667  0.4187  0.2361
17155TIP3    H272957   0.254   0.683  13.452 -0.2645 -1.7159 -1.0771
17156TIP3   OH272958   5.132   1.289  12.361  0.0136  0.2240 -0.2739
17156TIP3    H172959   5.226   1.277  12.342 -0.0574  2.2875 -2.3775
17156TIP3    H272960   5.089   1.274  12.277 -1.3748  0.8945  0.2928
17157TIP3   OH272961   1.725   2.703   1.980  0.3732  0.6729 -0.5058
17157TIP3    H172962   1.686   2.644   1.916 -2.1418 -0.3410  1.7394
17157TIP3    H272963   1.807   2.731   1.941  0.0710 -1.6828 -3.1116
17158TIP3   OH272964   0.765   0.892   1.740 -0.3681 -0.2893  0.3701
17158TIP3    H172965   0.725   0.804   1.738 -1.9752  0.4058  0.0780
17158TIP3    H272966   0.730   0.931   1.820 -1.7913  0.9893 -0.8194
17159TIP3   OH272967   5.869   5.192  12.076 -0.0079  0.2934  0.0843
17159TIP3    H172968   5.852   5.282  12.102  0.7575  0.7054 -0.8190
17159TIP3    H272969   5.898   5.149  12.157 -2.3597  0.2869  1.0200
17160TIP3   OH272970   6.139   6.493  13.779 -0.2190 -0.8252  0.0396
17160TIP3    H172971   6.123   6.580  13.744 -1.1648 -1.7128 -1.8500
17160TIP3    H272972   6.066   6.477  13.838 -0.0350 -0.3433  0.4045
17161TIP3   OH272973   2.653   0.663   5.781  0.1487 -0.3162  0.0078
17161TIP3    H172974   2.580   0.722   5.759  0.0238  0.1570  1.5466
17161TIP3    H272975   2.631   0.629   5.868  0.3479 -2.4770 -0.7220
17162TIP3   OH272976   6.289   4.671   4.411  0.2774  0.2968 -0.0379
17162TIP3    H172977   6.258   4.602   4.469 -1.9090  1.5568  0.4185
17162TIP3    H272978   6.362   4.712   4.458  0.8404 -0.9123  0.1859
17163TIP3   OH272979   2.824   0.088  14.426  0.1049  0.1205  0.0867
17163TIP3    H172980   2.851  -0.003  14.420  1.5662  0.5644 -0.3282
17163TIP3    H272981   2.812   0.116  14.335 -1.6731 -0.0019  0.2329
17164TIP3   OH272982   4.678   1.046   3.387  0.2726 -0.3359  0.0898
17164TIP3    H172983   4.766   1.077   3.366  0.2601  0.4712  1.0955
17164TIP3    H272984   4.688   1.006   3.474 -0.3405 -0.2382  0.2071
17165TIP3   OH272985   0.442   2.626  12.708  0.0799  0.9282 -0.5978
17165TIP3    H172986   0.418   2.713  12.676  1.3928  1.9450  1.0113
17165TIP3    H272987   0.358   2.585  12.730 -0.5012  3.2106  2.0371
17166TIP3   OH272988   1.953   0.337   2.788 -0.3312 -0.0574  0.0543
17166TIP3    H172989   1.948   0.269   2.855  1.4768 -0.4271 -0.1340
17166TIP3    H272990   1.905   0.301   2.714 -3.0728  0.6901  1.3363
17167TIP3   OH272991   5.121   6.434   4.690  0.3452 -0.1434 -0.0654
17167TIP3    H172992   5.190   6.483   4.734 -2.0086  1.8081  1.6873
17167TIP3    H272993   5.060   6.409   4.760 -0.5762 -2.1650 -1.4746
17168TIP3   OH272994   5.965   3.747   3.545 -0.1305 -0.2774 -0.4830
17168TIP3    H172995   5.923   3.672   3.503  1.9891 -0.9410 -1.5775
17168TIP3    H272996   5.985   3.716   3.633 -0.0395 -0.6990 -0.6460
17169TIP3   OH272997   3.759   6.292  11.250  0.1708 -0.0632  0.1962
17169TIP3    H172998   3.739   6.359  11.316  0.3594 -0.1247  0.3166
17169TIP3    H272999   3.710   6.319  11.173 -1.2687 -0.7992  0.8072
17170TIP3   OH273000   4.301   1.872  14.799  0.3482 -0.1931 -0.5182
17170TIP3    H173001   4.339   1.912  14.877  0.6370 -0.4274 -0.5330
17170TIP3    H273002   4.343   1.917  14.726 -0.2671  0.3486 -0.5445
17171TIP3   OH273003   5.745   6.004  15.302 -0.1030 -0.2421  0.1628
17171TIP3    H173004   5.818   6.049  15.344 -1.8839  0.4493  2.7936
17171TIP3    H273005   5.676   6.070  15.297 -0.1216 -0.3118 -3.9841
17172TIP3   OH273006   4.442   6.569   3.423  0.0389 -0.4356 -0.1834
17172TIP3    H173007   4.463   6.572   3.329  1.4493 -0.5873  0.0951
17172TIP3    H273008   4.528   6.564   3.466 -0.5996 -0.7993  1.0997
17173TIP3   OH273009   2.453   0.064   5.597 -0.6506 -0.0017  0.0636
17173TIP3    H173010   2.534   0.082   5.549  0.5055  0.7427  2.1970
17173TIP3    H273011   2.403   0.145   5.590 -0.8343 -0.1511 -0.4672
17174TIP3   OH273012   3.274   3.584  16.545  0.4028  0.3230  0.2340
17174TIP3    H173013   3.203   3.611  16.604 -0.1893 -0.5162 -0.0774
17174TIP3    H273014   3.254   3.493  16.523  0.3805  0.7340 -1.6002
17175TIP3   OH273015   1.827   3.060   4.488 -0.5054  0.2897 -0.0019
17175TIP3    H173016   1.775   2.983   4.464 -0.9302  0.2836  0.8787
17175TIP3    H273017   1.917   3.035   4.470 -0.5477 -0.7685  1.1320
17176TIP3   OH273018   3.727   5.215   4.531 -0.1144 -0.1250 -0.2247
17176TIP3    H173019   3.710   5.138   4.585 -0.5866 -0.4100 -0.7720
17176TIP3    H273020   3.686   5.195   4.447 -3.2558  2.0787  0.6337
17177TIP3   OH273021   0.157   2.332   2.487 -0.0165  0.1260 -0.0053
17177TIP3    H173022   0.171   2.379   2.569 -0.4229 -1.9944  1.3583
17177TIP3    H273023   0.231   2.271   2.482 -0.0272  0.1866 -1.2075
17178TIP3   OH273024   4.688   2.966  15.922  0.0155 -0.2012  0.2853
17178TIP3    H173025   4.656   3.048  15.885  1.4479  0.6011  0.7520
17178TIP3    H273026   4.680   2.977  16.017  1.5600  0.0222  0.4232
17179TIP3   OH273027   6.123   6.766   4.220 -0.3306 -0.5667  0.1204
17179TIP3    H173028   6.067   6.739   4.293 -1.1782 -0.7825 -0.5893
17179TIP3    H273029   6.167   6.845   4.251 -0.6503 -0.6773  0.8759
17180TIP3   OH273030   0.261   4.326   2.097 -0.0226 -0.0151  0.7285
17180TIP3    H173031   0.222   4.411   2.117  1.3172  0.6603  0.5699
17180TIP3    H273032   0.215   4.296   2.019  0.7362  1.4443 -0.3228
17181TIP3   OH273033   5.344   4.844  17.296  0.0743 -0.1429 -0.8936
17181TIP3    H173034   5.379   4.917  17.348 -0.4248  0.0623 -0.8360
17181TIP3    H273035   5.421   4.802  17.258  0.6120 -1.3539  1.3655
17182TIP3   OH273036   5.676   4.172  15.133 -0.7954 -0.1313 -0.4190
17182TIP3    H173037   5.747   4.132  15.184 -2.2511 -0.7206  1.2417
17182TIP3    H273038   5.672   4.119  15.053  0.6487 -0.0523 -0.5804
17183TIP3   OH273039   6.459   1.464   1.828 -0.6070 -0.2969 -0.3058
17183TIP3    H173040   6.486   1.543   1.781 -2.0615  1.6461  1.9020
17183TIP3    H273041   6.410   1.413   1.764 -0.1584  0.8765 -1.6338
17184TIP3   OH273042   3.247   0.762  11.542  0.0916 -0.9956  0.0862
17184TIP3    H173043   3.219   0.677  11.576  0.6974 -0.9502  0.7271
17184TIP3    H273044   3.223   0.824  11.611 -0.8913 -0.5547 -0.6353
17185TIP3   OH273045   6.310   1.296   1.672 -0.2372 -0.3483 -0.4708
17185TIP3    H173046   6.357   1.282   1.590  2.0000 -0.5938  0.7553
17185TIP3    H273047   6.294   1.207   1.705 -0.9209 -0.2499 -0.5373
17186TIP3   OH273048   3.618   0.236   6.289 -0.2105  0.3163  0.4800
17186TIP3    H173049   3.549   0.170   6.282  0.3550 -0.1685 -0.8700
17186TIP3    H273050   3.669   0.209   6.365  0.8029 -1.6376 -0.7933
17187TIP3   OH273051   6.601   4.358   1.864 -0.3845 -0.4630 -0.5130
17187TIP3    H173052   6.630   4.320   1.948  0.7655 -1.1495 -1.1900
17187TIP3    H273053   6.507   4.340   1.862 -0.9309  1.6210  1.6511
17188TIP3   OH273054   5.167   6.483   1.230  0.1694  0.3514  0.2757
17188TIP3    H173055   5.125   6.429   1.163  0.1240  0.6057  0.0973
17188TIP3    H273056   5.095   6.532   1.269  0.0245 -0.6156  1.2923
17189TIP3   OH273057   5.461   3.956   2.212  0.0341  0.4092 -0.0222
17189TIP3    H173058   5.529   3.990   2.153  1.4522 -1.5535  0.3842
17189TIP3    H273059   5.500   3.963   2.300 -0.0956 -1.0909  0.1780
17190TIP3   OH273060   3.271   3.376  15.808 -0.1724 -0.4010 -0.5627
17190TIP3    H173061   3.199   3.321  15.776 -1.3057  1.1746 -0.8044
17190TIP3    H273062   3.325   3.391  15.730 -0.2775 -0.5308 -0.6619
17191TIP3   OH273063   5.415   3.796   3.591  0.2216 -0.4762  0.2532
17191TIP3    H173064   5.430   3.872   3.534 -0.7168 -0.9963 -0.7109
17191TIP3    H273065   5.396   3.835   3.677 -3.3736  0.6239 -0.8413
17192TIP3   OH273066   5.048   0.040  15.963  0.3154  0.2485 -0.1114
17192TIP3    H173067   5.015   0.094  15.891  2.2695  2.0280  0.2347
17192TIP3    H273068   4.979   0.046  16.030 -1.4207 -1.2474 -1.6479
17193TIP3   OH273069   2.830   2.730  12.256 -0.4078 -0.0052 -0.8708
17193TIP3    H173070   2.767   2.662  12.280 -1.0780  0.5653 -0.9940
17193TIP3    H273071   2.837   2.723  12.160 -1.3120  0.8111 -1.0067
17194TIP3   OH273072   0.968   3.025  13.843  0.0777 -0.1533  0.0462
17194TIP3    H173073   0.913   2.946  13.843  0.6980 -0.6418  1.8717
17194TIP3    H273074   1.033   3.008  13.775 -0.3933 -0.7696 -0.2661
17195TIP3   OH273075   4.876   0.872   3.901  0.1603  0.3700  0.1668
17195TIP3    H173076   4.797   0.854   3.951  0.9278  0.1230  1.3199
17195TIP3    H273077   4.915   0.786   3.884  0.8659  0.5682  0.7544
17196TIP3   OH273078   1.383   1.603   2.536  0.7929  0.0097 -0.0989
17196TIP3    H173079   1.438   1.651   2.598 -1.4710 -0.2500  2.3120
17196TIP3    H273080   1.377   1.515   2.572 -2.4079  0.4412  0.7546
17197TIP3   OH273081   5.006   1.661   2.735  0.3005  0.0937  0.3560
17197TIP3    H173082   4.980   1.734   2.678 -1.4487 -0.9085 -0.1999
17197TIP3    H273083   5.080   1.621   2.690 -1.2522 -0.8876 -1.5126
17198TIP3   OH273084   2.651   2.085   1.416  0.2767 -0.1972  0.2008
17198TIP3    H173085   2.612   2.171   1.432 -0.3555  0.4430 -3.7009
17198TIP3    H273086   2.577   2.025   1.414  0.3018 -0.2159 -0.3333
17199TIP3   OH273087   4.697   1.959  11.756  0.0180  0.3690 -0.3529
17199TIP3    H173088   4.715   2.025  11.823 -0.4996  1.1250 -0.9410
17199TIP3    H273089   4.648   1.891  11.802  0.4530  0.4386  0.2328
17200TIP3   OH273090   0.513   3.554  14.353  0.2770  0.0368  0.5880
17200TIP3    H173091   0.445   3.528  14.416  2.5408 -1.9659  2.3677
17200TIP3    H273092   0.527   3.476  14.300  1.6463  0.1830  0.7063
17201TIP3   OH273093   5.765   0.142   1.664  0.1082  0.2234 -0.1955
17201TIP3    H173094   5.768   0.152   1.569 -1.1832 -0.5367 -0.3422
17201TIP3    H273095   5.698   0.076   1.679 -0.5126  1.1472  1.3170
17202TIP3   OH273096   2.284   1.890   1.075 -0.3035 -0.2464 -0.3622
17202TIP3    H173097   2.306   1.797   1.079 -0.6866 -0.4253 -1.9284
17202TIP3    H273098   2.189   1.892   1.068 -0.1861  0.1584 -2.2855
17203TIP3   OH273099   5.984   1.755   5.649 -0.5415  0.1783 -0.1467
17203TIP3    H173100   6.073   1.783   5.672 -0.3969  0.8996 -1.5209
17203TIP3    H273101   5.996   1.688   5.583 -1.0078 -0.7190  0.6508
17204TIP3   OH273102   3.850   0.595   5.286 -0.8178 -0.0726  0.6482
17204TIP3    H173103   3.761   0.598   5.319 -1.6575  3.1769 -1.3815
17204TIP3    H273104   3.876   0.687   5.280  2.2531 -0.8676  0.0806
17205TIP3   OH273105   3.197   0.190  16.226  0.3291  0.2282 -0.0762
17205TIP3    H173106   3.254   0.236  16.288 -0.6205  0.2575  0.7911
17205TIP3    H273107   3.250   0.182  16.147  1.9858 -0.7682  1.0549
17206TIP3   OH273108   2.892   0.186   5.720 -0.1970  0.2245  0.1863
17206TIP3    H173109   2.873   0.127   5.793  0.4094  0.3007  0.4185
17206TIP3    H273110   2.876   0.134   5.641 -0.1595 -0.0917  0.3847
17207TIP3   OH273111   6.330   0.970   1.299 -0.2607  0.0711  0.2875
17207TIP3    H173112   6.299   1.056   1.329  0.4590  0.4553 -0.0478
17207TIP3    H273113   6.296   0.909   1.364 -2.5464  0.3333 -0.5686
17208TIP3   OH273114   5.186   1.118  17.460 -0.4977  0.4602 -0.4604
17208TIP3    H173115   5.101   1.092  17.497  0.0691 -2.2060 -0.7984
17208TIP3    H273116   5.163   1.164  17.379 -1.6301  0.1928 -0.3115
17209TIP3   OH273117   6.282   2.025  13.513  0.1214  0.5380  0.1819
17209TIP3    H173118   6.324   1.953  13.465 -1.9203 -0.6034 -0.0093
17209TIP3    H273119   6.285   2.099  13.453  0.1205 -0.0834 -0.6018
17210TIP3   OH273120   3.127   1.015  15.351 -0.1760  0.8464 -0.1413
17210TIP3    H173121   3.158   1.016  15.261 -0.2168  0.1678 -0.1705
17210TIP3    H273122   3.045   0.965  15.348  0.7531 -0.8160  0.5413
17211TIP3   OH273123   5.415   0.737   3.358 -0.3368 -0.6405  0.2536
17211TIP3    H173124   5.325   0.750   3.329  0.6080  0.5317 -2.4559
17211TIP3    H273125   5.468   0.750   3.280  2.4482  1.9488  2.3486
17212TIP3   OH273126   4.413   1.776   3.886 -0.2604  0.1324  0.3242
17212TIP3    H173127   4.395   1.783   3.979  0.3657  1.5246  0.3724
17212TIP3    H273128   4.509   1.775   3.880 -0.2774 -1.5702 -0.2316
17213TIP3   OH273129   0.026   3.097   2.099  0.1761 -0.0736  0.1426
17213TIP3    H173130   0.069   3.014   2.083 -0.5683 -0.3762 -0.3852
17213TIP3    H273131  -0.068   3.076   2.098 -0.0083  0.6782  0.5394
17214TIP3   OH273132   0.390   0.665  15.822 -0.0045  0.0248 -0.3112
17214TIP3    H173133   0.359   0.715  15.898 -1.9171 -2.6506  0.8226
17214TIP3    H273134   0.462   0.612  15.856 -0.0580 -0.2827 -0.6804
17215TIP3   OH273135   4.558   6.341   1.565 -0.1547 -0.2716  0.1421
17215TIP3    H173136   4.574   6.404   1.494  0.5708 -0.1218  0.4231
17215TIP3    H273137   4.568   6.392   1.645  0.7190 -0.7920  0.3779
17216TIP3   OH273138   4.984   5.745   0.832  0.2448 -0.0625 -0.4458
17216TIP3    H173139   4.943   5.659   0.823 -1.5717  0.8219 -1.2163
17216TIP3    H273140   4.921   5.806   0.792  1.9100  1.5171 -0.7889
17217TIP3   OH273141   2.604   2.796   6.262  0.3152  0.1821 -0.1529
17217TIP3    H173142   2.530   2.745   6.294 -1.1476  1.8512 -0.6921
17217TIP3    H273143   2.656   2.734   6.211 -1.4100 -0.7736 -0.8313
17218TIP3   OH273144   6.420   0.257   1.958 -0.1417 -0.2444  0.1756
17218TIP3    H173145   6.441   0.167   1.984  1.7493 -0.0105 -0.3821
17218TIP3    H273146   6.504   0.302   1.956 -0.9381  1.3059 -0.4948
17219TIP3   OH273147   4.610   6.602   3.768 -0.1943 -0.2833 -0.2946
17219TIP3    H173148   4.694   6.647   3.764 -0.4015  0.3224  1.3935
17219TIP3    H273149   4.545   6.669   3.745 -0.3117 -0.4163 -0.3532
17220TIP3   OH273150   3.320   2.486   2.495  0.4750 -0.5076  0.3552
17220TIP3    H173151   3.358   2.497   2.408 -1.2938  0.0790 -0.4037
17220TIP3    H273152   3.304   2.392   2.503 -2.4419 -0.2807 -1.4413
17221TIP3   OH273153   2.216   5.131   1.432  0.1763 -0.3006  0.2982
17221TIP3    H173154   2.172   5.111   1.514 -1.1346 -1.2949 -0.6169
17221TIP3    H273155   2.220   5.048   1.385  0.5055  0.3232 -0.8338
17222TIP3   OH273156   5.509   3.079  17.521  0.4205 -0.3106  0.2389
17222TIP3    H173157   5.546   2.997  17.486  2.2784  0.4303  0.3547
17222TIP3    H273158   5.468   3.121  17.445  1.6564 -0.1893 -0.3854
17223TIP3   OH273159   4.306   0.684   5.512  0.2662 -0.4504 -0.0241
17223TIP3    H173160   4.235   0.620   5.509  0.8217 -1.1078  0.3887
17223TIP3    H273161   4.386   0.631   5.511  0.7370  0.2255  0.7508
17224TIP3   OH273162   4.347   6.608   1.520 -0.0782 -0.0365 -0.2698
17224TIP3    H173163   4.326   6.673   1.453 -1.4929  0.1427  0.3190
17224TIP3    H273164   4.273   6.547   1.518  1.2349 -1.6794 -0.8358
17225TIP3   OH273165   5.810   4.040   2.628 -0.3544 -0.2107  0.5710
17225TIP3    H173166   5.835   4.100   2.558  0.5168 -1.7695 -0.4878
17225TIP3    H273167   5.888   4.035   2.684 -1.0082  0.9441  1.6582
17226TIP3   OH273168   0.900   5.140   6.134 -0.0436  0.2522  0.0573
17226TIP3    H173169   0.873   5.072   6.195 -0.9125 -0.5342 -1.1706
17226TIP3    H273170   0.974   5.183   6.177  0.2892 -1.2237  1.0166
17227TIP3   OH273171   6.355   1.472  14.666  0.2920 -0.2338 -0.8458
17227TIP3    H173172   6.344   1.391  14.616  1.6659  0.7573 -2.9174
17227TIP3    H273173   6.449   1.490  14.660  0.2300  0.8062  0.7701
17228TIP3   OH273174   5.423   3.479  16.595 -0.3319  0.4744 -0.3143
17228TIP3    H173175   5.420   3.520  16.682  1.5736 -1.6827  0.8613
17228TIP3    H273176   5.338   3.437  16.586 -0.2947  0.0919  0.8779
17229TIP3   OH273177   0.595   5.851   2.145  0.0378  0.1731 -0.2004
17229TIP3    H173178   0.549   5.816   2.222 -1.4874 -0.0916 -1.1925
17229TIP3    H273179   0.660   5.784   2.124 -0.3147 -0.3011  0.1739
17230TIP3   OH273180   1.945   0.286   6.055 -0.1386 -0.3803  0.0065
17230TIP3    H173181   2.007   0.336   6.107  1.2057 -1.0369 -0.9276
17230TIP3    H273182   1.946   0.198   6.094  1.7973 -1.2245 -1.8003
17231TIP3   OH273183   2.969   1.177  14.877 -0.2491  0.1404 -0.0254
17231TIP3    H173184   3.002   1.263  14.853 -0.7522  0.3840  0.1302
17231TIP3    H273185   2.886   1.195  14.921 -0.1996 -0.4026  0.3043
17232TIP3   OH273186   5.680   2.880   5.250  0.1577  0.1256 -0.0546
17232TIP3    H173187   5.731   2.849   5.324  0.4956 -0.8875 -0.6902
17232TIP3    H273188   5.596   2.833   5.257 -0.6117  1.5504  0.8128
17233TIP3   OH273189   3.241   6.540  13.654  1.1667  0.3203  0.6579
17233TIP3    H173190   3.187   6.513  13.729  0.0908  2.5289  0.7557
17233TIP3    H273191   3.279   6.623  13.682  2.2692  0.2431 -0.5635
17234TIP3   OH273192   1.085   0.893   5.388  0.3116  0.4996 -0.0958
17234TIP3    H173193   1.084   0.898   5.484 -1.6964  2.1021 -0.1295
17234TIP3    H273194   1.001   0.930   5.362 -0.1680 -1.9960 -2.4237
17235TIP3   OH273195   2.796   5.974   6.663 -0.2052 -0.3649 -0.1651
17235TIP3    H173196   2.766   6.053   6.619  1.2220 -0.3467 -1.1889
17235TIP3    H273197   2.860   5.935   6.602 -0.3666 -1.9347  0.6096
17236TIP3   OH273198   4.344   1.706  12.460  0.8746 -0.4961 -0.5986
17236TIP3    H173199   4.405   1.633  12.448  0.1698 -1.2729  0.3480
17236TIP3    H273200   4.399   1.784  12.464  1.6545 -0.9888 -1.4589
17237TIP3   OH273201   6.683   5.697   4.797  0.0030  0.2885  0.2027
17237TIP3    H173202   6.700   5.738   4.712 -0.4938 -0.5175 -0.2999
17237TIP3    H273203   6.617   5.630   4.778  1.4453 -1.3844  0.8143
17238TIP3   OH273204   0.530   5.199   1.608  0.3676 -0.3765 -0.0397
17238TIP3    H173205   0.487   5.169   1.688 -2.2510  1.3112 -0.6845
17238TIP3    H273206   0.550   5.119   1.560  0.4251 -1.3413  1.5183
17239TIP3   OH273207   1.743   2.582  16.137 -0.2281 -0.3137  0.1517
17239TIP3    H173208   1.835   2.560  16.121  0.3810  1.9725  0.1749
17239TIP3    H273209   1.725   2.655  16.077 -2.0568 -0.7365  0.1294
17240TIP3   OH273210   5.808   1.062   1.658  0.9819 -0.6370 -0.3185
17240TIP3    H173211   5.767   1.116   1.725  1.9156 -0.9341  0.5265
17240TIP3    H273212   5.743   0.994   1.638  1.1574 -1.2997  1.2316
17241TIP3   OH273213   6.681   1.310   1.107  0.0297 -0.1098  0.5212
17241TIP3    H173214   6.774   1.311   1.132 -0.7726  1.1387  3.9417
17241TIP3    H273215   6.649   1.226   1.138 -0.3880  0.2471  1.0592
17242TIP3   OH273216   2.797   5.384  13.445 -0.1895 -0.1645  0.2602
17242TIP3    H173217   2.861   5.392  13.374  0.1764 -0.5581  0.5506
17242TIP3    H273218   2.720   5.345  13.402  0.1876 -0.8215  0.1717
17243TIP3   OH273219   0.703   3.311  12.954  0.6348  0.1145 -0.8227
17243TIP3    H173220   0.623   3.324  13.005  2.3485 -1.0861  2.5207
17243TIP3    H273221   0.697   3.221  12.923  1.1028 -0.3592  0.3917
17244TIP3   OH273222   2.633   0.169   0.592  0.1186  0.5949 -0.1800
17244TIP3    H173223   2.721   0.154   0.625  0.4450  2.1497 -0.2375
17244TIP3    H273224   2.613   0.092   0.539  0.6416 -0.6904  1.4145
17245TIP3   OH273225   4.219   5.224   5.817  0.4449 -0.2039 -0.1317
17245TIP3    H173226   4.235   5.264   5.903 -0.2021 -1.5646  0.6569
17245TIP3    H273227   4.293   5.166   5.804 -0.9475 -2.3686  1.0033
17246TIP3   OH273228   6.207   4.923   2.459 -0.3308  0.4300 -0.1516
17246TIP3    H173229   6.255   4.848   2.495 -0.3526  1.2778  1.7958
17246TIP3    H273230   6.275   4.985   2.433 -0.3237  0.3855 -0.2360
17247TIP3   OH273231   4.733   6.078  16.231  0.1889  0.4885  0.1765
17247TIP3    H173232   4.826   6.064  16.213  0.1682  2.2699 -1.7220
17247TIP3    H273233   4.723   6.061  16.325  2.2528 -0.5118  0.2553
17248TIP3   OH273234   5.301   1.142   5.848 -0.3643  0.0915 -0.1280
17248TIP3    H173235   5.206   1.147   5.863 -0.1639  0.8558  1.0390
17248TIP3    H273236   5.339   1.198   5.916  1.1204 -2.7980  1.6802
17249TIP3   OH273237   0.452   1.343  13.318  0.1510  0.1895 -0.2986
17249TIP3    H173238   0.476   1.383  13.402  1.6115 -0.6025 -0.3031
17249TIP3    H273239   0.391   1.273  13.341  0.3440  0.1438  0.0834
17250TIP3   OH273240   3.149   3.526  11.760  0.1166 -0.1065  0.1893
17250TIP3    H173241   3.171   3.535  11.668  1.5541 -0.8616  0.4355
17250TIP3    H273242   3.101   3.607  11.781  0.7733  0.6033 -0.9251
17251TIP3   OH273243   5.670   5.734  12.801 -0.1019  0.0658  0.9560
17251TIP3    H173244   5.687   5.644  12.773  0.3750  1.0135 -2.1313
17251TIP3    H273245   5.575   5.744  12.797 -0.0673  0.0683 -0.0957
17252TIP3   OH273246   2.733   3.281   5.407  0.2483  0.1762  0.1711
17252TIP3    H173247   2.746   3.343   5.335  1.8559  1.4227  1.4741
17252TIP3    H273248   2.658   3.228   5.379  0.7392  0.6777 -2.3587
17253TIP3   OH273249   4.125   2.251   0.902  0.3115 -0.3964 -0.2818
17253TIP3    H173250   4.114   2.162   0.935 -0.8431  0.2078  1.0231
17253TIP3    H273251   4.079   2.251   0.818 -2.2283 -0.3025  1.0338
17254TIP3   OH273252   5.536   6.204  12.298 -0.3079 -0.0467  0.0849
17254TIP3    H173253   5.562   6.281  12.349 -0.8968  0.3311 -0.1753
17254TIP3    H273254   5.534   6.133  12.362 -0.4125  0.2926  0.4639
17255TIP3   OH273255   0.863   2.019   1.757  0.0958 -0.5025  0.0370
17255TIP3    H173256   0.912   1.964   1.819 -0.6588 -1.7715 -0.4586
17255TIP3    H273257   0.859   2.104   1.800  0.8816 -0.9501  1.0567
17256TIP3   OH273258   0.412   2.436   5.541 -0.0861 -0.1255  0.5922
17256TIP3    H173259   0.459   2.354   5.523 -0.8333 -0.2328 -1.0297
17256TIP3    H273260   0.445   2.497   5.475 -0.7217  0.4063  0.7638
17257TIP3   OH273261   2.963   6.411  16.784  0.3198 -0.4216 -0.4897
17257TIP3    H173262   2.908   6.414  16.862 -0.6956  0.6309 -1.2191
17257TIP3    H273263   2.902   6.392  16.712  0.5949  2.3533 -1.5618
17258TIP3   OH273264   0.462   2.753   2.625 -0.8680 -0.0883  0.0856
17258TIP3    H173265   0.451   2.714   2.538 -1.7670 -0.6640  0.4388
17258TIP3    H273266   0.393   2.712   2.678  0.4184 -0.6545  1.3789
17259TIP3   OH273267   1.691   3.913   1.081  0.2170 -0.1911 -0.2557
17259TIP3    H173268   1.613   3.859   1.073  0.1908 -0.6473  2.1440
17259TIP3    H273269   1.764   3.851   1.082  0.3014 -0.1106  0.9604
17260TIP3   OH273270   0.491   5.790  13.761  0.1747  0.4360 -0.0988
17260TIP3    H173271   0.482   5.744  13.845 -1.1678  0.2327 -0.3286
17260TIP3    H273272   0.439   5.738  13.700  1.4775  0.3568 -1.1669
17261TIP3   OH273273   4.344   1.738   0.616  0.3748  0.1262 -0.0600
17261TIP3    H173274   4.252   1.744   0.590  0.7382  2.8094 -1.1049
17261TIP3    H273275   4.342   1.708   0.707 -1.6474  1.3686  0.3763
17262TIP3   OH273276   3.670   4.775   6.084 -0.4112  0.0979 -0.1359
17262TIP3    H173277   3.710   4.790   6.170  2.4196 -3.2027 -0.6390
17262TIP3    H273278   3.578   4.756   6.103  0.1946 -0.8588  2.2362
17263TIP3   OH273279   2.769   6.746   3.350  0.1379  0.1354 -0.4693
17263TIP3    H173280   2.792   6.726   3.441 -1.9082 -1.2717 -0.1921
17263TIP3    H273281   2.720   6.828   3.354  1.1696  0.7697 -0.4998
17264TIP3   OH273282   4.399   4.992   5.800  0.0284 -0.2372 -0.0129
17264TIP3    H173283   4.326   4.932   5.819  0.5299 -0.6812  0.5596
17264TIP3    H273284   4.459   4.941   5.747 -0.8389  0.6584 -1.9687
17265TIP3   OH273285   2.502   2.884  17.409  0.2023 -0.0202  0.1696
17265TIP3    H173286   2.578   2.887  17.351  0.2500 -1.0717  0.1568
17265TIP3    H273287   2.433   2.845  17.357 -0.7000  1.9018 -0.1601
17266TIP3   OH273288   6.001   3.275   4.490 -1.0377  0.3621 -0.0507
17266TIP3    H173289   6.034   3.361   4.517  3.3214 -1.2372  0.5180
17266TIP3    H273290   6.035   3.262   4.402 -2.4444 -0.4985 -0.5097
17267TIP3   OH273291   6.252   0.125  12.281  0.3288  0.4196 -0.5239
17267TIP3    H173292   6.199   0.192  12.236  0.4726  0.0903 -1.2034
17267TIP3    H273293   6.216   0.121  12.369  1.4625  2.6600  0.1140
17268TIP3   OH273294   2.161   0.808   3.358 -0.2838  0.1115  0.1049
17268TIP3    H173295   2.084   0.797   3.300 -0.5282 -2.2042  0.7447
17268TIP3    H273296   2.132   0.869   3.425 -0.6501  1.3389 -1.1318
17269TIP3   OH273297   6.623   0.893  13.845  0.2295  0.3366  0.3813
17269TIP3    H173298   6.700   0.863  13.892  0.4489  1.3750  0.6954
17269TIP3    H273299   6.648   0.891  13.752  0.4617  0.1876  0.4485
17270TIP3   OH273300   3.844   0.858  15.245  0.2185  0.1198  0.1042
17270TIP3    H173301   3.935   0.829  15.235  0.3915  1.1474 -1.7211
17270TIP3    H273302   3.835   0.930  15.184 -1.4961  0.8922  1.1909
17271TIP3   OH273303   3.610   3.835   2.773  0.7365  0.3004 -0.3000
17271TIP3    H173304   3.577   3.901   2.713 -1.3206 -0.7477 -0.4228
17271TIP3    H273305   3.658   3.773   2.718  0.7986  0.5320 -0.5060
17272TIP3   OH273306   1.427   1.453   4.794 -0.1310 -0.2204 -0.5565
17272TIP3    H173307   1.498   1.391   4.775  1.0940  0.4966  1.3871
17272TIP3    H273308   1.472   1.529   4.831 -2.0032 -0.7953  3.4435
17273TIP3   OH273309   5.406   5.930  11.772  0.3779  0.1865 -0.4697
17273TIP3    H173310   5.379   6.013  11.733  0.5511 -0.8326 -2.9564
17273TIP3    H273311   5.484   5.905  11.724  1.3379 -0.6473  1.3999
17274TIP3   OH273312   3.047   3.277  14.704 -0.7307  0.3786  0.1816
17274TIP3    H173313   3.056   3.311  14.615  0.3798 -0.0875  0.1043
17274TIP3    H273314   3.136   3.251  14.729 -0.8463  1.3224  1.7548
17275TIP3   OH273315   0.042   4.738  11.343 -0.0975  0.3447 -0.0272
17275TIP3    H173316   0.007   4.654  11.314 -0.6475  0.4696  0.2676
17275TIP3    H273317   0.130   4.742  11.305 -0.4454  0.0860 -0.8797
17276TIP3   OH273318   6.503   2.400   2.493 -0.7723  0.0536 -0.4435
17276TIP3    H173319   6.482   2.483   2.536  1.5895  0.8080 -0.6224
17276TIP3    H273320   6.447   2.336   2.536 -1.1409  1.3976  1.1754
17277TIP3   OH273321   2.844   4.154  13.433  0.0635  0.0369 -0.4762
17277TIP3    H173322   2.851   4.160  13.529  1.2398  1.4787 -0.6262
17277TIP3    H273323   2.764   4.204  13.413 -1.0027 -1.4742 -0.1681
17278TIP3   OH273324   4.537   5.355   0.471  0.4696  0.4863 -0.3685
17278TIP3    H173325   4.579   5.412   0.407  0.4278 -1.1241 -1.9104
17278TIP3    H273326   4.512   5.277   0.421 -1.7290  0.1441  1.1093
17279TIP3   OH273327   3.592   2.697   5.852 -0.3177 -0.2861  0.3390
17279TIP3    H173328   3.633   2.782   5.836 -0.6135 -0.0697  0.7168
17279TIP3    H273329   3.529   2.687   5.781 -0.0218 -0.3565  0.0858
17280TIP3   OH273330   4.507   5.697  16.476 -0.4694 -0.0653  0.0026
17280TIP3    H173331   4.500   5.686  16.381 -0.5661 -0.5264  0.0621
17280TIP3    H273332   4.597   5.671  16.496 -0.0104  1.3653 -0.1395
17281TIP3   OH273333   2.124   4.371  12.038  0.6435 -0.2873 -0.4560
17281TIP3    H173334   2.126   4.339  11.948  1.4937 -1.4723 -0.0547
17281TIP3    H273335   2.063   4.444  12.037  0.4540 -0.4396 -1.9387
17282TIP3   OH273336   5.644   5.676  14.042  0.1034 -0.6394  0.6178
17282TIP3    H173337   5.660   5.668  14.136  0.0876  0.3154  0.7173
17282TIP3    H273338   5.633   5.586  14.011  3.0229 -1.2153  0.9923
17283TIP3   OH273339   0.788   0.404   5.176  0.3837  0.4302  0.2381
17283TIP3    H173340   0.696   0.431   5.174 -0.0971 -1.0844  0.2248
17283TIP3    H273341   0.803   0.362   5.091  0.5173 -0.9806  0.9186
17284TIP3   OH273342   6.396   5.287  16.789  0.1930 -0.2566 -0.6145
17284TIP3    H173343   6.372   5.343  16.715  0.5563  1.1013  0.2496
17284TIP3    H273344   6.488   5.265  16.773  0.2319 -0.0755 -0.6497
17285TIP3   OH273345   2.686   1.267   2.506 -0.0695 -0.1446  0.4229
17285TIP3    H173346   2.725   1.312   2.580  1.5525 -0.6729 -0.0601
17285TIP3    H273347   2.655   1.336   2.448  0.4848  0.3085  0.6655
17286TIP3   OH273348   4.086   2.044  16.682 -0.2816 -0.6457 -0.0085
17286TIP3    H173349   4.018   2.061  16.746  0.4969 -0.5131  0.7957
17286TIP3    H273350   4.049   1.976  16.625 -1.5614  0.3126 -0.3646
17287TIP3   OH273351   4.398   4.472  11.660  0.0859  0.4709 -0.1443
17287TIP3    H173352   4.348   4.550  11.637  0.4862  1.4950  2.1965
17287TIP3    H273353   4.486   4.503  11.676  0.6710 -0.7680 -0.7699
17288TIP3   OH273354   0.326   1.771  14.387 -0.1741 -0.2143 -0.2492
17288TIP3    H173355   0.403   1.828  14.383 -0.1756 -0.2071 -0.1665
17288TIP3    H273356   0.257   1.822  14.345 -0.1223 -0.2386 -0.3653
17289TIP3   OH273357   6.217   1.210   1.368 -0.4867 -0.0405  0.2150
17289TIP3    H173358   6.142   1.171   1.413 -1.3007 -0.1765 -1.2115
17289TIP3    H273359   6.215   1.302   1.394 -2.1786  0.3331 -1.0816
17290TIP3   OH273360   5.154   1.471   2.237  0.0353 -0.6754 -0.1820
17290TIP3    H173361   5.120   1.483   2.326 -1.4310 -2.1929 -0.4872
17290TIP3    H273362   5.237   1.426   2.250 -0.1474 -0.8538  0.4349
17291TIP3   OH273363   3.389   1.687   3.976  0.1424 -0.0386 -0.2286
17291TIP3    H173364   3.441   1.621   4.022  1.0616 -2.1037 -3.8999
17291TIP3    H273365   3.454   1.737   3.926 -1.0006  0.4595 -1.2367
17292TIP3   OH273366   3.106   4.057  12.068 -0.5626  0.5206  0.8594
17292TIP3    H173367   3.184   4.021  12.110 -0.3313  0.5409  0.4439
17292TIP3    H273368   3.046   3.982  12.060 -0.1915  0.2862  0.2513
17293TIP3   OH273369   3.373   3.462   0.571  0.4559 -0.2055 -0.2622
17293TIP3    H173370   3.376   3.547   0.529  2.3866  1.0701  2.1402
17293TIP3    H273371   3.462   3.427   0.560  0.2350 -1.0205  0.4181
17294TIP3   OH273372   5.145   6.731  16.524 -0.1646  0.3839  0.0696
17294TIP3    H173373   5.142   6.710  16.617  1.3138 -2.3559 -0.3908
17294TIP3    H273374   5.094   6.661  16.482  0.8393  0.4461 -1.3163
17295TIP3   OH273375   4.576   2.297  16.070 -0.1522  0.2085  0.8054
17295TIP3    H173376   4.622   2.379  16.052 -0.5452  0.1553 -0.5663
17295TIP3    H273377   4.603   2.239  15.999 -2.0350  0.0601  0.1596
17296TIP3   OH273378   4.464   3.742  15.334  0.1072  0.3673 -0.1481
17296TIP3    H173379   4.435   3.833  15.339  0.6830  0.4967  1.2288
17296TIP3    H273380   4.552   3.747  15.295 -0.1601  0.3224 -0.7674
17297TIP3   OH273381   0.459   0.599  15.038 -0.0155 -0.2304 -0.2143
17297TIP3    H173382   0.399   0.574  15.108 -0.2640 -0.5008 -0.5225
17297TIP3    H273383   0.536   0.633  15.084 -0.8825  1.2817  0.1808
17298TIP3   OH273384   4.972   3.986   0.271  0.1311 -0.6925  0.1528
17298TIP3    H173385   4.936   3.948   0.350 -0.0534  0.0349  0.4253
17298TIP3    H273386   4.935   3.934   0.200 -0.6340 -0.6132  0.4852
17299TIP3   OH273387   2.282   4.093   3.926 -0.3249  0.1684  0.3140
17299TIP3    H173388   2.263   4.164   3.866  1.8605  0.9247  0.4093
17299TIP3    H273389   2.323   4.136   4.001  2.5603 -1.2346 -0.3112
17300TIP3   OH273390   6.578   6.402  15.067  0.6478 -0.0623  0.0557
17300TIP3    H173391   6.488   6.421  15.039  0.7090 -0.1261 -0.1871
17300TIP3    H273392   6.588   6.308  15.049  0.4317 -0.2721  1.0036
17301TIP3   OH273393   4.431   4.461  12.543  0.3680  0.6444  0.7689
17301TIP3    H173394   4.355   4.431  12.492  1.8891 -0.6697 -0.8684
17301TIP3    H273395   4.462   4.538  12.496  0.2382  1.0078  1.2691
17302TIP3   OH273396   2.568   2.953   4.218 -0.0360 -0.5413 -0.0951
17302TIP3    H173397   2.527   3.037   4.242  2.0646  0.4121  0.4019
17302TIP3    H273398   2.532   2.890   4.281 -0.7885  0.2106  0.2587
17303TIP3   OH273399   2.563   3.521  16.410 -0.3033 -0.0753 -0.1343
17303TIP3    H173400   2.643   3.548  16.366  0.5122 -0.4926  1.0551
17303TIP3    H273401   2.527   3.451  16.355  0.2372 -0.0196 -0.5649
17304TIP3   OH273402   4.206   5.577  11.981 -0.2918  0.2314 -0.2937
17304TIP3    H173403   4.265   5.632  11.931 -1.5662  0.5150 -1.5624
17304TIP3    H273404   4.224   5.598  12.072  2.2303 -0.4577 -0.5772
17305TIP3   OH273405   5.736   0.313  15.764  0.3267 -0.5958 -0.5659
17305TIP3    H173406   5.720   0.405  15.743 -2.2521 -0.8046  0.1504
17305TIP3    H273407   5.826   0.310  15.795  0.6494  1.5666 -1.1823
17306TIP3   OH273408   1.942   0.455   3.814  0.1204 -0.3319  0.0609
17306TIP3    H173409   1.955   0.509   3.736  0.2402 -0.4593 -0.0063
17306TIP3    H273410   1.869   0.497   3.860  0.8693  0.5011  0.5335
17307TIP3   OH273411   2.255   2.241  16.655  0.1228  0.0681 -0.3848
17307TIP3    H173412   2.275   2.182  16.727  0.1285 -0.4457 -0.7968
17307TIP3    H273413   2.304   2.321  16.674 -2.6719  1.4039  2.0936
17308TIP3   OH273414   1.494   1.819  14.272  0.8024  0.2173 -0.2600
17308TIP3    H173415   1.406   1.832  14.237  0.6551  0.5773  0.2434
17308TIP3    H273416   1.551   1.823  14.195  0.5068  1.3048 -0.4258
17309TIP3   OH273417   1.026   3.498  12.530  0.5980  0.2737 -0.4671
17309TIP3    H173418   0.980   3.417  12.554 -0.7573  1.2257  0.3053
17309TIP3    H273419   1.024   3.500  12.435 -1.0571  0.3025 -0.4562
17310TIP3   OH273420   4.812   3.812  16.172  0.0177 -0.0198  0.0337
17310TIP3    H173421   4.895   3.766  16.155 -0.2244 -0.4578  0.0254
17310TIP3    H273422   4.839   3.899  16.203  0.4788 -0.0798 -0.1865
17311TIP3   OH273423   0.703   0.978   2.544 -0.2978 -0.0051  0.2084
17311TIP3    H173424   0.704   0.932   2.460  0.3690 -3.2244  1.8122
17311TIP3    H273425   0.795   0.998   2.561 -0.4769  1.0267  0.0130
17312TIP3   OH273426   4.126   1.631  14.217  0.6459 -0.3427 -0.1646
17312TIP3    H173427   4.073   1.643  14.296  0.6407 -0.4758 -0.1462
17312TIP3    H273428   4.137   1.536  14.211  0.5338 -0.3394 -0.4000
17313TIP3   OH273429   2.594   4.266   3.973  0.4939  0.2940 -0.0801
17313TIP3    H173430   2.617   4.357   3.956  1.4735 -0.1275 -1.1790
17313TIP3    H273431   2.522   4.270   4.036  0.0511  1.8417 -0.6480
17314TIP3   OH273432   4.383   4.083   3.351  0.0396 -0.0730  0.3045
17314TIP3    H173433   4.451   4.016   3.359  0.9819  0.4948 -2.1574
17314TIP3    H273434   4.317   4.045   3.294  1.4195  1.5693 -2.6036
17315TIP3   OH273435   4.146   3.255  14.069 -0.0902 -0.0870 -0.2551
17315TIP3    H173436   4.226   3.224  14.025  0.7964  1.7885 -0.0512
17315TIP3    H273437   4.112   3.177  14.113  1.9217 -0.8410  0.0851
17316TIP3   OH273438   6.691   6.457  14.654  0.8326  0.8022  0.3215
17316TIP3    H173439   6.772   6.406  14.663  2.2058  3.0510  1.5133
17316TIP3    H273440   6.689   6.482  14.562  1.9776  1.4294  0.4476
17317TIP3   OH273441   1.734   6.163  13.916  0.6663  0.0287  0.0824
17317TIP3    H173442   1.759   6.223  13.986 -1.0397  1.6995 -0.6488
17317TIP3    H273443   1.656   6.202  13.878 -0.2626 -2.4471 -0.7632
17318TIP3   OH273444   6.151   2.703  16.706  0.4210  0.0239  0.0061
17318TIP3    H173445   6.067   2.750  16.705  0.1627 -0.4414 -0.2149
17318TIP3    H273446   6.137   2.628  16.648  0.7328 -0.5061  0.6107
17319TIP3   OH273447   5.990   5.779   5.380 -0.1066 -0.1756 -0.0836
17319TIP3    H173448   6.008   5.858   5.330 -0.4074  0.0032  0.0848
17319TIP3    H273449   5.917   5.803   5.437  0.9696 -0.0319  1.2793
17320TIP3   OH273450   4.635   1.056   0.633 -0.0643 -0.0589  0.4038
17320TIP3    H173451   4.650   1.147   0.606 -0.4865  0.0318  0.4726
17320TIP3    H273452   4.652   1.005   0.554  1.2773 -0.0309  0.6400
17321TIP3   OH273453   0.527   6.540  11.641  0.4557  0.5373 -0.4400
17321TIP3    H173454   0.449   6.488  11.660 -0.3589  1.7381 -0.3907
17321TIP3    H273455   0.524   6.611  11.705  1.0164  1.1885 -1.1200
17322TIP3   OH273456   6.342   0.392  11.274 -0.2499 -0.9049 -0.5369
17322TIP3    H173457   6.411   0.341  11.231 -0.0631 -2.4494  1.4830
17322TIP3    H273458   6.279   0.411  11.204  1.9527  0.2270 -2.3630
17323TIP3   OH273459   0.901   2.314  13.771  0.1094  0.0415 -0.0636
17323TIP3    H173460   0.820   2.365  13.773 -0.5150 -0.8293 -1.5592
17323TIP3    H273461   0.927   2.313  13.679  1.1577 -0.7212  0.2214
17324TIP3   OH273462   2.304   5.718  12.037  0.3910 -0.2115  0.2561
17324TIP3    H173463   2.336   5.792  12.088 -0.7201 -0.4385  1.3391
17324TIP3    H273464   2.369   5.649  12.051 -1.4195 -1.4053  4.2164
17325TIP3   OH273465   1.859   6.358  11.801 -0.2837 -0.0419  0.1340
17325TIP3    H173466   1.823   6.419  11.737 -0.1948  0.4400  0.5399
17325TIP3    H273467   1.839   6.271  11.765  1.3958  0.1779 -1.4914
17326TIP3   OH273468   1.986   6.313  13.260  0.1089  0.1772  0.2139
17326TIP3    H173469   1.969   6.333  13.352 -2.3256 -1.4720  0.2232
17326TIP3    H273470   1.932   6.375  13.211 -0.2077 -0.2770 -0.0224
17327TIP3   OH273471   5.338   4.666   3.345 -0.2108  0.5658 -0.3473
17327TIP3    H173472   5.329   4.746   3.395  0.8881  0.5830 -0.1599
17327TIP3    H273473   5.387   4.691   3.267  0.4040  0.0311 -0.1450
17328TIP3   OH273474   2.679   3.973  15.965  0.7284 -0.0736 -0.3461
17328TIP3    H173475   2.733   3.905  15.926  0.0290 -0.5811 -0.4412
17328TIP3    H273476   2.624   3.926  16.028  2.9617  0.8849  2.5622
17329TIP3   OH273477   3.736   4.544   5.046 -0.2240  0.1171 -0.0264
17329TIP3    H173478   3.734   4.448   5.048  0.7907  0.0998  0.4196
17329TIP3    H273479   3.646   4.568   5.024 -0.3159 -0.9535 -0.9976
17330TIP3   OH273480   6.727   3.519  12.874 -0.3206 -0.1637  0.1706
17330TIP3    H173481   6.683   3.553  12.951 -0.5365 -2.5627  1.1855
17330TIP3    H273482   6.675   3.442  12.849  0.0113  0.2796 -2.1103
17331TIP3   OH273483   4.089   3.878  13.390  0.2237  0.0325 -0.1801
17331TIP3    H173484   3.996   3.870  13.370  0.3150 -0.9986 -0.2624
17331TIP3    H273485   4.098   3.839  13.477  0.7573 -0.9636 -0.6680
17332TIP3   OH273486   1.638   2.972   1.957 -0.2876  0.1031  0.1538
17332TIP3    H173487   1.635   2.892   2.010  1.2145 -0.3025 -0.3016
17332TIP3    H273488   1.668   2.942   1.871 -0.6958  1.0245 -0.3125
17333TIP3   OH273489   2.553   1.043   0.836 -0.1054  0.1424 -0.2285
17333TIP3    H173490   2.629   0.987   0.821 -0.1553 -0.7110  2.2248
17333TIP3    H273491   2.586   1.132   0.823  1.2474 -0.2266  0.4678
17334TIP3   OH273492   1.192   0.778   4.118  0.0195 -0.2407  0.2188
17334TIP3    H173493   1.167   0.715   4.185 -0.4547 -0.2673  0.0190
17334TIP3    H273494   1.110   0.803   4.076  0.1454  0.8762  0.6081
17335TIP3   OH273495   4.400   6.514  14.042  1.1468  0.2280 -0.4226
17335TIP3    H173496   4.381   6.514  14.136  2.9577  1.5294 -0.0013
17335TIP3    H273497   4.456   6.590  14.029 -0.9296  1.4674 -3.0203
17336TIP3   OH273498   5.634   5.975  12.952  0.0245 -0.4831  0.9918
17336TIP3    H173499   5.555   5.923  12.936  0.4343 -1.2725  1.5085
17336TIP3    H273500   5.699   5.941  12.891 -0.1162  0.4031  0.3160
17337TIP3   OH273501   2.125   5.407   6.249 -0.0829 -0.1373  0.9368
17337TIP3    H173502   2.045   5.437   6.205  0.3260 -0.1701  0.1447
17337TIP3    H273503   2.179   5.372   6.178 -0.0147 -1.5712  1.6716
17338TIP3   OH273504   5.128   0.444   2.286  0.2174  0.6035  0.0439
17338TIP3    H173505   5.163   0.364   2.324 -0.4642  0.2582 -0.0273
17338TIP3    H273506   5.205   0.496   2.263  0.7009 -0.4173 -0.7393
17339TIP3   OH273507   1.832   3.774  17.348  0.4635 -0.0474 -0.0497
17339TIP3    H173508   1.910   3.779  17.292 -0.0381  0.3430 -0.7433
17339TIP3    H273509   1.806   3.682  17.346 -0.1606  0.1285 -1.3588
17340TIP3   OH273510   0.006   0.170   4.868  0.2980  0.6798  0.2623
17340TIP3    H173511   0.079   0.199   4.922  0.7604  0.6874 -0.3596
17340TIP3    H273512   0.038   0.090   4.826 -0.1986  0.4584  0.2905
17341TIP3   OH273513   4.227   5.876  13.517  0.4324  0.5056  0.5274
17341TIP3    H173514   4.271   5.875  13.603  1.5699 -1.8201 -0.0042
17341TIP3    H273515   4.155   5.814  13.527  0.4628  0.3612 -0.1760
17342TIP3   OH273516   5.454   6.202  17.026  0.1151  0.4859  0.4546
17342TIP3    H173517   5.492   6.209  16.938  0.1530  0.0586  0.4331
17342TIP3    H273518   5.506   6.261  17.080 -0.8367  1.8814 -0.1106
17343TIP3   OH273519   4.716   4.552  12.881 -0.0035 -0.3581  0.2693
17343TIP3    H173520   4.710   4.498  12.959  1.3379 -0.9984 -0.0359
17343TIP3    H273521   4.803   4.593  12.887 -0.0373 -0.1102 -0.6879
17344TIP3   OH273522   4.910   2.691  14.706 -0.1920 -0.4564 -0.4084
17344TIP3    H173523   4.931   2.765  14.764 -1.0713 -0.1555 -0.4656
17344TIP3    H273524   4.926   2.724  14.618  0.2416 -0.6122 -0.3885
17345TIP3   OH273525   2.466   3.895   3.130  0.2287 -0.2863  0.0056
17345TIP3    H173526   2.403   3.825   3.114  1.2621 -1.6830  1.6520
17345TIP3    H273527   2.529   3.887   3.059  0.7900 -1.6151  0.6244
17346TIP3   OH273528   2.373   3.115   5.041 -0.1514  0.4920 -0.6519
17346TIP3    H173529   2.424   3.072   4.972  0.4080 -0.9339  0.5801
17346TIP3    H273530   2.282   3.098   5.018  0.0557 -1.4701 -0.1967
17347TIP3   OH273531   1.466   3.561  17.447 -0.2572  0.1837  0.0905
17347TIP3    H173532   1.451   3.650  17.413 -0.5501 -0.3957 -1.3663
17347TIP3    H273533   1.419   3.559  17.530  2.8570  2.6033  2.1611
17348TIP3   OH273534   6.351   0.850  15.070 -0.5242 -0.1403  0.2728
17348TIP3    H173535   6.342   0.823  14.979 -0.7556 -1.3893  0.6421
17348TIP3    H273536   6.423   0.912  15.070 -0.4219 -0.2443 -0.7388
17349TIP3   OH273537   4.266   0.891  16.545 -0.0599 -0.6300  0.5198
17349TIP3    H173538   4.222   0.964  16.502  2.3475 -0.0371 -1.1801
17349TIP3    H273539   4.204   0.819  16.540 -2.2203  1.0407  1.5935
17350TIP3   OH273540   1.118   3.330  16.406 -0.2525 -0.2297 -1.1311
17350TIP3    H173541   1.078   3.412  16.433  0.6871 -0.7001  2.1161
17350TIP3    H273542   1.045   3.275  16.377 -1.4848  0.3484  0.6902
17351TIP3   OH273543   2.023   6.400  15.733  0.2170  0.5660 -0.2947
17351TIP3    H173544   2.115   6.405  15.708  0.3737  0.9495  0.3259
17351TIP3    H273545   1.998   6.310  15.716  0.3831  0.7410 -1.5583
17352TIP3   OH273546   3.134   2.638  14.332  0.5131 -0.3754 -0.3730
17352TIP3    H173547   3.085   2.599  14.260  2.7194 -0.4416 -1.9485
17352TIP3    H273548   3.068   2.682  14.385 -1.2389 -0.5523 -2.2798
17353TIP3   OH273549   4.925   0.716  17.298  0.3143  0.0051  0.7320
17353TIP3    H173550   4.889   0.712  17.209 -0.1827  0.7675  0.8831
17353TIP3    H273551   4.938   0.624  17.323 -0.7772 -0.2719  0.3524
17354TIP3   OH273552   6.069   0.870   3.196 -0.1609 -0.3572 -0.3964
17354TIP3    H173553   6.102   0.898   3.111 -0.6952  0.1340 -0.4567
17354TIP3    H273554   6.096   0.779   3.204  1.8260  0.2069 -0.1138
17355TIP3   OH273555   5.388   4.654   0.783 -1.0427  0.3147  0.6740
17355TIP3    H173556   5.434   4.571   0.799 -0.7028  0.4341  0.3248
17355TIP3    H273557   5.455   4.721   0.799 -1.1155  0.4912  0.2347
17356TIP3   OH273558   5.997   0.740  14.349  0.3834 -0.2588  0.1287
17356TIP3    H173559   6.015   0.768  14.439 -0.1618 -0.7009  0.3869
17356TIP3    H273560   6.083   0.728  14.310  0.6355  1.8105 -0.0206
17357TIP3   OH273561   4.786   6.612   0.438 -0.1621  0.0155 -0.8267
17357TIP3    H173562   4.694   6.597   0.460  0.0572 -0.9368 -0.5165
17357TIP3    H273563   4.787   6.700   0.400 -0.5755  1.8015  2.8672
17358TIP3   OH273564   0.853   2.482   2.981  0.1709 -0.7769  0.2359
17358TIP3    H173565   0.842   2.437   2.897 -2.8322 -0.8555  0.5673
17358TIP3    H273566   0.848   2.413   3.047  1.6405 -0.6074  0.5600
17359TIP3   OH273567   0.551   6.261  11.183 -0.1653  0.0419  0.7824
17359TIP3    H173568   0.614   6.212  11.131  1.1227  1.9976  0.4067
17359TIP3    H273569   0.596   6.342  11.206 -1.5904  0.3353  2.8404
17360TIP3   OH273570   5.134   3.676  12.650 -0.7056 -0.0879  0.0962
17360TIP3    H173571   5.117   3.664  12.743  1.0113  0.4172  0.5301
17360TIP3    H273572   5.073   3.745  12.623  0.3609  1.4715  1.4586
17361TIP3   OH273573   0.450   1.197   4.845  0.2737  0.3459  0.2012
17361TIP3    H173574   0.512   1.230   4.779  0.6728  1.2664  1.0143
17361TIP3    H273575   0.387   1.147   4.794  0.4100  1.2726 -0.9444
17362TIP3   OH273576   0.660   3.097   1.609  0.4437 -0.0240  0.0141
17362TIP3    H173577   0.596   3.078   1.678  0.6766 -0.6848  0.0540
17362TIP3    H273578   0.667   3.016   1.559 -0.6651  0.8038 -1.5826
17363TIP3   OH273579   6.016   3.861   4.882 -0.3622  0.3201 -0.2368
17363TIP3    H173580   6.090   3.821   4.836  0.0218  1.8198 -0.9793
17363TIP3    H273581   6.057   3.910   4.954 -0.8897 -1.2517  1.2014
17364TIP3   OH273582   3.949   6.106  14.052  0.2622  0.3256  0.6250
17364TIP3    H173583   3.865   6.078  14.016  0.2035  0.2139  0.8441
17364TIP3    H273584   4.012   6.091  13.981 -0.2397  2.4941 -0.3357
17365TIP3   OH273585   6.146   6.490  15.133  0.2892 -0.1101  0.1585
17365TIP3    H173586   6.179   6.555  15.195 -0.3904  0.9695 -0.5961
17365TIP3    H273587   6.203   6.499  15.056 -0.9892  0.9697 -0.7031
17366TIP3   OH273588   3.983   0.670   0.273  0.0358  0.2386  0.3863
17366TIP3    H173589   3.973   0.765   0.264  0.5611  0.2486 -0.2194
17366TIP3    H273590   4.064   0.660   0.323 -1.2100  0.1265  2.4890
17367TIP3   OH273591   3.805   3.712   6.146  0.0927  0.0368 -0.3681
17367TIP3    H173592   3.809   3.670   6.232  0.2169  1.0728  0.1555
17367TIP3    H273593   3.713   3.733   6.134  0.1561  0.4329 -0.2018
17368TIP3   OH273594   5.310   0.913   2.105 -0.3986 -0.0283  0.1913
17368TIP3    H173595   5.317   0.823   2.073 -0.6475 -0.5188  1.4576
17368TIP3    H273596   5.358   0.912   2.188  1.2819  1.5068 -0.6887
17369TIP3   OH273597   0.510   2.052  17.409 -0.0864  0.1876  0.4280
17369TIP3    H173598   0.438   2.089  17.359 -1.4958 -0.2003  2.0776
17369TIP3    H273599   0.566   2.126  17.431 -0.3865  0.6061 -0.2019
17370TIP3   OH273600   5.996   6.266   3.483  0.9569  0.2540 -0.4336
17370TIP3    H173601   5.921   6.319   3.453  0.0268 -0.9730 -0.3808
17370TIP3    H273602   6.004   6.197   3.416 -1.4995 -2.8832  2.1668
17371TIP3   OH273603   6.059   2.441   0.929 -0.0569  0.2025 -0.3009
17371TIP3    H173604   6.037   2.415   0.840  1.4665  0.7171 -0.8746
17371TIP3    H273605   6.102   2.364   0.966 -1.5230 -0.3335  0.3382
17372TIP3   OH273606   4.564   4.973  11.692 -0.1995  0.1309 -0.1816
17372TIP3    H173607   4.511   4.937  11.763  1.8925 -0.3026  1.2352
17372TIP3    H273608   4.548   5.068  11.696 -0.6529  0.0346  0.3912
17373TIP3   OH273609   1.568   4.395  12.789  0.3362 -0.1685  0.0199
17373TIP3    H173610   1.495   4.449  12.820  1.3312  0.2486  1.7952
17373TIP3    H273611   1.531   4.341  12.719 -1.4575  0.5730  0.3517
17374TIP3   OH273612   4.987   5.775  16.399 -0.0520  0.7463  0.3597
17374TIP3    H173613   5.039   5.849  16.366 -0.6093  0.7471 -0.5631
17374TIP3    H273614   4.911   5.816  16.439  0.7868  0.7593  2.0018
17375TIP3   OH273615   2.272   4.570  16.284 -0.0133 -0.2876  0.1115
17375TIP3    H173616   2.306   4.481  16.292 -1.5771 -1.2429 -2.5894
17375TIP3    H273617   2.338   4.617  16.233  1.1332  0.3761  2.1067
17376TIP3   OH273618   4.999   2.827   6.150 -0.2064 -0.8769  0.0920
17376TIP3    H173619   4.930   2.883   6.186 -0.8562 -1.6978  0.1364
17376TIP3    H273620   5.029   2.874   6.072 -0.7320 -0.4594  0.1356
17377TIP3   OH273621   2.277   2.737  15.888 -0.3919 -0.0695  0.9040
17377TIP3    H173622   2.265   2.694  15.972 -0.9219  0.2258  0.9840
17377TIP3    H273623   2.343   2.684  15.843  1.0747  0.6425  2.1091
17378TIP3   OH273624   0.801   4.462   2.207  0.0025 -0.0799  0.1061
17378TIP3    H173625   0.710   4.453   2.179  0.6237  0.2390 -2.3265
17378TIP3    H273626   0.851   4.434   2.130  1.9912 -1.9848  1.9778
17379TIP3   OH273627   1.419   3.223   5.175  0.0489  0.8832  0.2169
17379TIP3    H173628   1.434   3.247   5.084  0.0051  2.9231  0.6965
17379TIP3    H273629   1.329   3.189   5.176 -0.2538  1.6391 -0.3755
17380TIP3   OH273630   0.155   1.171  11.646  0.0815 -0.0353  0.4646
17380TIP3    H173631   0.202   1.102  11.599 -0.1175 -0.3860  0.7753
17380TIP3    H273632   0.196   1.173  11.732  1.0514  1.2267 -0.0022
17381TIP3   OH273633   2.986   5.496  15.279  0.0286  0.1195 -0.0900
17381TIP3    H173634   2.970   5.585  15.310 -0.6268  0.2133 -0.6587
17381TIP3    H273635   2.936   5.440  15.337 -2.8778  0.4396 -2.0935
17382TIP3   OH273636   4.606   2.519  13.279  0.1542 -0.1817  0.7124
17382TIP3    H173637   4.599   2.461  13.355  0.0883 -0.8464  0.2094
17382TIP3    H273638   4.590   2.606  13.314 -2.1168 -0.6958  1.0869
17383TIP3   OH273639   1.100   2.238  17.140 -0.0986 -0.8000  0.2661
17383TIP3    H173640   1.121   2.330  17.153  0.0047 -0.8554  0.4950
17383TIP3    H273641   1.185   2.195  17.132 -0.1516 -0.8350 -0.1260
17384TIP3   OH273642   4.574   0.132   2.961  0.0956  0.2607  0.1678
17384TIP3    H173643   4.508   0.103   2.898  0.9758 -0.3698 -0.4936
17384TIP3    H273644   4.634   0.058   2.969  0.5390  0.6890  1.0257
17385TIP3   OH273645   2.469   6.410   3.933 -0.0560 -0.2030 -0.4243
17385TIP3    H173646   2.414   6.479   3.969 -0.3853 -0.3779 -0.5828
17385TIP3    H273647   2.474   6.429   3.839  0.6294  0.1366 -0.3286
17386TIP3   OH273648   5.260   3.587   5.633  0.0745 -0.2927  0.6734
17386TIP3    H173649   5.222   3.543   5.709  0.5943 -1.3954  0.3122
17386TIP3    H273650   5.232   3.533   5.558  0.4277  0.1884  0.1888
17387TIP3   OH273651   1.264   0.104  16.792  0.1808 -0.0164  0.6148
17387TIP3    H173652   1.285   0.025  16.743  2.0191  1.1781 -0.6521
17387TIP3    H273653   1.342   0.159  16.783 -0.8929  1.7897  1.7697
17388TIP3   OH273654   1.541   5.515   0.430  0.0856 -0.1974 -0.0894
17388TIP3    H173655   1.526   5.610   0.432 -0.0185 -0.2233  0.6231
17388TIP3    H273656   1.503   5.487   0.347 -0.8174  0.2340  0.1629
17389TIP3   OH273657   6.373   0.752  17.185 -0.5876  0.0768  0.1863
17389TIP3    H173658   6.426   0.777  17.260  0.1237  0.3746 -0.3998
17389TIP3    H273659   6.295   0.806  17.191  0.0941  1.1100 -0.0462
17390TIP3   OH273660   3.495   5.285   6.178 -0.0556 -0.0271  0.0613
17390TIP3    H173661   3.482   5.214   6.240 -1.8794 -0.2198 -0.4578
17390TIP3    H273662   3.589   5.288   6.163  0.1336 -1.8161  0.6879
17391TIP3   OH273663   6.413   2.370   4.242  0.1019 -0.0824  0.0299
17391TIP3    H173664   6.454   2.442   4.289  1.0887 -0.7475  0.2247
17391TIP3    H273665   6.468   2.357   4.165 -0.5280 -0.1010 -0.4192
17392TIP3   OH273666   3.906   6.106   5.526  0.6505 -0.3692  0.2991
17392TIP3    H173667   3.811   6.116   5.536  0.4019  0.3757 -2.2104
17392TIP3    H273668   3.935   6.187   5.486  2.0866 -1.2710 -0.5754
17393TIP3   OH273669   0.685   1.261  14.285 -0.8154 -0.2314  0.2892
17393TIP3    H173670   0.761   1.260  14.344  0.2354 -0.5807 -1.0023
17393TIP3    H273671   0.609   1.253  14.342  0.1745 -0.8197  1.5645
17394TIP3   OH273672   1.943   0.408  14.763  0.2397 -0.2542  0.6403
17394TIP3    H173673   1.961   0.315  14.751  0.2769 -0.1311 -0.2841
17394TIP3    H273674   2.025   0.452  14.739 -0.2551  0.1050 -0.4269
17395TIP3   OH273675   1.932   2.861  16.195  0.0716 -0.4884 -0.0392
17395TIP3    H173676   1.963   2.775  16.224  0.7639 -0.5213 -0.8623
17395TIP3    H273677   1.927   2.854  16.100  1.3586  0.7716 -0.2282
17396TIP3   OH273678   2.059   0.166  14.779 -0.1551  0.1358 -0.4540
17396TIP3    H173679   2.135   0.221  14.800 -1.7380  1.5654  2.0757
17396TIP3    H273680   2.092   0.076  14.786  1.3030  0.7066  0.7131
17397TIP3   OH273681   2.296   3.291   1.487  0.2540 -0.3461  0.2709
17397TIP3    H173682   2.286   3.245   1.570  0.2256 -1.5305 -0.3542
17397TIP3    H273683   2.385   3.270   1.458  0.8698  1.4014  0.7469
17398TIP3   OH273684   2.819   6.099  11.421 -0.3775  0.2422 -0.8132
17398TIP3    H173685   2.756   6.160  11.382 -2.5081 -2.0656 -1.2186
17398TIP3    H273686   2.827   6.128  11.512  1.1973  2.9827 -1.7040
17399TIP3   OH273687   2.089   2.062   5.689 -0.1082  0.0508  0.3714
17399TIP3    H173688   2.153   2.007   5.733  1.7628  1.5776 -0.3121
17399TIP3    H273689   2.028   2.088   5.758  0.0540 -1.3272  1.0660
17400TIP3   OH273690   4.422   1.063   5.318 -0.2131 -0.5925 -0.1809
17400TIP3    H173691   4.329   1.064   5.338 -0.0471  0.6529  0.6716
17400TIP3    H273692   4.440   1.151   5.283  1.1654  0.3218  2.4790
17401TIP3   OH273693   5.368   4.791  13.647  0.4177  0.0563  0.1239
17401TIP3    H173694   5.311   4.861  13.613 -0.8073 -0.2652  1.3961
17401TIP3    H273695   5.307   4.727  13.684  1.6105 -0.3864  1.4029
17402TIP3   OH273696   5.540   6.251  12.968 -0.3692  0.0572  0.1293
17402TIP3    H173697   5.566   6.167  12.931 -0.2939 -1.0803  2.5606
17402TIP3    H273698   5.585   6.254  13.053  0.9745  3.3267 -0.5560
17403TIP3   OH273699   5.919   3.660   4.183  0.3744  0.3087  0.4680
17403TIP3    H173700   6.003   3.685   4.144 -0.1336  0.9699 -0.2211
17403TIP3    H273701   5.922   3.565   4.187  1.0333  0.3104  0.1598
17404TIP3   OH273702   1.903   3.833   3.923 -0.2117  0.8330 -0.5717
17404TIP3    H173703   1.834   3.873   3.977 -0.6382  0.4452 -0.8253
17404TIP3    H273704   1.960   3.789   3.987 -0.9950 -0.0585 -0.4519
17405TIP3   OH273705   5.419   6.341   5.672  0.3402 -0.9171  0.0066
17405TIP3    H173706   5.457   6.262   5.632  2.6073 -0.6689  1.4818
17405TIP3    H273707   5.484   6.410   5.655  0.0257 -0.1727  1.6530
17406TIP3   OH273708   2.998   0.279   0.142  0.6517  0.5361 -0.0770
17406TIP3    H173709   3.026   0.187   0.146 -0.2738  0.2256 -0.5488
17406TIP3    H273710   3.000   0.308   0.234 -0.1036 -0.2807  0.2126
17407TIP3   OH273711   0.253   5.162  13.804 -0.0978 -0.0043 -0.1871
17407TIP3    H173712   0.167   5.125  13.827  0.0673 -0.5546 -0.4373
17407TIP3    H273713   0.301   5.163  13.887  0.1183 -0.9693 -0.2874
17408TIP3   OH273714   2.493   2.281   0.560  0.3685 -0.1979 -0.4109
17408TIP3    H173715   2.481   2.190   0.535  1.2075  0.2708 -2.7974
17408TIP3    H273716   2.405   2.319   0.558  0.3113 -0.3742 -2.0441
17409TIP3   OH273717   1.465   5.067   1.711  0.0745 -0.4561  0.0303
17409TIP3    H173718   1.485   5.094   1.800 -0.6026  0.8032 -0.1800
17409TIP3    H273719   1.546   5.082   1.662  0.4366 -1.1226  0.4151
17410TIP3   OH273720   2.282   0.698   0.931  0.3825 -0.6647  0.1427
17410TIP3    H173721   2.203   0.751   0.938  0.6866 -0.4334  2.8251
17410TIP3    H273722   2.338   0.746   0.869 -0.1640  1.0984  0.9648
17411TIP3   OH273723   5.080   4.532  17.156  0.0528  0.2058  0.0468
17411TIP3    H173724   5.141   4.575  17.096 -1.4925 -0.0116 -1.7682
17411TIP3    H273725   5.112   4.555  17.243  0.5907  3.1408 -0.8268
17412TIP3   OH273726   5.754   2.714   2.153 -0.1253  0.7171 -0.1346
17412TIP3    H173727   5.661   2.699   2.137 -0.0962  0.6235 -0.2107
17412TIP3    H273728   5.798   2.675   2.078 -0.0022  0.4426  0.0800
17413TIP3   OH273729   5.387   0.965   4.345  0.3087  0.6063  0.1516
17413TIP3    H173730   5.302   0.922   4.347 -0.6515  2.4039 -0.0721
17413TIP3    H273731   5.388   1.022   4.422  1.7895 -0.2036  0.7789
17414TIP3   OH273732   6.383   1.702  16.257  0.1357 -0.0569 -0.1054
17414TIP3    H173733   6.420   1.709  16.169 -2.4712  2.5627 -1.1636
17414TIP3    H273734   6.295   1.738  16.249 -0.9578 -1.5239  3.2170
17415TIP3   OH273735   6.115   1.040   3.427  0.3880 -0.2301  0.1457
17415TIP3    H173736   6.072   1.118   3.393  0.4597 -0.6356 -0.9140
17415TIP3    H273737   6.107   0.976   3.357  1.3727 -0.7990  0.5317
17416TIP3   OH273738   1.935   3.047  13.477  0.2640 -0.1284 -0.5136
17416TIP3    H173739   1.887   3.093  13.547  0.9619 -0.7932  0.4311
17416TIP3    H273740   1.895   2.960  13.474  2.0775 -1.0806  1.0646
17417TIP3   OH273741   0.034   0.388   1.100  0.7906  0.5077  0.4891
17417TIP3    H173742   0.066   0.478   1.093 -1.4063  1.4026  1.1403
17417TIP3    H273743  -0.061   0.396   1.100  0.4582 -2.0099 -1.5764
17418TIP3   OH273744   6.506   4.794  13.692  0.1318 -0.3042 -0.4718
17418TIP3    H173745   6.513   4.819  13.600  0.1447 -0.4404 -0.5079
17418TIP3    H273746   6.425   4.836  13.721  0.8402  0.8860 -0.1678
17419TIP3   OH273747   6.570   1.848   4.928  0.1800 -0.3948  0.1163
17419TIP3    H173748   6.597   1.930   4.968  2.1279 -1.0120  0.1730
17419TIP3    H273749   6.525   1.800   4.998  1.5584 -0.5268  0.9520
17420TIP3   OH273750   2.456   2.813  14.797  0.5752 -0.3048 -0.4147
17420TIP3    H173751   2.402   2.823  14.876 -0.7147 -1.0506 -1.1716
17420TIP3    H273752   2.508   2.735  14.814  0.0967 -0.6285 -0.3935
17421TIP3   OH273753   0.802   1.319   1.289  0.3769 -0.4659 -0.4232
17421TIP3    H173754   0.747   1.396   1.275  0.7549 -0.1526 -0.2217
17421TIP3    H273755   0.891   1.351   1.278  0.6427 -0.4513  1.4109
17422TIP3   OH273756   5.354   3.240  11.938  0.2666 -0.1597 -0.2138
17422TIP3    H173757   5.329   3.315  11.884 -1.4619 -0.5414 -0.0102
17422TIP3    H273758   5.353   3.165  11.878  0.2074 -0.2955 -0.0441
17423TIP3   OH273759   2.690   4.675  14.147 -0.6307  0.8892  0.2700
17423TIP3    H173760   2.596   4.664  14.155 -0.6783  0.4309 -0.8623
17423TIP3    H273761   2.701   4.755  14.096 -0.4635 -0.1807 -1.4418
17424TIP3   OH273762   4.883   3.816   5.181 -0.6315 -0.1595 -0.4189
17424TIP3    H173763   4.791   3.793   5.186 -0.2161 -1.8801 -0.1422
17424TIP3    H273764   4.896   3.844   5.090 -1.4273  0.1780 -0.4387
17425TIP3   OH273765   4.501   2.376   6.781 -0.0023  0.2155 -0.0282
17425TIP3    H173766   4.434   2.400   6.844 -1.1571 -1.0494 -0.7131
17425TIP3    H273767   4.522   2.285   6.802  0.4338  0.1491 -0.7308
17426TIP3   OH273768   0.800   0.324   0.673 -0.0246  0.1769 -0.4047
17426TIP3    H173769   0.893   0.334   0.653 -0.1172  2.5016  0.0934
17426TIP3    H273770   0.755   0.386   0.615 -1.3130 -1.0283 -0.7669
17427TIP3   OH273771   1.557   3.622  11.832  0.0159  0.0299 -0.2417
17427TIP3    H173772   1.652   3.618  11.823  0.0896  0.8695  0.1043
17427TIP3    H273773   1.538   3.564  11.906  0.6105  2.3809  1.8655
17428TIP3   OH273774   2.574   3.975   6.687 -0.5380  0.1797  0.0974
17428TIP3    H173775   2.598   4.043   6.624 -4.1042  1.7543  0.2717
17428TIP3    H273776   2.603   4.009   6.772 -3.2508  2.1405  0.3384
17429TIP3   OH273777   5.517   3.615  15.320 -0.3336 -0.0812 -0.4249
17429TIP3    H173778   5.514   3.579  15.409 -0.5634  0.2416 -0.3009
17429TIP3    H273779   5.586   3.565  15.277  0.0320  0.0102  0.0438
17430TIP3   OH273780   5.773   1.850  15.111 -0.5743  0.3290 -0.4356
17430TIP3    H173781   5.818   1.861  15.195 -0.0213 -0.2384 -0.6462
17430TIP3    H273782   5.782   1.757  15.091 -3.5120 -0.2366  0.4218
17431TIP3   OH273783   5.921   6.680   1.762  0.3728 -0.6261 -0.0959
17431TIP3    H173784   5.911   6.761   1.712 -0.3886 -0.5919  0.0876
17431TIP3    H273785   5.951   6.615   1.698  2.0719  0.0455 -0.0176
17432TIP3   OH273786   4.652   5.342  15.043  0.2212 -0.8831  0.0227
17432TIP3    H173787   4.728   5.385  15.003 -1.4310 -0.7241 -3.2525
17432TIP3    H273788   4.606   5.412  15.089  0.5467 -0.3675 -0.4199
17433TIP3   OH273789   2.167   4.901   2.397  0.1145 -0.2777  0.2512
17433TIP3    H173790   2.129   4.905   2.309 -1.0256  0.0486  0.7422
17433TIP3    H273791   2.124   4.971   2.445  1.0798 -0.1444  0.9504
17434TIP3   OH273792   5.649   3.557  16.030 -0.1685  0.3532 -0.0724
17434TIP3    H173793   5.712   3.608  16.081  0.1070  0.0982 -0.1520
17434TIP3    H273794   5.660   3.467  16.061 -1.3265  0.4733  0.7461
17435TIP3   OH273795   1.026   2.000   2.541 -0.5760 -0.1189  0.9746
17435TIP3    H173796   0.976   2.041   2.471  0.4525  0.3546  0.4943
17435TIP3    H273797   0.965   1.936   2.580 -0.6481 -1.6954 -1.4985
17436TIP3   OH273798   4.107   2.113  13.480 -0.1304 -0.5120 -0.2288
17436TIP3    H173799   4.030   2.156  13.444  0.1523  0.6389  0.4858
17436TIP3    H273800   4.089   2.020  13.470 -0.9425 -0.2466 -1.4427
17437TIP3   OH273801   6.339   4.169   2.197  0.6232 -0.0777 -0.7618
17437TIP3    H173802   6.283   4.193   2.123  0.2325  0.0506 -0.4337
17437TIP3    H273803   6.375   4.084   2.173 -0.2029 -0.4555 -0.7247
17438TIP3   OH273804   2.144   3.239   2.693  0.6001 -0.4854  0.8032
17438TIP3    H173805   2.232   3.245   2.656 -0.2992 -0.2337 -1.4935
17438TIP3    H273806   2.107   3.159   2.654  0.1910 -1.2762  2.7006
17439TIP3   OH273807   0.758   2.168   1.039 -0.4896  0.6044 -0.5867
17439TIP3    H173808   0.681   2.121   1.006 -0.3665 -0.2985  0.3474
17439TIP3    H273809   0.757   2.152   1.134  1.5141 -0.4721 -0.6874
17440TIP3   OH273810   0.188   4.764  16.286 -0.3583  0.2133  0.2604
17440TIP3    H173811   0.186   4.843  16.232 -0.5061  0.4529  0.6118
17440TIP3    H273812   0.254   4.783  16.353  0.6508 -0.5222 -0.4982
17441TIP3   OH273813   0.528   0.353  12.089 -0.0094  0.0095 -0.4494
17441TIP3    H173814   0.524   0.406  12.009 -0.9677  0.8438  0.1223
17441TIP3    H273815   0.601   0.390  12.138  1.6029 -1.4999 -1.5709
17442TIP3   OH273816   0.126   4.612  15.515  0.3447  0.3984  0.7794
17442TIP3    H173817   0.098   4.547  15.579  0.4859 -1.1560 -0.6733
17442TIP3    H273818   0.052   4.672  15.507 -0.6273 -0.8066  0.5918
17443TIP3   OH273819   3.206   3.285  11.858 -0.3581  0.2258 -0.3946
17443TIP3    H173820   3.278   3.232  11.823 -0.9338 -0.4736 -0.5248
17443TIP3    H273821   3.191   3.351  11.790 -0.0491  0.1871 -0.5051
17444TIP3   OH273822   3.161   2.633  11.654  0.1225 -0.0792  0.4160
17444TIP3    H173823   3.206   2.697  11.709 -0.0278  0.9893 -0.6593
17444TIP3    H273824   3.135   2.682  11.577 -0.6956 -1.2710 -0.0978
17445TIP3   OH273825   1.906   3.187  12.450  0.4987 -0.2189 -0.1568
17445TIP3    H173826   1.810   3.177  12.445  0.5281 -0.6149  0.0559
17445TIP3    H273827   1.940   3.110  12.403  0.7155 -0.1474 -0.1161
17446TIP3   OH273828   5.167   4.312   4.316  0.0753  0.0539 -0.5667
17446TIP3    H173829   5.206   4.304   4.404 -1.5203  0.6401  0.2348
17446TIP3    H273830   5.193   4.399   4.287  1.9718 -0.7357 -1.4213
17447TIP3   OH273831   0.390   5.353  11.234  0.3060  0.3982 -0.0443
17447TIP3    H173832   0.397   5.325  11.325  0.9851 -1.3329 -0.5662
17447TIP3    H273833   0.310   5.404  11.230 -0.2787 -0.3568  1.3221
17448TIP3   OH273834   4.896   1.254  11.091 -0.3903  0.3927  0.3107
17448TIP3    H173835   4.895   1.250  10.995  1.9787 -0.4230  0.2601
17448TIP3    H273836   4.886   1.163  11.118  0.4194  0.4371  0.7808
17449TIP3   OH273837   3.684   5.459  14.476 -0.2393 -0.2804 -0.0164
17449TIP3    H173838   3.769   5.488  14.443 -1.2633  0.4178 -2.2107
17449TIP3    H273839   3.690   5.363  14.477  0.4691 -0.2496 -0.3995
17450TIP3   OH273840   3.184   6.511  15.906 -0.0774  0.0020 -0.4844
17450TIP3    H173841   3.199   6.511  16.000  0.7824 -0.0810 -0.6169
17450TIP3    H273842   3.089   6.523  15.897 -0.2917 -0.9557  0.4006
17451TIP3   OH273843   2.663   4.955   5.880  0.0382  0.2530  0.0968
17451TIP3    H173844   2.570   4.940   5.894 -0.5970  0.7805 -2.8696
17451TIP3    H273845   2.666   5.034   5.826  2.0751 -0.8445 -1.4964
17452TIP3   OH273846   2.503   3.205   4.282  0.6949 -0.4618  0.3218
17452TIP3    H173847   2.485   3.241   4.369 -1.4921 -0.4329 -0.1006
17452TIP3    H273848   2.556   3.273   4.240 -1.0052  1.0831  0.5214
17453TIP3   OH273849   1.663   2.266  15.219  0.1535  0.0597  0.1282
17453TIP3    H173850   1.626   2.214  15.291 -0.5912  1.0643  0.4953
17453TIP3    H273851   1.660   2.208  15.143 -1.3947 -0.1834  0.3512
17454TIP3   OH273852   1.935   5.002  13.962 -0.0719 -0.2197 -0.0783
17454TIP3    H173853   1.998   5.002  14.034  0.3993  1.7950 -0.4361
17454TIP3    H273854   1.944   4.914  13.923 -0.3053 -1.3355  2.2324
17455TIP3   OH273855   5.662   1.415   6.128 -0.2577  0.0016  0.0139
17455TIP3    H173856   5.727   1.371   6.074 -1.6688 -0.8078 -1.0950
17455TIP3    H273857   5.706   1.494   6.159  2.0044 -1.6345  1.2513
17456TIP3   OH273858   2.675   2.987   1.450 -0.0465 -0.9196  0.0639
17456TIP3    H173859   2.730   3.010   1.375 -1.0383 -0.0444 -0.4228
17456TIP3    H273860   2.631   2.905   1.424  1.4068 -1.9267  0.6794
17457TIP3   OH273861   0.925   0.575  13.819 -0.1144  0.1927 -0.1276
17457TIP3    H173862   0.842   0.555  13.863  0.8135  0.2480  1.7076
17457TIP3    H273863   0.966   0.490  13.804 -0.8637  0.0832 -1.9094
17458TIP3   OH273864   1.767   6.452   5.818  0.3353  0.0256  0.6030
17458TIP3    H173865   1.821   6.458   5.896 -0.1453 -1.1567  1.0539
17458TIP3    H273866   1.753   6.358   5.805 -2.2469  0.2646  0.9754
17459TIP3   OH273867   6.371   1.020  15.865 -0.1263  0.0294 -0.0653
17459TIP3    H173868   6.342   0.932  15.840 -0.7200  0.1523  0.1988
17459TIP3    H273869   6.301   1.078  15.837  0.3870  0.4598 -0.4926
17460TIP3   OH273870   6.710   3.060   5.158  0.4821 -0.5567 -0.0216
17460TIP3    H173871   6.646   3.010   5.208 -1.6558  0.2038 -1.8537
17460TIP3    H273872   6.703   3.149   5.192 -0.6175 -0.1421 -1.2829
17461TIP3   OH273873   1.201   5.988  13.239  0.4901  0.2610  0.3590
17461TIP3    H173874   1.113   6.027  13.238  1.1456  1.8470 -1.1070
17461TIP3    H273875   1.186   5.895  13.249 -1.2700  0.6672  1.9677
17462TIP3   OH273876   6.492   2.001   4.257 -0.4553  0.5676  0.2411
17462TIP3    H173877   6.556   2.070   4.240 -0.9670  1.4408  1.6974
17462TIP3    H273878   6.437   2.036   4.327 -0.2436 -1.6222  1.5858
17463TIP3   OH273879   4.801   6.011  12.132 -0.8131 -0.0620 -0.6561
17463TIP3    H173880   4.713   6.010  12.094 -2.5581  0.4466  2.9131
17463TIP3    H273881   4.812   5.924  12.169 -1.0580  0.6592  1.2479
17464TIP3   OH273882   2.169   5.968  14.512 -0.0832 -0.1671  0.6365
17464TIP3    H173883   2.100   5.972  14.446  0.9679 -1.0906 -0.5698
17464TIP3    H273884   2.135   5.909  14.579 -0.0633 -1.4507 -0.4542
17465TIP3   OH273885   1.022   6.195   0.341  0.5748  0.0251  0.2312
17465TIP3    H173886   0.957   6.159   0.401  0.8177 -1.0342 -0.1156
17465TIP3    H273887   1.106   6.174   0.382  0.7856 -1.7536 -0.9939
17466TIP3   OH273888   5.558   6.447  13.506 -0.0627  0.3132 -0.0732
17466TIP3    H173889   5.464   6.437  13.522 -0.0297  0.2147  0.0567
17466TIP3    H273890   5.597   6.451  13.593  0.1792 -0.8474 -0.1129
17467TIP3   OH273891   0.582   1.817  17.258  0.2397  0.5513 -0.1082
17467TIP3    H173892   0.672   1.827  17.229 -0.3582  1.7229 -1.6794
17467TIP3    H273893   0.570   1.886  17.323  0.7289 -0.2566  0.8874
17468TIP3   OH273894   4.669   0.827   0.128 -0.0353 -0.0581 -0.1853
17468TIP3    H173895   4.698   0.839   0.038 -3.0209 -1.7885 -1.5275
17468TIP3    H273896   4.574   0.843   0.125  0.0584  2.2039  3.1907
17469TIP3   OH273897   1.498   1.200   3.419 -0.2395 -0.4545  0.1282
17469TIP3    H173898   1.571   1.172   3.474 -0.3454  2.2814  1.8716
17469TIP3    H273899   1.423   1.149   3.452  0.1388 -0.4249  1.0707
17470TIP3   OH273900   1.449   6.051   6.039  0.1002  0.4276 -0.6781
17470TIP3    H173901   1.494   6.100   6.107  0.3073  2.7244 -2.3504
17470TIP3    H273902   1.515   5.989   6.006  0.5086  0.4576  0.0732
17471TIP3   OH273903   4.672   3.167  12.094 -0.1054  0.4838 -0.1730
17471TIP3    H173904   4.766   3.172  12.078  0.0286 -1.2411 -0.1038
17471TIP3    H273905   4.640   3.107  12.027 -1.1673  0.9963 -0.1476
17472TIP3   OH273906   1.123   2.462  15.780 -0.2577 -0.2128 -0.0641
17472TIP3    H173907   1.051   2.452  15.718 -0.2825 -0.3054 -0.0205
17472TIP3    H273908   1.125   2.380  15.829  2.2952 -1.8739 -2.5998
17473TIP3   OH273909   5.150   3.025  12.154  0.0698 -0.3631 -0.3398
17473TIP3    H173910   5.059   3.050  12.134  0.5248  0.9488 -0.8558
17473TIP3    H273911   5.191   3.106  12.182  1.5703 -0.5257 -1.9122
17474TIP3   OH273912   3.855   2.140  10.968 -0.2224 -0.3999 -0.6346
17474TIP3    H173913   3.866   2.235  10.973 -1.2064 -0.2987 -0.1389
17474TIP3    H273914   3.810   2.125  10.885 -2.1272 -0.1979  0.3123
17475TIP3   OH273915   3.569   5.245  14.104  0.0663  0.0419 -0.1096
17475TIP3    H173916   3.520   5.171  14.068  0.7286 -0.6952  0.4785
17475TIP3    H273917   3.512   5.281  14.172 -0.5831  0.5625 -0.9106
17476TIP3   OH273918   4.464   2.732   2.004  0.2340  0.2696 -0.1505
17476TIP3    H173919   4.369   2.729   2.014  0.3929  0.6080  2.2124
17476TIP3    H273920   4.494   2.645   2.030  0.6496  0.8340  1.4362
17477TIP3   OH273921   3.783   3.306  12.948 -0.3943  0.9748  0.4295
17477TIP3    H173922   3.787   3.398  12.972 -1.3569  1.4758 -1.1355
17477TIP3    H273923   3.847   3.297  12.877  1.3602 -0.1271  2.0600
17478TIP3   OH273924   0.318   2.902  14.492 -0.2064  0.3652  0.6104
17478TIP3    H173925   0.294   2.883  14.402 -0.3703  0.0907  0.7095
17478TIP3    H273926   0.382   2.973  14.486  0.7246 -0.4717  0.1985
17479TIP3   OH273927   5.207   5.963  16.357 -0.0132  0.0989 -0.2484
17479TIP3    H173928   5.292   5.930  16.325 -0.2003 -1.7667  1.0445
17479TIP3    H273929   5.227   6.003  16.441 -0.2745  0.4978 -0.3768
17480TIP3   OH273930   5.279   5.285  13.119 -0.5310 -0.2374 -0.0544
17480TIP3    H173931   5.260   5.369  13.160 -0.1737  0.2664 -0.8870
17480TIP3    H273932   5.216   5.278  13.047 -0.4280 -0.5936 -0.1161
17481TIP3   OH273933   3.831   1.331  17.246  0.1323 -0.0836  0.0562
17481TIP3    H173934   3.915   1.356  17.208 -0.0428  2.1258  0.9647
17481TIP3    H273935   3.788   1.280  17.177  2.7231 -2.5741  0.0936
17482TIP3   OH273936   3.063   3.403  16.021 -0.0054 -0.2650  0.0568
17482TIP3    H173937   3.092   3.312  16.010 -3.8721 -1.7011  0.2941
17482TIP3    H273938   2.993   3.414  15.957 -0.7895  1.9860  1.1982
17483TIP3   OH273939   5.301   4.173   5.482  0.0169  0.0979 -0.2623
17483TIP3    H173940   5.322   4.197   5.572  0.3556  3.7518 -1.1500
17483TIP3    H273941   5.366   4.107   5.458  1.2203  0.5656  1.5438
17484TIP3   OH273942   5.518   5.784   2.832  0.4270 -0.4284 -0.2864
17484TIP3    H173943   5.426   5.810   2.823  0.9333  1.2800 -0.9128
17484TIP3    H273944   5.551   5.836   2.905  0.7076 -1.6599  0.4983
17485TIP3   OH273945   3.646   6.292  13.340 -0.0973 -0.4129 -0.5334
17485TIP3    H173946   3.699   6.231  13.290 -1.0781 -0.0349 -2.1158
17485TIP3    H273947   3.699   6.372  13.344  0.0587 -0.4993 -0.8358
17486TIP3   OH273948   6.105   2.170   5.807  0.3653 -0.7047 -0.5830
17486TIP3    H173949   6.052   2.221   5.746  0.4533 -0.0343 -0.1140
17486TIP3    H273950   6.117   2.228   5.882  0.8183 -1.2686 -0.2115
17487TIP3   OH273951   0.513   5.754   0.998 -0.4047  0.3528  0.1426
17487TIP3    H173952   0.535   5.678   1.052  2.3068  0.4247 -0.7509
17487TIP3    H273953   0.515   5.721   0.908 -2.6482  0.7518 -0.1175
17488TIP3   OH273954   4.024   4.660   0.821  0.1725 -0.5226  0.2768
17488TIP3    H173955   4.017   4.644   0.727  1.1388 -1.5816  0.3676
17488TIP3    H273956   4.063   4.748   0.827  1.4212 -1.0104 -0.3483
17489TIP3   OH273957   2.545   2.284   5.874  0.1245  0.1515 -0.1390
17489TIP3    H173958   2.618   2.265   5.815 -0.3554 -0.6087 -0.5057
17489TIP3    H273959   2.481   2.330   5.819 -0.2653 -0.4376 -0.1828
17490TIP3   OH273960   4.785   4.229   3.459 -0.2361 -0.0332  0.5989
17490TIP3    H173961   4.833   4.300   3.501  0.2723  1.3718 -2.0999
17490TIP3    H273962   4.701   4.268   3.434 -0.6814 -0.9285  0.6553
17491TIP3   OH273963   4.839   3.421  15.274 -0.4856 -0.0747 -0.1299
17491TIP3    H173964   4.898   3.347  15.292 -1.4520 -1.1135 -1.0537
17491TIP3    H273965   4.752   3.388  15.297 -0.9966  0.5818 -1.0781
17492TIP3   OH273966   4.476   4.087   3.660  0.6654 -0.4562  0.4919
17492TIP3    H173967   4.398   4.053   3.617 -0.1834 -0.0373  1.6255
17492TIP3    H273968   4.483   4.177   3.629 -1.2651  0.6174  2.7708
17493TIP3   OH273969   1.666   5.413   0.957 -0.2682  1.0709  0.8215
17493TIP3    H173970   1.674   5.460   0.874 -1.1917  0.8916  0.6277
17493TIP3    H273971   1.574   5.422   0.982 -0.0784  0.8280  1.6532
17494TIP3   OH273972   2.823   5.750   2.620  0.1737 -0.3482  0.2959
17494TIP3    H173973   2.738   5.751   2.575  0.6936  0.9031 -0.7271
17494TIP3    H273974   2.825   5.832   2.668  0.7835 -0.4114  0.3781
17495TIP3   OH273975   3.798   6.496   5.965 -0.4686  0.6006 -0.2311
17495TIP3    H173976   3.829   6.539   5.885  0.5391  1.1196  0.4130
17495TIP3    H273977   3.746   6.563   6.009  2.3628  1.8338  1.5343
17496TIP3   OH273978   1.907   6.527   2.156  0.3134  0.3533  0.2867
17496TIP3    H173979   1.886   6.619   2.139  0.9457  0.8741  2.0897
17496TIP3    H273980   1.843   6.478   2.105 -1.7863  1.8264  1.3349
17497TIP3   OH273981   3.995   3.406   1.335  0.3744 -0.3942 -0.2550
17497TIP3    H173982   4.066   3.345   1.357  0.3282  0.0842  1.4222
17497TIP3    H273983   3.963   3.435   1.421  0.1447  1.6933 -1.0147
17498TIP3   OH273984   6.724   5.040  16.516  0.1152  0.2477 -0.1771
17498TIP3    H173985   6.819   5.029  16.525  0.2768  0.4766 -1.4173
17498TIP3    H273986   6.690   5.033  16.606  0.9468 -2.8453  0.0099
17499TIP3   OH273987   3.319   4.528  10.680 -0.3065  0.0744  0.8299
17499TIP3    H173988   3.260   4.504  10.752  1.9455 -2.8310  1.9409
17499TIP3    H273989   3.299   4.465  10.611 -1.0967  1.5858 -0.3697
17500TIP3   OH273990   6.504   0.952  12.651 -0.1254  0.0120  0.6017
17500TIP3    H173991   6.438   0.908  12.598 -0.7121  0.4842  0.9396
17500TIP3    H273992   6.549   1.011  12.590 -1.7927  1.6800  0.9054
17501TIP3   OH273993   5.429   2.663  12.308 -0.3756 -0.3898 -0.0175
17501TIP3    H173994   5.391   2.699  12.228 -0.6189 -0.2891  0.1412
17501TIP3    H273995   5.445   2.739  12.364 -2.8333 -0.6246  1.1627
17502TIP3   OH273996   2.567   6.637  14.914 -0.1724 -0.4617 -0.3880
17502TIP3    H173997   2.634   6.581  14.877 -0.1107 -1.8356  1.6727
17502TIP3    H273998   2.606   6.673  14.994 -1.7830 -1.1957  0.7958
17503TIP3   OH273999   0.230   3.540   1.506 -0.6792  0.1699 -0.5708
17503TIP3    H174000   0.210   3.632   1.526 -0.0058  0.2394 -0.1971
17503TIP3    H274001   0.322   3.540   1.480 -0.1428 -0.6404  1.1846
17504TIP3   OH274002   0.441   0.193   1.542 -0.0513 -0.5288 -0.2056
17504TIP3    H174003   0.415   0.164   1.629  0.4540 -1.8357 -0.4636
17504TIP3    H274004   0.526   0.152   1.527  0.6702  1.0276 -0.6702
17505TIP3   OH274005   1.110   1.732  14.707 -0.1052 -0.9356 -0.5982
17505TIP3    H174006   1.084   1.651  14.750  0.4768 -1.3296 -0.9751
17505TIP3    H274007   1.175   1.705  14.642  1.2175  0.0009  0.2846
17506TIP3   OH274008   3.044   6.337   4.586  0.1929 -0.8266 -0.2897
17506TIP3    H174009   2.994   6.383   4.653 -1.2810 -1.8630 -0.6359
17506TIP3    H274010   3.104   6.281   4.635 -2.0323 -2.8590  0.2761
17507TIP3   OH274011   5.981   1.020   1.956  0.3593 -0.3817  0.3219
17507TIP3    H174012   5.894   1.059   1.947  1.0430  0.8324 -1.6998
17507TIP3    H274013   5.991   0.966   1.878  1.5762 -0.1244  0.2809
17508TIP3   OH274014   3.903   0.235  13.085 -0.2260 -0.1955  0.3518
17508TIP3    H174015   3.827   0.294  13.089 -1.1872 -1.2750 -0.9653
17508TIP3    H274016   3.978   0.291  13.105 -1.1546  1.3684 -0.3381
17509TIP3   OH274017   2.062   0.081   5.451 -0.2619 -0.4510 -0.2993
17509TIP3    H174018   1.969   0.080   5.476  0.0883 -0.0246  1.1377
17509TIP3    H274019   2.098   0.158   5.496  0.7577 -0.5054 -0.9864
17510TIP3   OH274020   3.033   1.256   3.263 -0.1824 -0.4148  0.3996
17510TIP3    H174021   3.045   1.307   3.182 -3.6104 -1.2399 -0.8010
17510TIP3    H274022   2.981   1.314   3.320  0.0757 -0.7719  1.0017
17511TIP3   OH274023   4.597   2.718  12.736 -0.3446  1.0886  0.2478
17511TIP3    H174024   4.570   2.684  12.651  0.8816  1.0449 -0.1467
17511TIP3    H274025   4.577   2.648  12.798 -1.1428  1.0774 -0.0160
17512TIP3   OH274026   1.341   1.529   1.922 -0.5892  0.1023 -0.2097
17512TIP3    H174027   1.404   1.499   1.858  0.4818  1.6274  0.0688
17512TIP3    H274028   1.308   1.449   1.964 -0.5205 -0.8388 -1.8907
17513TIP3   OH274029   6.413   5.027   5.326 -0.2478 -0.2155 -0.0835
17513TIP3    H174030   6.370   5.107   5.295  0.9751  0.4298 -0.1475
17513TIP3    H274031   6.446   5.049   5.413 -0.9120 -1.0376  0.3979
17514TIP3   OH274032   0.492   2.566   3.179  0.2955 -0.2577  0.0315
17514TIP3    H174033   0.571   2.528   3.219  1.0033  0.7653 -0.3352
17514TIP3    H274034   0.523   2.601   3.095 -0.1617  1.6655  0.6202
17515TIP3   OH274035   6.116   2.461   2.443 -0.5117  0.4484 -0.3571
17515TIP3    H174036   6.030   2.462   2.484 -0.6352 -0.3045 -0.5814
17515TIP3    H274037   6.100   2.432   2.353  0.0773 -0.6791 -0.1204
17516TIP3   OH274038   2.866   4.003  16.178  0.3724 -0.2102 -0.5132
17516TIP3    H174039   2.846   4.058  16.254  0.1349 -1.2651  0.2063
17516TIP3    H274040   2.787   4.006  16.124  0.3469  0.1141 -0.4613
17517TIP3   OH274041   5.868   4.096  15.323  0.1757 -0.7860  0.1642
17517TIP3    H174042   5.924   4.168  15.354 -0.7714  0.7270 -1.4485
17517TIP3    H274043   5.843   4.050  15.403  0.0763  1.2644  1.4047
17518TIP3   OH274044   5.935   2.994  14.956  0.3045  0.0168 -0.2708
17518TIP3    H174045   5.879   2.972  14.881 -1.1229  0.9656  0.4591
17518TIP3    H274046   5.940   2.913  15.007  1.3875 -0.6655 -1.4404
17519TIP3   OH274047   1.619   3.133   6.663  0.7297  0.5603  0.0055
17519TIP3    H174048   1.680   3.060   6.652  0.5573  0.3372  0.4937
17519TIP3    H274049   1.555   3.101   6.727 -0.0601  0.6876 -0.7082
17520TIP3   OH274050   5.180   6.217   1.964 -0.1711 -0.4683  0.0765
17520TIP3    H174051   5.270   6.210   1.932  0.5485  3.2387  0.7873
17520TIP3    H274052   5.188   6.209   2.059 -0.6391 -0.4088  0.1226
17521TIP3   OH274053   5.229   2.072  11.511 -0.4609  0.3953 -0.4935
17521TIP3    H174054   5.323   2.089  11.504 -0.3806  0.3672  0.3333
17521TIP3    H274055   5.198   2.069  11.421  0.5201 -0.6473 -0.8227
17522TIP3   OH274056   4.018   6.095   3.590  0.0301  0.2251 -0.0305
17522TIP3    H174057   4.038   6.146   3.669 -0.1588  0.3553 -0.0645
17522TIP3    H274058   3.956   6.150   3.541 -0.3163 -0.1206  0.0181
17523TIP3   OH274059   3.637   2.774   5.132 -0.8015  0.3551 -0.4742
17523TIP3    H174060   3.702   2.718   5.175 -2.0169  0.1334  1.1502
17523TIP3    H274061   3.629   2.850   5.190  0.2863  1.9307 -2.2695
17524TIP3   OH274062   2.068   0.339   0.651 -0.1472 -0.2802 -0.2760
17524TIP3    H174063   2.012   0.302   0.719 -0.1633  0.7862  0.3096
17524TIP3    H274064   2.009   0.392   0.597  0.3535  1.4203  0.7556
17525TIP3   OH274065   1.558   4.336  16.068 -0.1543 -0.6133 -0.3980
17525TIP3    H174066   1.553   4.424  16.032  0.7442 -0.3101  0.1914
17525TIP3    H274067   1.515   4.341  16.153  4.5429  0.6943  2.2166
17526TIP3   OH274068   2.607   1.213  17.032  0.6130 -0.2549  0.3142
17526TIP3    H174069   2.665   1.188  16.960 -1.9581 -1.3656 -1.5155
17526TIP3    H274070   2.600   1.134  17.085  2.0465  0.3953  1.5681
17527TIP3   OH274071   2.491   0.830  10.752 -0.3210  0.5700  0.2391
17527TIP3    H174072   2.546   0.847  10.828 -0.4758 -2.1951  1.0745
17527TIP3    H274073   2.404   0.813  10.788 -0.6566  0.3514 -0.6409
17528TIP3   OH274074   6.643   4.514   3.968 -0.2965  0.2316 -0.2230
17528TIP3    H174075   6.738   4.501   3.964 -0.4011 -0.2716 -1.3480
17528TIP3    H274076   6.609   4.429   3.997 -0.5540 -0.3520 -2.0914
17529TIP3   OH274077   0.155   2.386  13.250 -0.1333 -0.0177  0.2305
17529TIP3    H174078   0.063   2.371  13.225 -0.4022  0.1351  1.0917
17529TIP3    H274079   0.205   2.367  13.170 -0.8772 -0.5141 -0.1277
17530TIP3   OH274080   0.685   1.961  14.948  0.0019 -0.7801  0.0526
17530TIP3    H174081   0.609   1.970  14.891  0.6131  0.4052 -0.6291
17530TIP3    H274082   0.742   1.899  14.902 -0.1918 -1.0303  0.1510
17531TIP3   OH274083   0.017   6.421  16.834  0.1743 -0.0788  0.1520
17531TIP3    H174084   0.070   6.390  16.907  1.6280  0.5540 -0.5872
17531TIP3    H274085  -0.039   6.347  16.811  0.3500 -0.5898  1.3176
17532TIP3   OH274086   6.748   5.282   4.386 -0.4854  0.4712 -0.4040
17532TIP3    H174087   6.703   5.348   4.333 -1.6075 -0.9008 -1.2206
17532TIP3    H274088   6.691   5.205   4.382  0.2520 -0.2236  1.4145
17533TIP3   OH274089   6.467   5.496  11.608 -0.7878  0.0948 -0.3881
17533TIP3    H174090   6.464   5.401  11.614 -0.4181  0.1648  1.2569
17533TIP3    H274091   6.556   5.519  11.635 -1.2707  0.9752  0.5069
17534TIP3   OH274092   4.844   6.316  16.081 -0.0646  0.5047 -0.1230
17534TIP3    H174093   4.936   6.325  16.106  0.0772  0.1246 -0.4962
17534TIP3    H274094   4.815   6.235  16.124  0.2428 -0.2738 -1.3359
17535TIP3   OH274095   2.543   3.222  13.450 -0.4684 -0.6271  0.6095
17535TIP3    H174096   2.575   3.309  13.427 -2.0068  0.0942  1.0470
17535TIP3    H274097   2.574   3.166  13.379 -1.3013  0.6913 -0.8719
17536TIP3   OH274098   1.798   3.234  12.181  0.0226 -0.2823  0.0116
17536TIP3    H174099   1.758   3.166  12.236 -0.2793  0.5524  0.8321
17536TIP3    H274100   1.761   3.316  12.212  0.4175  0.2804 -0.9470
17537TIP3   OH274101   0.152   1.312   3.293 -0.1477  0.4835 -0.2662
17537TIP3    H174102   0.091   1.272   3.356 -0.1589 -1.6586 -1.5371
17537TIP3    H274103   0.101   1.380   3.250  0.1445  2.7337  2.6214
17538TIP3   OH274104   5.102   4.985   4.512 -0.1801 -0.2640  0.1644
17538TIP3    H174105   5.171   4.981   4.577  1.0240  0.2287 -1.0334
17538TIP3    H274106   5.025   4.948   4.556  0.9046 -1.1089  1.4368
17539TIP3   OH274107   6.203   5.996   6.409  0.3589 -0.9521 -0.0243
17539TIP3    H174108   6.226   6.082   6.442 -1.0502 -1.1324  1.5526
17539TIP3    H274109   6.287   5.953   6.392  1.0782  0.7886 -1.1134
17540TIP3   OH274110   5.367   1.947   4.407  0.7203 -0.1697 -0.3148
17540TIP3    H174111   5.321   1.875   4.365  1.3718 -1.3021  0.8476
17540TIP3    H274112   5.339   2.025   4.358 -0.9526 -1.0332 -0.8229
17541TIP3   OH274113   5.309   6.587   1.812  0.1858  0.0820  0.0253
17541TIP3    H174114   5.303   6.594   1.907 -0.1354 -3.0827  0.3588
17541TIP3    H274115   5.218   6.592   1.782  0.2571  0.7301 -0.0897
17542TIP3   OH274116   4.285   4.890  12.651  0.4366 -0.3616 -0.0005
17542TIP3    H174117   4.224   4.828  12.611  0.2644 -2.1458  2.7485
17542TIP3    H274118   4.236   4.927  12.724  0.8476  2.4715 -1.0603
17543TIP3   OH274119   3.962   4.326   1.858 -0.2342  0.5374  0.0092
17543TIP3    H174120   4.008   4.294   1.781 -0.8028  1.2481 -0.6360
17543TIP3    H274121   3.969   4.421   1.853  1.5266  0.5859  1.9642
17544TIP3   OH274122   0.645   4.096  15.062 -0.4890  0.1931  0.3410
17544TIP3    H174123   0.734   4.089  15.027 -0.4074  0.6060  0.4590
17544TIP3    H274124   0.647   4.175  15.116 -1.3981  1.2780 -1.1335
17545TIP3   OH274125   3.723   3.941  15.743  0.3041 -0.5590 -0.3593
17545TIP3    H174126   3.666   3.922  15.818  2.0075  0.8471  1.3979
17545TIP3    H274127   3.796   3.879  15.752  0.4430 -0.4896 -0.9587
17546TIP3   OH274128   3.342   1.982  16.979  0.5393 -0.0837  0.1594
17546TIP3    H174129   3.328   1.928  16.901 -1.7463  0.4688  0.1337
17546TIP3    H274130   3.279   1.950  17.042  0.1706  1.5666  0.6677
17547TIP3   OH274131   1.499   5.274  14.029 -0.1479 -0.5639  0.3226
17547TIP3    H174132   1.551   5.238  14.101  0.7674 -2.6898 -1.3066
17547TIP3    H274133   1.561   5.330  13.981  0.1853 -1.7085 -0.6173
17548TIP3   OH274134   6.076   4.811   4.620  0.2226  0.0853  0.4263
17548TIP3    H174135   6.144   4.744   4.621  1.9656  1.7927  0.9146
17548TIP3    H274136   6.076   4.843   4.530 -0.4480 -0.3702  0.2531
17549TIP3   OH274137   6.597   4.806  14.256 -0.0389 -0.1025 -0.5598
17549TIP3    H174138   6.661   4.735  14.249 -0.0767 -0.0950 -0.9682
17549TIP3    H274139   6.622   4.868  14.187 -0.7174 -0.2781 -0.9655
17550TIP3   OH274140   0.272   1.521  16.032  0.1816 -0.2704  0.1232
17550TIP3    H174141   0.280   1.504  15.938 -0.9938  0.2500 -0.0795
17550TIP3    H274142   0.325   1.452  16.073  2.3915  0.6964 -0.9605
17551TIP3   OH274143   3.735   2.574   1.591 -0.0719  0.5036  0.1932
17551TIP3    H174144   3.758   2.534   1.674  0.8770  0.5405 -0.0435
17551TIP3    H274145   3.689   2.505   1.543  0.3416  0.1331  0.3245
17552TIP3   OH274146   4.369   2.797  12.376  0.0156 -0.0890  0.6907
17552TIP3    H174147   4.302   2.856  12.412 -0.9416  0.4336 -1.7858
17552TIP3    H274148   4.443   2.855  12.356  0.5578 -0.3846  1.7464
17553TIP3   OH274149   6.076   5.708  16.919  0.0341  0.5577  0.2272
17553TIP3    H174150   5.983   5.689  16.928 -0.3082  1.9802 -0.0301
17553TIP3    H274151   6.089   5.789  16.968  0.8954  0.9739 -0.6385
17554TIP3   OH274152   3.166   2.517  13.422  0.0417  0.7810 -0.1595
17554TIP3    H174153   3.121   2.434  13.436  0.5504  0.6982  1.0747
17554TIP3    H274154   3.111   2.582  13.465 -0.0818  1.0193 -0.6659
17555TIP3   OH274155   0.673   3.934   3.895  0.6183  0.1150 -0.1174
17555TIP3    H174156   0.641   3.978   3.816 -0.7450  0.8310  0.7970
17555TIP3    H274157   0.704   3.849   3.864 -0.0867  0.2983 -1.3971
17556TIP3   OH274158   0.783   2.732  13.886 -0.0054 -0.3737  0.1643
17556TIP3    H174159   0.761   2.789  13.811  0.6823 -0.8772 -0.4283
17556TIP3    H274160   0.736   2.771  13.959 -2.0889 -0.8301 -0.8519
17557TIP3   OH274161   6.671   3.611   0.227 -0.4390 -0.2301  0.2979
17557TIP3    H174162   6.589   3.658   0.214 -1.1508 -1.6839 -0.8499
17557TIP3    H274163   6.669   3.584   0.319 -0.9369  0.2912  0.4413
17558TIP3   OH274164   2.230   0.125   2.859 -0.1149 -0.4806  0.2913
17558TIP3    H174165   2.258   0.214   2.839  1.3941 -1.1881 -1.0472
17558TIP3    H274166   2.287   0.097   2.931 -0.4363 -0.4405  0.5630
17559TIP3   OH274167   1.631   4.686   1.932  0.0830 -0.0348 -0.2689
17559TIP3    H174168   1.668   4.728   2.010 -0.1494 -1.0903  0.4350
17559TIP3    H274169   1.630   4.592   1.953  0.2790 -0.3776 -1.6598
17560TIP3   OH274170   2.320   2.764   5.421  0.4971  0.7464  0.0168
17560TIP3    H174171   2.233   2.761   5.463  0.8456  2.5497  1.0046
17560TIP3    H274172   2.378   2.798   5.489  2.1096 -0.8503 -0.4866
17561TIP3   OH274173   6.438   1.292   2.707  0.7130  0.7403 -0.0410
17561TIP3    H174174   6.367   1.352   2.686  0.6580  0.8074  0.3376
17561TIP3    H274175   6.427   1.272   2.800 -0.5104 -1.4960 -0.6038
17562TIP3   OH274176   0.529   0.877  11.307 -0.0897 -0.0716 -0.0995
17562TIP3    H174177   0.559   0.812  11.370 -0.0394 -0.4434 -0.4974
17562TIP3    H274178   0.606   0.930  11.289 -0.7383  1.8420  2.2356
17563TIP3   OH274179   4.641   3.102  10.882 -0.0056  0.3570 -0.1620
17563TIP3    H174180   4.593   3.128  10.804  0.8691  0.2720 -0.7421
17563TIP3    H274181   4.681   3.018  10.859 -0.6825 -0.2422  0.7862
17564TIP3   OH274182   2.499   5.531   3.233 -0.0273  0.6396 -0.5303
17564TIP3    H174183   2.577   5.558   3.282 -0.4551  2.3076 -0.7012
17564TIP3    H274184   2.532   5.509   3.145  0.2068  1.8824 -0.7710
17565TIP3   OH274185   5.624   4.485  12.067  0.3505 -0.7217 -1.2949
17565TIP3    H174186   5.642   4.537  11.990  1.3540  0.6108 -0.2020
17565TIP3    H274187   5.608   4.549  12.137 -3.2656 -1.8122 -0.9020
17566TIP3   OH274188   5.204   0.386   0.771  0.6926  0.2102  0.0171
17566TIP3    H174189   5.266   0.328   0.817  0.0468  0.0708  0.7303
17566TIP3    H274190   5.122   0.376   0.819  0.7034  2.1473  0.4802
17567TIP3   OH274191   1.382   6.358  12.217 -0.1962  0.0360  0.4207
17567TIP3    H174192   1.392   6.285  12.278 -1.4776 -0.3516  0.2010
17567TIP3    H274193   1.446   6.423  12.246  1.0289 -1.1928  0.5740
17568TIP3   OH274194   2.521   0.606  11.816  0.4088  0.2193 -0.0323
17568TIP3    H174195   2.616   0.596  11.817  0.3168 -0.6613 -0.0869
17568TIP3    H274196   2.503   0.662  11.740  0.7115 -1.4750 -1.3986
17569TIP3   OH274197   6.221   0.510  13.257 -0.7335  0.5460  0.0174
17569TIP3    H174198   6.280   0.436  13.243 -2.2644 -1.1698  1.9905
17569TIP3    H274199   6.278   0.582  13.282  0.6858 -0.4110 -0.3598
17570TIP3   OH274200   1.753   6.726  13.366 -0.2636 -0.5129 -0.0915
17570TIP3    H174201   1.752   6.746  13.460  0.3792 -0.6021 -0.0630
17570TIP3    H274202   1.676   6.771  13.331 -0.4648 -0.4173  0.4665
17571TIP3   OH274203   6.567   5.746  14.730 -0.0498  0.1953 -0.6789
17571TIP3    H174204   6.644   5.803  14.722  1.5192 -1.5107  1.1482
17571TIP3    H274205   6.562   5.726  14.823  0.0381 -3.3054 -1.3074
17572TIP3   OH274206   3.202   5.673  17.209  0.0861 -0.4292  0.2920
17572TIP3    H174207   3.227   5.761  17.238 -0.1406 -0.7399  1.4459
17572TIP3    H274208   3.108   5.667  17.229 -0.0103 -0.7607 -0.2413
17573TIP3   OH274209   0.186   2.674   4.239 -0.2228  0.0172  0.5587
17573TIP3    H174210   0.124   2.719   4.181 -1.1772  0.7526  2.0819
17573TIP3    H274211   0.262   2.733   4.242  0.8203 -1.1004 -1.6706
17574TIP3   OH274212   5.545   2.493   1.291  0.0329  0.4250 -0.3815
17574TIP3    H174213   5.631   2.520   1.322 -0.2096 -0.4371  1.1161
17574TIP3    H274214   5.490   2.570   1.303  0.4573  0.8042 -0.8254
17575TIP3   OH274215   3.915   5.875  12.021  0.8087 -0.6410  0.1517
17575TIP3    H174216   3.911   5.921  12.105 -0.1823 -0.5999  0.0869
17575TIP3    H274217   3.964   5.795  12.041  0.1403 -0.8771  0.8880
17576TIP3   OH274218   0.503   5.390  11.919  0.2644 -0.2240  0.0072
17576TIP3    H174219   0.553   5.363  11.841 -0.4284  2.1180 -1.3695
17576TIP3    H274220   0.569   5.428  11.977  0.9212 -2.7685  1.0467
17577TIP3   OH274221   1.557   0.234   2.017 -0.6108 -0.2158 -0.2333
17577TIP3    H174222   1.566   0.153   1.966  1.0753 -0.4498  0.3567
17577TIP3    H274223   1.613   0.297   1.972 -2.2331  0.7887 -0.9229
17578TIP3   OH274224   2.897   3.815   6.267 -0.5643  0.0060  0.4803
17578TIP3    H174225   2.840   3.744   6.239 -1.6953  1.0347  0.1133
17578TIP3    H274226   2.890   3.815   6.363 -2.2360  0.9521  0.3861
17579TIP3   OH274227   0.424   3.855  13.972  0.1844 -0.0094 -0.1491
17579TIP3    H174228   0.363   3.806  13.917 -0.2595  0.0537  0.2765
17579TIP3    H274229   0.491   3.887  13.912  1.2901 -2.3212 -0.2601
17580TIP3   OH274230   2.784   4.015  12.872 -1.0363  0.7415  0.1822
17580TIP3    H174231   2.878   4.012  12.856 -1.2016 -2.0426 -0.8639
17580TIP3    H274232   2.759   4.106  12.854  1.1002  1.0354 -1.6973
17581TIP3   OH274233   3.229   1.766   3.309  0.1133  0.0759  0.0775
17581TIP3    H174234   3.151   1.742   3.359  0.0028 -1.1026 -0.6250
17581TIP3    H274235   3.272   1.682   3.290  0.5113  0.5510 -1.2190
17582TIP3   OH274236   2.310   2.206  13.733 -0.4126  0.1415 -0.5172
17582TIP3    H174237   2.376   2.182  13.668  1.2538  0.1978  1.0806
17582TIP3    H274238   2.230   2.217  13.683  1.1708  1.9724 -2.8397
17583TIP3   OH274239   1.566   4.007   0.062  0.5300 -0.2789  0.5587
17583TIP3    H174240   1.615   4.043   0.136  0.9969 -0.4161  0.3240
17583TIP3    H274241   1.625   3.941   0.024  0.7690  0.5765 -0.6206
17584TIP3   OH274242   1.501   2.069   2.729 -0.0042 -0.8761  0.4025
17584TIP3    H174243   1.410   2.098   2.732 -0.3682 -1.9991  0.5711
17584TIP3    H274244   1.497   1.979   2.699  0.9093 -1.5071  2.0462
17585TIP3   OH274245   1.207   2.583   1.348  0.3537 -0.4252 -0.1931
17585TIP3    H174246   1.157   2.517   1.301  0.0438 -1.5410  1.5944
17585TIP3    H274247   1.241   2.537   1.425  1.3922  1.1356  0.3425
17586TIP3   OH274248   6.710   3.347   5.639  0.1852 -0.0375 -0.2610
17586TIP3    H174249   6.720   3.407   5.713  0.0583 -1.0188  0.5816
17586TIP3    H274250   6.647   3.282   5.669  0.6143 -0.8173 -0.9963
17587TIP3   OH274251   5.305   4.548   4.176  0.2736  0.1052  0.3037
17587TIP3    H174252   5.253   4.594   4.110  4.1215  4.0825 -0.3695
17587TIP3    H274253   5.380   4.513   4.127  1.6620  0.4521  2.0892
17588TIP3   OH274254   0.628   2.879   4.560 -0.0197 -0.1670  0.0071
17588TIP3    H174255   0.705   2.910   4.608  1.3476 -1.1932 -1.4323
17588TIP3    H274256   0.598   2.956   4.512  0.3183  0.1538  0.2953
17589TIP3   OH274257   2.270   2.377   1.127  0.0349  0.0506  0.4513
17589TIP3    H174258   2.320   2.300   1.100 -0.4048  0.0796 -0.4547
17589TIP3    H274259   2.227   2.350   1.209  2.7137  0.5158  2.1509
17590TIP3   OH274260   2.688   2.823   4.482 -0.0110  0.0345 -0.4399
17590TIP3    H174261   2.720   2.762   4.548 -0.4545  0.7763  0.4948
17590TIP3    H274262   2.636   2.887   4.531  0.5652  1.2634 -1.3529
17591TIP3   OH274263   3.825   4.763   4.666 -0.1573 -0.1171  0.2576
17591TIP3    H174264   3.838   4.712   4.586 -0.2068  1.2000 -0.6236
17591TIP3    H274265   3.856   4.705   4.736  0.7254 -0.9728 -0.7902
17592TIP3   OH274266   3.174   2.775   3.433  0.4702  0.8267  0.4095
17592TIP3    H174267   3.190   2.772   3.339  3.4295 -3.6498  0.7665
17592TIP3    H274268   3.258   2.750   3.472 -1.8432 -2.6173  3.8887
17593TIP3   OH274269   3.750   5.193   0.384 -0.7101  0.2155 -0.2135
17593TIP3    H174270   3.702   5.247   0.446 -2.2384 -2.0995  0.7704
17593TIP3    H274271   3.807   5.138   0.439  1.8422  1.6350 -1.2512
17594TIP3   OH274272   2.575   2.416   6.096  0.8461  0.3052 -0.0744
17594TIP3    H174273   2.588   2.344   6.158 -0.6749 -1.4580 -1.6606
17594TIP3    H274274   2.555   2.372   6.013 -1.7233  2.5377 -0.7684
17595TIP3   OH274275   0.165   4.344  17.231  0.4006  0.4194  0.3597
17595TIP3    H174276   0.085   4.334  17.180 -0.0162  0.2368  1.0435
17595TIP3    H274277   0.146   4.413  17.295 -0.1363 -1.3786  2.2511
17596TIP3   OH274278   6.392   2.077  12.487  0.2326  0.2219  0.4342
17596TIP3    H174279   6.346   2.091  12.404 -1.7963  0.5091  1.5379
17596TIP3    H274280   6.427   1.988  12.481  0.4082  0.3575 -0.8383
17597TIP3   OH274281   2.847   4.928   6.058  0.7047 -0.1322 -0.0406
17597TIP3    H174282   2.791   4.942   6.134  0.7095 -2.1068  0.3648
17597TIP3    H274283   2.789   4.940   5.983  0.6559  1.6185  0.2317
17598TIP3   OH274284   3.854   1.122   3.143 -0.0764  0.2730  0.3572
17598TIP3    H174285   3.884   1.207   3.113  0.4440  0.1465  0.5054
17598TIP3    H274286   3.934   1.073   3.160 -0.2642  0.7607  3.1592
17599TIP3   OH274287   1.367   0.216   2.503  0.2414 -0.1556 -0.2909
17599TIP3    H174288   1.301   0.264   2.453  0.9373  1.0127 -0.1215
17599TIP3    H274289   1.320   0.140   2.537 -0.4506 -0.5763 -2.0524
17600TIP3   OH274290   6.632   0.291   5.494 -0.3515 -0.6906 -0.3927
17600TIP3    H174291   6.703   0.350   5.519  0.3057 -0.3799 -2.7700
17600TIP3    H274292   6.622   0.232   5.568  1.1201  0.4275  0.7453
17601TIP3   OH274293   1.769   4.478  15.683  0.2777  0.3282  0.9832
17601TIP3    H174294   1.764   4.448  15.592 -0.5699  1.9946  0.4332
17601TIP3    H274295   1.779   4.398  15.734 -1.4402 -0.8742 -0.4211
17602TIP3   OH274296   6.751   3.919   0.516 -0.2867  0.5193 -0.3265
17602TIP3    H174297   6.813   3.862   0.561 -0.5204  1.4974  1.3106
17602TIP3    H274298   6.673   3.918   0.571 -0.7122  1.5173 -0.8751
17603TIP3   OH274299   6.703   4.319   2.567  0.2766  0.0272 -0.8898
17603TIP3    H174300   6.776   4.381   2.563  0.7036 -0.4680 -0.8353
17603TIP3    H274301   6.663   4.335   2.652  1.8987 -1.4415  0.2241
17604TIP3   OH274302   1.790   5.633   3.592 -0.0437  0.7132 -0.0419
17604TIP3    H174303   1.818   5.713   3.547  0.0695 -0.2036 -1.6734
17604TIP3    H274304   1.709   5.608   3.549 -1.0073  0.8390  1.5984
17605TIP3   OH274305   6.736   5.040  14.825  0.1488  0.2681 -0.9318
17605TIP3    H174306   6.816   5.000  14.858 -0.3786 -0.3778 -0.3946
17605TIP3    H274307   6.759   5.131  14.808  0.9253  0.1529 -0.5334
17606TIP3   OH274308   1.382   3.099  12.662 -0.3521  0.0956 -0.5786
17606TIP3    H174309   1.374   3.049  12.743 -2.0361  0.6364 -0.3554
17606TIP3    H274310   1.383   3.191  12.690  1.7498  0.2452 -1.0357
17607TIP3   OH274311   0.755   0.116   4.391  0.3918  0.0300  0.3800
17607TIP3    H174312   0.812   0.169   4.448 -1.1048  1.5432  0.5610
17607TIP3    H274313   0.708   0.058   4.451  0.6185 -0.1400  0.3959
17608TIP3   OH274314   1.590   2.087  16.288 -0.9916 -0.1386 -0.1135
17608TIP3    H174315   1.660   2.039  16.243 -0.9212 -1.7576  1.6178
17608TIP3    H274316   1.592   2.174  16.249  1.6121 -0.3138 -0.5084
17609TIP3   OH274317   3.208   6.545   0.144 -0.3619  0.1415 -0.4246
17609TIP3    H174318   3.286   6.492   0.157  1.6721  3.0548  0.0964
17609TIP3    H274319   3.195   6.548   0.049  1.2065  1.0075 -0.6289
17610TIP3   OH274320   6.428   1.875   3.322  0.3520  0.1067  0.5118
17610TIP3    H174321   6.482   1.818   3.377 -1.7175 -3.6749 -0.9909
17610TIP3    H274322   6.483   1.895   3.247  0.9822 -0.3821  0.8239
17611TIP3   OH274323   4.727   4.951  15.874  0.2924 -0.3939 -0.3949
17611TIP3    H174324   4.770   4.868  15.893  1.6242  0.2389 -0.4916
17611TIP3    H274325   4.684   4.938  15.789 -0.6524 -1.3787  0.2157
17612TIP3   OH274326   0.462   3.888  16.197  0.3885  0.0011 -0.4886
17612TIP3    H174327   0.482   3.936  16.116  0.8001  2.5963  1.0490
17612TIP3    H274328   0.540   3.899  16.251 -0.0542 -1.3132  0.4731
17613TIP3   OH274329   2.999   1.630   4.345 -0.2358 -0.1537  0.4269
17613TIP3    H174330   3.031   1.597   4.429 -0.0986  0.0206  0.4436
17613TIP3    H274331   3.066   1.693   4.317  0.0286 -0.6648 -0.1103
17614TIP3   OH274332   6.283   4.373   0.650  0.2312  0.0766  0.1720
17614TIP3    H174333   6.212   4.431   0.623 -0.0290 -0.9512 -1.4411
17614TIP3    H274334   6.338   4.364   0.573  0.1312 -1.9856  0.2863
17615TIP3   OH274335   6.631   6.751   3.509 -0.1912  0.0637 -0.2371
17615TIP3    H174336   6.685   6.780   3.436  0.8520 -0.2682  0.3864
17615TIP3    H274337   6.575   6.683   3.472  0.8268 -0.6055 -0.5790
17616TIP3   OH274338   6.699   0.606  15.524  0.2424  0.3314 -0.3128
17616TIP3    H174339   6.723   0.693  15.557  1.3141  0.7306 -2.0421
17616TIP3    H274340   6.780   0.571  15.487 -0.3271 -1.1649 -0.2104
17617TIP3   OH274341   0.453   3.905   1.576 -0.0117  0.4151  0.4016
17617TIP3    H174342   0.473   3.998   1.575 -0.0604  0.4537  1.5402
17617TIP3    H274343   0.532   3.863   1.541 -0.1008  0.8854 -0.3834
17618TIP3   OH274344   1.823   4.161  11.270  0.6605 -0.0654  0.2684
17618TIP3    H174345   1.729   4.144  11.267  0.4544  0.9138  1.0163
17618TIP3    H274346   1.845   4.188  11.181  0.2659 -0.4253  0.0559
17619TIP3   OH274347   6.080   4.102  14.782  0.1552  0.4770 -0.1013
17619TIP3    H174348   6.068   4.082  14.875 -0.4735  1.3159  0.0067
17619TIP3    H274349   6.171   4.078  14.764  0.6664  1.4887  1.0481
17620TIP3   OH274350   1.676   1.494  12.747 -0.2412  0.2274 -0.0076
17620TIP3    H174351   1.634   1.477  12.662  1.1818  0.1492 -0.7152
17620TIP3    H274352   1.723   1.577  12.734 -0.4560  0.4977  0.8859
17621TIP3   OH274353   2.203   2.231   1.976  0.6009 -0.1700  0.7018
17621TIP3    H174354   2.258   2.257   1.902 -0.3563  0.3978  0.1769
17621TIP3    H274355   2.192   2.311   2.026 -0.4889 -0.0625  0.3110
17622TIP3   OH274356   0.574   1.306  13.822  0.5368  0.0573  0.2672
17622TIP3    H174357   0.495   1.323  13.873  1.0390  0.8452  0.8049
17622TIP3    H274358   0.641   1.362  13.862  1.1598  0.0377 -0.7132
17623TIP3   OH274359   1.157   1.314  16.692  0.2103  0.1650 -0.0082
17623TIP3    H174360   1.085   1.377  16.687  0.7761  0.9600  1.4128
17623TIP3    H274361   1.125   1.237  16.644 -0.8035  1.2250 -1.0871
17624TIP3   OH274362   5.150   1.691  14.647  0.5726 -0.5986  0.7568
17624TIP3    H174363   5.094   1.640  14.587 -1.7119  1.1325  1.3103
17624TIP3    H274364   5.219   1.726  14.590 -0.3285 -0.7332 -0.4690
17625TIP3   OH274365   1.897   3.473  16.395 -0.2930 -0.2694 -0.2622
17625TIP3    H174366   1.916   3.422  16.317 -0.1713 -1.7088  0.6622
17625TIP3    H274367   1.804   3.462  16.410  0.1828 -2.7267  1.5443
17626TIP3   OH274368   5.645   0.148   5.202 -0.6122  0.0468 -0.6346
17626TIP3    H174369   5.561   0.173   5.241 -0.1919  1.8067 -0.7727
17626TIP3    H274370   5.621   0.102   5.121 -1.4528 -2.1636  0.7860
17627TIP3   OH274371   5.940   6.737  15.836  0.1186 -0.1131  0.2679
17627TIP3    H174372   5.977   6.789  15.908  0.9887  0.4475 -0.5517
17627TIP3    H274373   5.847   6.758  15.836 -0.2139 -1.3663  2.2400
17628TIP3   OH274374   2.513   1.588  13.272 -0.3779 -0.5197 -0.1029
17628TIP3    H174375   2.471   1.563  13.354  1.2297 -0.9387  0.6325
17628TIP3    H274376   2.495   1.515  13.213 -1.5708 -0.2005 -0.1682
17629TIP3   OH274377   5.397   3.908  12.955  0.4318  0.3430 -0.2418
17629TIP3    H174378   5.407   3.815  12.936  0.0382  0.0281  0.9909
17629TIP3    H274379   5.470   3.950  12.910  0.3079 -0.4940 -1.2486
17630TIP3   OH274380   4.152   6.597  14.896  0.3228 -0.0516  0.7980
17630TIP3    H174381   4.134   6.517  14.847  0.0161 -0.2303  1.1897
17630TIP3    H274382   4.204   6.651  14.837 -1.7849  0.6398 -0.5243
17631TIP3   OH274383   5.037   1.504  13.003  0.4894 -0.4346 -0.3240
17631TIP3    H174384   4.969   1.446  13.038 -1.4691  1.1365 -1.3576
17631TIP3    H274385   5.090   1.526  13.079 -0.9857 -0.6131  0.8145
17632TIP3   OH274386   0.092   5.827  11.737 -0.3562  0.1025 -0.2775
17632TIP3    H174387   0.085   5.762  11.667 -1.9940  1.0287 -1.0106
17632TIP3    H274388   0.154   5.892  11.703  0.5850 -0.5765  0.0889
17633TIP3   OH274389   3.068   4.962   1.260 -0.1015 -0.1943 -0.1640
17633TIP3    H174390   3.051   4.869   1.249 -0.2290 -0.2422  0.3974
17633TIP3    H274391   3.031   4.983   1.346  1.9476 -0.1403  0.7737
17634TIP3   OH274392   1.760   4.856  17.081  0.1048 -1.0371 -0.6445
17634TIP3    H174393   1.782   4.764  17.064  2.0451 -0.9161  0.8171
17634TIP3    H274394   1.808   4.877  17.161  0.4880  1.5310 -1.4710
17635TIP3   OH274395   2.042   0.768  15.226  0.1208 -0.5224  0.3004
17635TIP3    H174396   2.007   0.733  15.144  1.2560 -1.0843  0.0385
17635TIP3    H274397   2.115   0.824  15.199 -0.1242  0.0957  0.8790
17636TIP3   OH274398   6.202   5.585   4.620  0.0119  0.3997  0.1003
17636TIP3    H174399   6.242   5.641   4.686  0.7630 -0.3256  0.2890
17636TIP3    H274400   6.109   5.607   4.622  0.2190  1.2751  0.5052
17637TIP3   OH274401   2.722   1.735  15.053  0.3467  0.8732  0.7444
17637TIP3    H174402   2.713   1.674  15.126 -2.0097 -1.4029 -1.2648
17637TIP3    H274403   2.640   1.785  15.055 -0.3121 -0.0720 -0.9825
17638TIP3   OH274404   0.548   0.846   3.628 -0.4951  0.2995 -0.3142
17638TIP3    H174405   0.562   0.875   3.538  1.2293  0.8051  0.0729
17638TIP3    H274406   0.458   0.872   3.648 -1.2646 -0.6764 -2.1762
17639TIP3   OH274407   4.629   1.098  13.792  0.1830 -0.4618 -0.3314
17639TIP3    H174408   4.681   1.060  13.722  0.8792 -0.4663  0.1860
17639TIP3    H274409   4.596   1.023  13.841  1.1583 -0.4285  0.3992
17640TIP3   OH274410   5.040   3.200   4.298 -0.1993  0.1258 -0.0706
17640TIP3    H174411   4.969   3.148   4.336 -2.2315  0.2683 -3.2941
17640TIP3    H274412   5.000   3.284   4.276  0.4630 -0.2355 -3.1933
17641TIP3   OH274413   6.680   0.343   1.398 -0.0757  0.2560 -0.2345
17641TIP3    H174414   6.712   0.289   1.326  2.1443  3.1882 -1.6949
17641TIP3    H274415   6.585   0.341   1.391  0.0636 -0.7144 -2.3380
17642TIP3   OH274416   2.799   1.192   6.238 -0.0039  0.2159 -0.5407
17642TIP3    H174417   2.735   1.230   6.299  1.2768  1.0564  0.3411
17642TIP3    H274418   2.769   1.219   6.151 -1.1633  0.0665 -0.2105
17643TIP3   OH274419   1.223   5.871   3.597 -0.6784  0.0320  0.2032
17643TIP3    H174420   1.267   5.937   3.650  0.6774 -0.4815 -0.2278
17643TIP3    H274421   1.167   5.824   3.658  1.7501 -1.3583  1.5380
17644TIP3   OH274422   5.036   6.552  12.305 -0.7049 -0.0017 -0.6218
17644TIP3    H174423   5.079   6.504  12.375  0.8652  0.7976 -0.9683
17644TIP3    H274424   5.109   6.587  12.252 -1.7993  1.1812 -1.4192
17645TIP3   OH274425   4.779   0.387  16.068  0.0690  0.1852 -1.0156
17645TIP3    H174426   4.728   0.392  16.149  1.8125 -0.7342  0.2133
17645TIP3    H274427   4.788   0.478  16.040  2.6046  1.0514  1.9968
17646TIP3   OH274428   5.663   2.992   2.552  0.0637  0.0675  0.4911
17646TIP3    H174429   5.716   2.919   2.519  0.7519 -0.8561  3.3720
17646TIP3    H274430   5.591   2.998   2.489  0.8566 -2.0210 -0.7477
17647TIP3   OH274431   5.384   6.293   3.265 -0.0232 -0.2881  0.6195
17647TIP3    H174432   5.455   6.275   3.326 -1.3280  0.2676  2.3637
17647TIP3    H274433   5.389   6.221   3.202  1.8275 -0.4719  0.8949
17648TIP3   OH274434   4.789   2.319   0.410  0.2587  0.5265  0.0818
17648TIP3    H174435   4.734   2.317   0.332  0.7215 -1.5085 -0.2320
17648TIP3    H274436   4.840   2.400   0.400  0.0052  0.5257 -1.4978
17649TIP3   OH274437   6.608   1.472  13.303 -0.1934 -0.8715 -0.3078
17649TIP3    H174438   6.620   1.378  13.312  2.0916 -0.7187 -0.9613
17649TIP3    H274439   6.661   1.496  13.226  0.5557  1.1279  0.7518
17650TIP3   OH274440   1.143   6.514   4.198  0.3335 -0.5640  0.4099
17650TIP3    H174441   1.110   6.466   4.121  0.0407  0.2038  0.0472
17650TIP3    H274442   1.066   6.527   4.253  0.3905 -0.4107  0.4535
17651TIP3   OH274443   6.111   4.978  14.171 -0.3266  0.1953  0.4575
17651TIP3    H174444   6.091   5.066  14.140 -1.2783  0.7370  2.3997
17651TIP3    H274445   6.207   4.976  14.178 -0.2588  0.8508 -0.2198
17652TIP3   OH274446   6.672   6.719   0.809  0.2404 -0.3543  0.6414
17652TIP3    H174447   6.678   6.770   0.728  0.5685 -0.7856  0.3862
17652TIP3    H274448   6.688   6.782   0.879 -0.0444  0.0233  0.3678
17653TIP3   OH274449   5.335   1.382  13.502 -0.3852 -0.0557  0.3709
17653TIP3    H174450   5.317   1.395  13.408 -0.6733  2.3903  0.7069
17653TIP3    H274451   5.282   1.449  13.545  0.5001 -0.5104  2.2292
17654TIP3   OH274452   5.882   2.573   1.961 -0.6090  0.6885 -0.8094
17654TIP3    H174453   5.868   2.623   1.880  1.4602  0.7712 -1.1583
17654TIP3    H274454   5.977   2.572   1.973 -0.8387  0.3756  1.4515
17655TIP3   OH274455   2.377   3.736  16.890 -0.1842 -0.1755 -0.6446
17655TIP3    H174456   2.444   3.771  16.832  1.8075 -0.8186  1.1125
17655TIP3    H274457   2.389   3.783  16.972 -2.2775  0.0460 -0.4140
17656TIP3   OH274458   1.874   2.729   2.277  1.1864 -0.2167 -0.2964
17656TIP3    H174459   1.853   2.739   2.184 -0.4322  0.1852  0.0803
17656TIP3    H274460   1.924   2.808   2.299 -1.8995  1.8307  0.0472
17657TIP3   OH274461   2.800   6.355   2.686  0.7147  0.2670  0.2305
17657TIP3    H174462   2.860   6.388   2.619 -0.7861  0.6323 -0.9925
17657TIP3    H274463   2.806   6.260   2.678  1.2927  0.2983  0.2696
17658TIP3   OH274464   2.663   6.200   6.397 -0.2553 -0.4650  0.1698
17658TIP3    H174465   2.750   6.208   6.435 -1.4072 -0.2946  3.0353
17658TIP3    H274466   2.638   6.290   6.375  0.3310 -0.5383 -0.8598
17659TIP3   OH274467   1.029   1.670   4.787  0.4976  0.0402  0.1503
17659TIP3    H174468   1.023   1.760   4.756 -0.1967 -0.1790 -0.3833
17659TIP3    H274469   0.966   1.621   4.732  1.8261 -1.0151 -0.4995
17660TIP3   OH274470   3.295   1.548  13.125  0.5420  0.0227  0.5914
17660TIP3    H174471   3.378   1.550  13.078  0.5988  1.0014  0.6987
17660TIP3    H274472   3.228   1.541  13.057  0.6406  1.0286  0.3711
17661TIP3   OH274473   1.109   1.473  15.707  0.2376  0.0479  0.0654
17661TIP3    H174474   1.142   1.396  15.663 -2.0549 -1.3620  0.6200
17661TIP3    H274475   1.018   1.480  15.678 -0.0247  1.6927  1.1242
17662TIP3   OH274476   6.336   2.650  15.782 -0.1789 -0.2512  0.3172
17662TIP3    H174477   6.404   2.670  15.717 -0.3711  0.0655  0.2108
17662TIP3    H274478   6.293   2.571  15.749 -0.4657  0.0727 -0.0929
17663TIP3   OH274479   4.410   5.513   1.603 -0.0779  0.2536 -0.2772
17663TIP3    H174480   4.354   5.558   1.666  0.2009  0.3005 -0.0603
17663TIP3    H274481   4.416   5.573   1.529  0.8208  0.8661  0.2805
17664TIP3   OH274482   3.877   5.838  11.663  0.4389 -0.1115  0.1158
17664TIP3    H174483   3.951   5.870  11.611  0.5000 -0.1461  0.1813
17664TIP3    H274484   3.883   5.887  11.745  0.3083 -0.0156  0.0677
17665TIP3   OH274485   2.864   3.350   5.654  0.1895 -0.4575 -0.1847
17665TIP3    H174486   2.830   3.359   5.565  0.5079  0.9033 -0.1949
17665TIP3    H274487   2.799   3.393   5.710  0.7556  0.1134  0.0488
17666TIP3   OH274488   0.476   2.377  15.971 -0.1695  0.4288 -0.2160
17666TIP3    H174489   0.531   2.427  15.911  0.0994  0.8314  0.3490
17666TIP3    H274490   0.438   2.307  15.918  1.5031 -0.3388 -0.4615
17667TIP3   OH274491   6.454   1.273  15.589  0.2301 -0.0705  0.2308
17667TIP3    H174492   6.544   1.293  15.566  0.2260  0.0363  0.3051
17667TIP3    H274493   6.433   1.194  15.539  0.8247 -0.9393  1.3003
17668TIP3   OH274494   5.282   4.273   4.572 -0.0073 -0.0254 -0.1385
17668TIP3    H174495   5.235   4.309   4.646 -0.1739  0.1522 -0.3286
17668TIP3    H274496   5.362   4.326   4.566 -0.8085  1.1364 -1.1572
17669TIP3   OH274497   2.118   4.039   1.031 -0.5260  0.7697  0.0131
17669TIP3    H174498   2.163   4.087   0.961  0.1880 -1.0855 -0.8819
17669TIP3    H274499   2.188   4.010   1.089 -1.0072  1.2985  0.8718
17670TIP3   OH274500   3.055   6.093  13.549  0.4039 -0.4071  0.0900
17670TIP3    H174501   3.051   6.177  13.503  1.6712  0.1996  1.0428
17670TIP3    H274502   2.992   6.037  13.502  0.8206  0.5233 -1.6496
17671TIP3   OH274503   6.236   2.430  14.074 -0.4532  0.8063 -0.5314
17671TIP3    H174504   6.278   2.366  14.017  0.4663  0.7887  0.1467
17671TIP3    H274505   6.298   2.502  14.080 -1.1537  1.4313 -0.6705
17672TIP3   OH274506   0.134   5.130   5.891  0.5176 -0.0881 -0.5778
17672TIP3    H174507   0.074   5.199   5.863  0.5887 -0.0389 -0.6122
17672TIP3    H274508   0.082   5.072   5.946 -0.0352 -1.0429 -2.0618
17673TIP3   OH274509   0.892   5.218   3.061  0.0262 -0.0895 -0.3827
17673TIP3    H174510   0.985   5.223   3.081  0.2802 -1.6799 -1.0800
17673TIP3    H274511   0.877   5.289   2.998  0.9017 -0.2794 -0.8027
17674TIP3   OH274512   4.836   0.095   3.699  0.3212 -0.2102  0.2707
17674TIP3    H174513   4.831   0.186   3.729  0.1366 -0.1665  0.1086
17674TIP3    H274514   4.829   0.100   3.604  1.0328 -0.3423  0.2094
17675TIP3   OH274515   3.782   5.049  13.852  0.1863 -0.3086 -0.2479
17675TIP3    H174516   3.796   5.034  13.945 -0.1010  0.5687 -0.0520
17675TIP3    H274517   3.867   5.077  13.818 -0.0984  1.1198  0.1319
17676TIP3   OH274518   5.687   2.657  12.209  0.4858 -0.2905 -0.1934
17676TIP3    H174519   5.616   2.660  12.274  0.6121 -0.4255 -0.0470
17676TIP3    H274520   5.755   2.714  12.246  0.4856 -0.2258 -0.2939
17677TIP3   OH274521   6.235   0.396   3.704 -0.4324 -0.4510 -0.3792
17677TIP3    H174522   6.173   0.409   3.632 -1.0417  0.5690  0.3016
17677TIP3    H274523   6.218   0.306   3.733 -0.2002 -0.8618 -1.4778
17678TIP3   OH274524   1.765   4.489  11.744  0.0431  0.0369 -0.4459
17678TIP3    H174525   1.722   4.437  11.811  0.5336  0.2195  0.0172
17678TIP3    H274526   1.772   4.577  11.783  2.2644 -0.3576  0.1406
17679TIP3   OH274527   3.112   5.013  12.447 -0.3411  0.5257 -0.0483
17679TIP3    H174528   3.043   5.079  12.449 -0.7814  0.0851 -0.3794
17679TIP3    H274529   3.124   4.987  12.539  1.1749  2.4037  0.3463
17680TIP3   OH274530   5.699   5.075  12.399  0.2885  0.6902  0.4604
17680TIP3    H174531   5.789   5.075  12.367 -0.3737 -1.8526 -1.7444
17680TIP3    H274532   5.696   5.001  12.460 -0.5756  0.0144 -0.3880
17681TIP3   OH274533   0.175   1.146   3.033 -0.1578  0.5639 -0.2977
17681TIP3    H174534   0.131   1.172   3.115 -0.4888  0.8488 -0.5597
17681TIP3    H274535   0.155   1.053   3.023  0.9284  0.2109  0.5865
17682TIP3   OH274536   1.983   5.944   3.047 -0.1652 -0.3174 -0.0898
17682TIP3    H174537   1.912   5.967   3.107 -0.2474  0.4649 -0.4692
17682TIP3    H274538   2.063   5.972   3.091 -0.3020  1.3274 -0.7879
17683TIP3   OH274539   1.747   4.824  13.362 -0.1702  0.1103 -0.2247
17683TIP3    H174540   1.802   4.900  13.346  0.2784 -0.3663 -0.9609
17683TIP3    H274541   1.737   4.782  13.277 -1.1704 -0.1532  0.0067
17684TIP3   OH274542   6.188   5.051   3.711  0.2820  0.5347 -0.0214
17684TIP3    H174543   6.198   4.989   3.784  0.7307  0.1076 -0.4304
17684TIP3    H274544   6.263   5.109   3.719  0.9339 -0.1728 -0.7469
17685TIP3   OH274545   5.377   6.376   2.442 -0.3016  0.2075 -0.0030
17685TIP3    H174546   5.451   6.330   2.482 -0.6686  0.0869  0.5507
17685TIP3    H274547   5.303   6.355   2.499 -1.2464 -1.5370 -1.7885
17686TIP3   OH274548   6.539   3.932   1.492  0.0089 -0.1047 -0.2282
17686TIP3    H174549   6.465   3.968   1.444 -0.4120  1.0504  1.1991
17686TIP3    H274550   6.613   3.937   1.431 -1.0069 -1.0356 -1.5876
17687TIP3   OH274551   2.736   0.400  14.773  0.4218 -0.0429 -0.6062
17687TIP3    H174552   2.791   0.404  14.694  1.8991  0.1986  0.3961
17687TIP3    H274553   2.682   0.323  14.760  0.1580  0.3555 -2.1445
17688TIP3   OH274554   4.463   2.764  13.737 -0.1422  0.1190  0.1129
17688TIP3    H174555   4.461   2.668  13.727  1.1109  0.0630  0.2267
17688TIP3    H274556   4.434   2.779  13.828  2.0572 -0.3539  0.9495
17689TIP3   OH274557   2.131   4.667   1.235 -0.2727 -0.3239  1.0111
17689TIP3    H174558   2.145   4.761   1.232  1.1943 -0.5337 -0.4532
17689TIP3    H274559   2.040   4.655   1.207 -0.5280  0.6453  1.3876
17690TIP3   OH274560   4.613   6.087  17.275 -1.0202 -0.6332  0.4942
17690TIP3    H174561   4.610   6.146  17.200  0.1808 -1.1147  0.0436
17690TIP3    H274562   4.699   6.100  17.313 -1.4945 -0.6484  1.5933
17691TIP3   OH274563   0.760   1.091  13.978  0.2348  0.1541  0.1014
17691TIP3    H174564   0.702   1.161  13.949 -1.0394 -0.9360 -0.0521
17691TIP3    H274565   0.703   1.015  13.991  1.4717 -0.6840  0.9291
17692TIP3   OH274566   4.565   3.369  14.132 -0.0477 -0.0642 -0.2542
17692TIP3    H174567   4.645   3.420  14.121 -1.3404  1.8704 -1.2074
17692TIP3    H274568   4.499   3.416  14.081 -1.5948 -2.1224 -0.2801
17693TIP3   OH274569   1.317   4.856  12.337 -0.3713  0.4575  0.0197
17693TIP3    H174570   1.322   4.921  12.267  1.8214 -1.2771 -1.5794
17693TIP3    H274571   1.369   4.893  12.408  2.3413 -0.1162 -1.5153
17694TIP3   OH274572   3.376   4.177  13.407 -0.2967  0.4724 -0.9005
17694TIP3    H174573   3.412   4.090  13.390 -0.5880  0.1040  0.2507
17694TIP3    H274574   3.281   4.165  13.401 -0.3418  0.6867 -0.6656
17695TIP3   OH274575   0.093   6.075   0.634 -0.1463  0.0559 -0.3086
17695TIP3    H174576   0.082   5.989   0.594  0.0081 -0.7228  1.2708
17695TIP3    H274577   0.014   6.088   0.687  1.2755 -0.5974  2.0781
17696TIP3   OH274578   2.739   3.381  12.172  0.6673  0.6068  0.0886
17696TIP3    H174579   2.795   3.309  12.201  1.6817  1.3034 -0.0710
17696TIP3    H274580   2.711   3.425  12.253 -2.4488 -1.6844  0.4209
17697TIP3   OH274581   0.252   0.513  13.083  0.4355  0.5431 -0.2963
17697TIP3    H174582   0.250   0.465  13.000  1.5117  0.7907 -0.4803
17697TIP3    H274583   0.160   0.521  13.108  0.0913  0.4234 -1.4425
17698TIP3   OH274584   3.896   1.292   2.129  0.1647  0.3836  0.4524
17698TIP3    H174585   3.861   1.300   2.040 -1.1627 -0.0585  0.9107
17698TIP3    H274586   3.987   1.324   2.122 -0.2577  1.4084 -0.8130
17699TIP3   OH274587   5.529   0.955   5.815 -0.4597  0.2830 -0.2110
17699TIP3    H174588   5.446   0.997   5.796 -0.6366 -0.9478 -2.4953
17699TIP3    H274589   5.505   0.870   5.854 -0.2844 -0.0060 -0.7242
17700TIP3   OH274590   0.318   3.450  13.166  0.4115  0.2167  0.6069
17700TIP3    H174591   0.335   3.431  13.258 -1.3454  0.4327  1.0167
17700TIP3    H274592   0.376   3.391  13.118  0.9617 -0.2778  1.8386
17701TIP3   OH274593   5.575   5.263   4.216  0.9442  0.2299 -0.1206
17701TIP3    H174594   5.631   5.194   4.182 -0.3873  0.5236 -3.1809
17701TIP3    H274595   5.500   5.218   4.254  0.5274 -0.0795 -1.2698
17702TIP3   OH274596   1.979   6.302  12.969  0.0241 -0.7076 -0.8198
17702TIP3    H174597   1.962   6.392  12.944 -1.4519 -0.0886  1.9736
17702TIP3    H274598   1.897   6.256  12.950  0.0467 -0.9639 -0.3275
17703TIP3   OH274599   0.831   4.897  15.835  0.2840  0.4249  0.7816
17703TIP3    H174600   0.826   4.943  15.919 -0.3438 -0.6442  1.3513
17703TIP3    H274601   0.749   4.918  15.791  0.6966  1.1405  0.3448
17704TIP3   OH274602   5.978   2.391  16.828 -0.2266  0.0617  0.3312
17704TIP3    H174603   5.985   2.446  16.905  0.8640 -2.0592  1.8332
17704TIP3    H274604   5.967   2.302  16.862 -0.1738 -0.9064 -1.9608
17705TIP3   OH274605   2.311   2.873  12.492  0.2578  0.8896 -0.4456
17705TIP3    H174606   2.294   2.864  12.398 -0.9217  0.2888 -0.1907
17705TIP3    H274607   2.280   2.960  12.515 -1.0522  0.4147 -0.3099
17706TIP3   OH274608   0.510   4.915   0.276 -0.3123  0.0646  0.1390
17706TIP3    H174609   0.447   4.847   0.251 -3.1680  2.9659 -1.3239
17706TIP3    H274610   0.500   4.924   0.370 -1.2455 -0.3233  0.0865
17707TIP3   OH274611   4.081   1.487   2.881 -0.7014  0.7694 -0.2384
17707TIP3    H174612   4.021   1.420   2.914  1.4833 -0.8504  0.6945
17707TIP3    H274613   4.136   1.441   2.819  0.1892  1.9822 -0.3792
17708TIP3   OH274614   2.204   3.273  12.842 -0.4868  0.4330 -0.8070
17708TIP3    H174615   2.207   3.317  12.758  0.3730  1.8617 -0.0620
17708TIP3    H274616   2.120   3.300  12.880  0.1747  1.7308 -0.2198
17709TIP3   OH274617   2.641   5.253   1.039 -0.2842  0.3938  0.5746
17709TIP3    H174618   2.609   5.342   1.026 -1.2051  0.1741  1.1747
17709TIP3    H274619   2.667   5.250   1.131 -2.3481 -0.5328  1.2010
17710TIP3   OH274620   2.407   2.586  13.202 -1.2153  0.2902 -0.3530
17710TIP3    H174621   2.441   2.625  13.121  0.2201  0.5113  0.3347
17710TIP3    H274622   2.401   2.658  13.264  0.5215 -0.3413  0.6247
17711TIP3   OH274623   2.214   1.920   1.996 -0.2531 -0.2648  0.2056
17711TIP3    H174624   2.139   1.885   2.045  0.7259  0.8236  2.6268
17711TIP3    H274625   2.188   2.010   1.974 -0.7165 -0.7623 -1.4838
17712TIP3   OH274626   4.681   2.347  14.222 -0.2206  0.2667  0.0111
17712TIP3    H174627   4.752   2.327  14.283 -0.2830 -1.0204 -0.3052
17712TIP3    H274628   4.631   2.416  14.265  0.5138  0.3253  0.8025
17713TIP3   OH274629   3.837   6.350  13.053  0.0167 -0.3571  0.4186
17713TIP3    H174630   3.828   6.356  13.148  1.7169  0.0212  0.5809
17713TIP3    H274631   3.747   6.355  13.020 -0.7835 -2.2669  2.0703
17714TIP3   OH274632   2.750   5.431   2.714  0.7440  0.6026 -0.8278
17714TIP3    H174633   2.718   5.521   2.706 -0.9854  0.0965 -0.0865
17714TIP3    H274634   2.841   5.440   2.742 -0.0220  2.1350  1.4199
17715TIP3   OH274635   1.469   3.536   1.378 -0.0178 -0.0792  0.1967
17715TIP3    H174636   1.463   3.631   1.385  1.8621 -0.0304  1.9443
17715TIP3    H274637   1.396   3.512   1.320 -2.5889  2.0688  2.2872
17716TIP3   OH274638   5.901   2.335   5.724  0.4275  0.2916  0.1617
17716TIP3    H174639   5.866   2.368   5.641 -1.2092 -0.2950  0.5828
17716TIP3    H274640   5.896   2.410   5.783  3.2854  1.2551 -0.6688
17717TIP3   OH274641   3.295   2.080   4.127  0.1036 -0.2697  0.0644
17717TIP3    H174642   3.363   2.075   4.194  0.3543  0.5897 -0.1094
17717TIP3    H274643   3.278   2.174   4.117 -0.4849 -0.4301 -0.5188
17718TIP3   OH274644   0.591   4.586  11.324  0.1023 -0.4453  0.0474
17718TIP3    H174645   0.601   4.531  11.245 -1.4438  0.7843 -1.0611
17718TIP3    H274646   0.622   4.672  11.297 -1.2900  0.2153  0.5004
17719TIP3   OH274647   2.201   5.274   5.138  0.1225 -0.0179  0.4366
17719TIP3    H174648   2.132   5.215   5.107  0.7804 -0.8214  0.4415
17719TIP3    H274649   2.262   5.216   5.185  1.4444  0.4387 -0.6409
17720TIP3   OH274650   3.371   3.504   6.397 -0.0100 -0.1188 -0.4175
17720TIP3    H174651   3.443   3.513   6.335 -0.1089 -0.2694 -0.5540
17720TIP3    H274652   3.353   3.594   6.426  1.2767 -0.2045  0.8140
17721TIP3   OH274653   3.808   0.500  11.696  0.5225 -0.0771 -0.9439
17721TIP3    H174654   3.886   0.535  11.652  0.5905  1.5870  0.4163
17721TIP3    H274655   3.736   0.552  11.662  0.3530  0.0869 -0.3425
17722TIP3   OH274656   4.693   2.316   6.392 -0.6850 -0.1899  0.0949
17722TIP3    H174657   4.679   2.232   6.348 -2.0731 -1.1524  2.1669
17722TIP3    H274658   4.787   2.321   6.406 -0.5441 -1.2357 -0.3935
17723TIP3   OH274659   6.683   4.946   4.726 -0.0220  0.3527  0.0785
17723TIP3    H174660   6.640   5.023   4.688 -1.1964 -0.7819 -1.0028
17723TIP3    H274661   6.746   4.982   4.788 -0.7366  2.1724 -0.1821
17724TIP3   OH274662   6.333   2.281  17.358  0.3364 -0.0672 -0.3384
17724TIP3    H174663   6.283   2.324  17.289  0.4975 -2.0268 -1.7755
17724TIP3    H274664   6.424   2.281  17.326  0.6002 -0.0653  0.3766
17725TIP3   OH274665   2.344   3.652   0.791  0.0686  0.4894 -0.2918
17725TIP3    H174666   2.396   3.719   0.835  1.6613 -0.2928 -0.8777
17725TIP3    H274667   2.264   3.696   0.764 -0.6922  1.1677  2.7312
17726TIP3   OH274668   3.771   2.811   2.424 -0.0511  0.7920  0.2537
17726TIP3    H174669   3.857   2.851   2.411  0.1736  0.3417  0.3621
17726TIP3    H274670   3.772   2.733   2.368 -0.6823  1.2163 -0.3624
17727TIP3   OH274671   6.513   1.829  12.476 -0.8594 -0.3784 -0.4931
17727TIP3    H174672   6.580   1.778  12.522  1.6112  1.5261 -1.7429
17727TIP3    H274673   6.478   1.769  12.410  0.9908 -0.9197 -1.0406
17728TIP3   OH274674   2.794   6.766   5.941 -0.7701  0.1634 -0.1471
17728TIP3    H174675   2.709   6.806   5.958 -1.8889 -1.7574 -0.9192
17728TIP3    H274676   2.785   6.676   5.972  0.9768 -0.0972 -0.3072
17729TIP3   OH274677   1.681   0.375   3.604  0.4273  0.0512 -0.4946
17729TIP3    H174678   1.626   0.344   3.675 -0.0692 -2.3937 -1.8321
17729TIP3    H274679   1.731   0.298   3.577  3.9101  1.8953  0.0217
17730TIP3   OH274680   1.549   1.657   2.075  0.3303  0.2329 -0.3539
17730TIP3    H174681   1.568   1.738   2.123 -0.8787 -1.5301  3.5354
17730TIP3    H274682   1.466   1.674   2.031  1.3777  1.8775 -1.8129
17731TIP3   OH274683   0.858   0.516  16.164  0.0632  0.3534 -0.0263
17731TIP3    H174684   0.832   0.424  16.176  2.4385 -0.2059  1.9619
17731TIP3    H274685   0.783   0.567  16.195  0.4061 -1.0734  3.6604
17732TIP3   OH274686   0.612   3.665  16.293  0.1390  0.5731  0.0759
17732TIP3    H174687   0.664   3.707  16.362 -0.5841  0.1845  0.8813
17732TIP3    H274688   0.534   3.720  16.285  0.7741  1.3006 -1.3146
17733TIP3   OH274689   5.003   2.553   2.868 -0.1101 -0.1191 -0.2110
17733TIP3    H174690   4.998   2.476   2.924 -1.4839 -0.2635 -0.5035
17733TIP3    H274691   4.916   2.593   2.874 -0.3191 -0.1673 -2.2606
17734TIP3   OH274692   1.370   4.449  13.724 -0.2482 -0.4041 -0.5094
17734TIP3    H174693   1.464   4.457  13.711 -0.0891  0.6340  1.0341
17734TIP3    H274694   1.340   4.398  13.649  1.6528 -1.4746 -0.6001
17735TIP3   OH274695   2.180   4.540   5.063 -0.2944  0.5808 -0.6812
17735TIP3    H174696   2.189   4.588   5.145  2.1448 -1.0588  0.1292
17735TIP3    H274697   2.271   4.523   5.035 -1.0615 -0.5585 -2.7122
17736TIP3   OH274698   1.935   4.646   4.032  0.1767  0.5235  0.1421
17736TIP3    H174699   1.903   4.650   4.122 -0.3902 -0.8158  0.0280
17736TIP3    H274700   2.029   4.657   4.039  0.0254  1.5833  0.7690
17737TIP3   OH274701   3.069   1.929  16.279 -0.6131  0.4783  0.3583
17737TIP3    H174702   3.136   1.904  16.216  0.4420  2.2751  0.7006
17737TIP3    H274703   2.996   1.960  16.225 -0.1892  0.8640  0.0006
17738TIP3   OH274704   0.288   2.078  17.178 -0.0389 -0.2506  0.8777
17738TIP3    H174705   0.240   2.097  17.098 -0.6576 -0.7703  1.1125
17738TIP3    H274706   0.380   2.086  17.154 -0.2119  2.7752  0.9073
17739TIP3   OH274707   6.421   2.069   6.088 -0.2906 -0.8465 -0.5930
17739TIP3    H174708   6.403   2.129   6.016 -0.3004 -0.3610 -0.1891
17739TIP3    H274709   6.350   2.004   6.083 -0.2545 -0.8504 -1.0539
17740TIP3   OH274710   1.107   2.623  16.391  0.0023 -0.1584  0.4393
17740TIP3    H174711   1.119   2.687  16.462 -2.0577  0.3556  0.3785
17740TIP3    H274712   1.023   2.646  16.352  0.9444 -0.5844 -2.0443
17741TIP3   OH274713   6.140   1.480  13.444  0.2256 -0.0751  0.4597
17741TIP3    H174714   6.141   1.471  13.349 -0.9232  0.9040  0.3124
17741TIP3    H274715   6.231   1.470  13.471  0.5869 -0.2111 -0.7578
17742TIP3   OH274716   4.488   5.376  16.665  0.5004 -0.7676  0.1429
17742TIP3    H174717   4.407   5.333  16.692  0.0621 -0.6633 -0.9727
17742TIP3    H274718   4.460   5.448  16.609  1.2785  0.3899  1.1684
17743TIP3   OH274719   2.432   1.363  17.449  0.4756  0.1022 -0.0136
17743TIP3    H174720   2.356   1.346  17.393  2.5775 -1.3524 -2.6727
17743TIP3    H274721   2.407   1.329  17.535 -2.1939  0.6023 -0.4952
17744TIP3   OH274722   3.575   1.078  12.787  0.2391  0.5430 -0.1015
17744TIP3    H174723   3.671   1.077  12.781  0.2911 -1.6158  0.4863
17744TIP3    H274724   3.556   1.151  12.847  1.5250  0.7301  0.1134
17745TIP3   OH274725   4.809   5.679  13.164  0.1857 -0.1840 -0.5680
17745TIP3    H174726   4.822   5.584  13.170 -0.2835 -0.1698  1.0359
17745TIP3    H274727   4.727   5.689  13.115 -0.2918 -0.6414  0.1341
17746TIP3   OH274728   1.732   1.159   0.911  0.1284 -0.2441  0.0417
17746TIP3    H174729   1.762   1.117   0.831 -1.9891 -0.5061 -0.6727
17746TIP3    H274730   1.757   1.251   0.901  2.6489 -0.7762  0.5527
17747TIP3   OH274731   0.785   5.403  14.216  0.3934 -0.6051 -0.1278
17747TIP3    H174732   0.763   5.408  14.309  0.0099 -0.9051 -0.2047
17747TIP3    H274733   0.880   5.391  14.215  0.9289  2.5296  0.1865
17748TIP3   OH274734   0.915   3.217   2.956 -0.0152 -0.5252 -0.3452
17748TIP3    H174735   0.970   3.172   2.892 -0.5789 -1.2473 -0.3267
17748TIP3    H274736   0.851   3.152   2.982 -0.4204  0.0873  0.1920
17749TIP3   OH274737   0.153   2.841  11.209  0.5776 -0.4422 -0.3226
17749TIP3    H174738   0.088   2.829  11.278  0.3148 -1.4496 -0.7186
17749TIP3    H274739   0.103   2.834  11.127  1.1613 -1.1924 -0.6329
17750TIP3   OH274740   5.059   3.039   3.622 -0.4490 -0.0466 -0.2957
17750TIP3    H174741   4.994   3.057   3.554 -0.6712 -0.4273 -0.1851
17750TIP3    H274742   5.098   3.125   3.640  0.4678 -0.1107 -1.7511
17751TIP3   OH274743   5.056   4.263   0.279  0.0330  0.1533  0.0621
17751TIP3    H174744   5.033   4.170   0.279 -1.1485  0.4225  0.6088
17751TIP3    H274745   4.979   4.307   0.243  1.3086  0.7987 -2.0253
17752TIP3   OH274746   0.798   2.651   4.898 -0.2510  0.0325  0.7274
17752TIP3    H174747   0.768   2.742   4.906  1.8732  0.6766  2.5387
17752TIP3    H274748   0.795   2.633   4.804 -1.9655  1.4855  0.4452
17753TIP3   OH274749   5.836   3.450   1.108  0.1983 -0.2174 -0.3482
17753TIP3    H174750   5.783   3.529   1.119 -0.0114 -0.6831  2.6152
17753TIP3    H274751   5.927   3.480   1.115  0.3668  0.2375 -3.1678
17754TIP3   OH274752   6.372   2.986  16.666  0.4233  0.2795 -0.5856
17754TIP3    H174753   6.303   2.931  16.703 -0.2468  0.5719 -1.3714
17754TIP3    H274754   6.453   2.945  16.695 -0.0755 -0.0239  0.4216
17755TIP3   OH274755   0.777   0.619  14.399  0.7331  0.2871  0.1661
17755TIP3    H174756   0.745   0.690  14.455 -0.4632 -1.7279  2.2111
17755TIP3    H274757   0.706   0.605  14.336  0.8500  0.7064 -0.0644
17756TIP3   OH274758   0.908   3.915  14.135  0.1083  0.1971  0.6434
17756TIP3    H174759   0.869   3.847  14.189 -0.5243  1.6042  2.0270
17756TIP3    H274760   0.944   3.868  14.059 -1.0768 -1.5402  1.1101
17757TIP3   OH274761   4.153   1.825  11.605 -0.0328 -0.1468  0.0745
17757TIP3    H174762   4.147   1.882  11.528 -0.9934 -0.2990  0.0300
17757TIP3    H274763   4.065   1.826  11.642 -0.0358 -1.5321  0.1334
17758TIP3   OH274764   2.862   0.519  16.014  0.3154 -0.2664  0.5370
17758TIP3    H174765   2.858   0.448  15.949  0.1658  0.8172 -0.6743
17758TIP3    H274766   2.793   0.579  15.987 -0.3550 -0.2253  2.2589
17759TIP3   OH274767   1.824   0.482   0.125  0.0365  0.3224  0.0859
17759TIP3    H174768   1.756   0.550   0.130  0.0183  0.1927  2.3192
17759TIP3    H274769   1.785   0.414   0.070 -2.4781 -0.5879  2.7567
17760TIP3   OH274770   4.948   0.975   2.559  0.1725  0.0185 -0.1831
17760TIP3    H174771   5.008   0.904   2.535 -1.0742 -0.8264 -0.9771
17760TIP3    H274772   4.864   0.947   2.522 -0.5041  1.5891  0.1164
17761TIP3   OH274773   5.595   4.909   6.393  0.0062  0.0658  0.0094
17761TIP3    H174774   5.588   4.946   6.481  0.1683  2.0185 -0.7545
17761TIP3    H274775   5.592   4.985   6.335  0.8591 -1.0997 -1.6325
17762TIP3   OH274776   3.080   2.459   3.243 -0.5147  0.6140 -0.1648
17762TIP3    H174777   3.053   2.470   3.334 -0.6971 -0.6156 -0.0599
17762TIP3    H274778   3.108   2.547   3.216  1.2677  0.6628  1.6124
17763TIP3   OH274779   2.493   6.440   2.346 -0.5218  0.0320 -1.0183
17763TIP3    H174780   2.413   6.487   2.323 -0.4571  0.2557 -0.7961
17763TIP3    H274781   2.542   6.501   2.401 -0.5609 -0.3911 -0.4965
17764TIP3   OH274782   3.168   0.856   2.339 -0.4970  0.0975  0.2855
17764TIP3    H174783   3.090   0.808   2.312 -1.0896  1.2218 -0.0433
17764TIP3    H274784   3.198   0.811   2.418 -1.6779 -0.1268  0.6166
17765TIP3   OH274785   1.208   4.985  16.177  0.0809  0.1998  0.2137
17765TIP3    H174786   1.177   4.905  16.133 -0.1091  0.5034 -0.2192
17765TIP3    H274787   1.144   5.001  16.246 -0.9853  1.0258 -0.9042
17766TIP3   OH274788   3.523   4.718  16.510 -0.0339  0.4395 -0.1295
17766TIP3    H174789   3.615   4.707  16.489  0.2351  0.8722  0.7928
17766TIP3    H274790   3.511   4.813  16.520 -0.4787  0.3521  0.2104
17767TIP3   OH274791   0.078   5.551  14.263  0.4809 -0.1355  0.5681
17767TIP3    H174792   0.102   5.584  14.349 -0.2593  0.7294  0.4535
17767TIP3    H274793  -0.005   5.505  14.278  0.6491 -0.4941  0.4164
17768TIP3   OH274794   0.921   3.949   1.668  0.5036  0.7060  0.0505
17768TIP3    H174795   0.937   4.042   1.655 -2.7590  1.3618  0.0046
17768TIP3    H274796   0.887   3.943   1.757 -3.4616  0.3338 -1.3078
17769TIP3   OH274797   4.489   2.172  12.592 -0.0569  0.0811 -0.9380
17769TIP3    H174798   4.507   2.161  12.685 -0.2947  0.4383 -0.8449
17769TIP3    H274799   4.569   2.211  12.556  0.1992 -0.4657 -0.9720
17770TIP3   OH274800   2.865   3.353  17.396  0.0887  0.3834  0.5387
17770TIP3    H174801   2.947   3.402  17.405 -0.1858  0.7684  0.9173
17770TIP3    H274802   2.876   3.278  17.455 -0.2877  1.0427  1.4681
17771TIP3   OH274803   4.224   5.378   0.793  0.1000 -0.5145 -0.2910
17771TIP3    H174804   4.181   5.346   0.873 -0.4325  0.2198 -0.2710
17771TIP3    H274805   4.317   5.375   0.813 -0.0199 -0.5232  0.2904
17772TIP3   OH274806   1.315   4.687   4.048  0.6024 -0.4486 -0.0386
17772TIP3    H174807   1.236   4.718   4.092  1.0938  1.9211 -0.7096
17772TIP3    H274808   1.341   4.609   4.099 -1.5401 -0.6797  0.8189
17773TIP3   OH274809   3.340   5.722  15.330 -0.6147 -0.3759 -0.2134
17773TIP3    H174810   3.374   5.795  15.278  2.9539 -1.8097 -0.1685
17773TIP3    H274811   3.315   5.656  15.266 -2.9823  0.4382 -0.2180
17774TIP3   OH274812   5.281   4.199  12.695  0.3345 -0.3116  0.3221
17774TIP3    H174813   5.282   4.293  12.678 -0.3048 -0.4228 -0.3886
17774TIP3    H274814   5.373   4.173  12.690  0.2817 -0.4281 -3.8193
17775TIP3   OH274815   4.264   5.155  14.333  0.1370 -0.1312  0.3536
17775TIP3    H174816   4.233   5.137  14.422  0.9691 -0.7729  0.5248
17775TIP3    H274817   4.290   5.069  14.299  1.1113  0.2952 -0.0129
17776TIP3   OH274818   2.920   5.031   1.498  0.2433 -0.0581 -0.4202
17776TIP3    H174819   2.909   5.108   1.554  0.7580 -0.7085  0.6165
17776TIP3    H274820   2.855   4.969   1.529 -0.7346  0.2406 -1.8051
17777TIP3   OH274821   4.500   1.167  11.901  0.1189 -0.1519  0.0032
17777TIP3    H174822   4.540   1.134  11.981  0.1327 -1.0602 -0.3683
17777TIP3    H274823   4.497   1.262  11.913  0.6374 -0.2321  0.8337
17778TIP3   OH274824   3.489   0.313  11.384 -0.0602 -0.0286 -0.6203
17778TIP3    H174825   3.559   0.343  11.442 -1.3998  1.5119  0.2722
17778TIP3    H274826   3.423   0.277  11.442 -0.3018 -0.9157 -1.4106
17779TIP3   OH274827   0.950   1.557  17.368 -0.2801  0.3887  0.2653
17779TIP3    H174828   0.919   1.495  17.434  2.0578 -1.6637 -0.4073
17779TIP3    H274829   0.993   1.626  17.417  1.1252 -0.9367  0.9827
17780TIP3   OH274830   0.056   5.445  10.374 -0.1488  0.2504  0.3626
17780TIP3    H174831   0.007   5.507  10.428  0.9093 -0.6984  2.5316
17780TIP3    H274832   0.148   5.473  10.383  0.0985 -0.2174 -0.5842
17781TIP3   OH274833   4.487   3.563   0.852  0.1403 -0.1394 -0.6697
17781TIP3    H174834   4.532   3.505   0.791 -0.1733 -2.0294  0.8069
17781TIP3    H274835   4.428   3.614   0.797  0.9241 -0.7202 -2.1025
17782TIP3   OH274836   6.498   3.487   3.773  0.6290  0.5114  0.1280
17782TIP3    H174837   6.412   3.508   3.737  0.6358 -0.3479 -0.4393
17782TIP3    H274838   6.559   3.540   3.722  0.3577  2.0051  1.3176
17783TIP3   OH274839   1.595   6.526   4.565  0.0216 -0.5741  0.8482
17783TIP3    H174840   1.681   6.490   4.588 -1.2217 -3.5314  1.4044
17783TIP3    H274841   1.614   6.594   4.501  2.7471 -1.4461  0.5745
17784TIP3   OH274842   5.971   5.786  13.838 -0.1712  0.6734 -0.3731
17784TIP3    H174843   6.049   5.749  13.798 -0.7165 -2.0118  0.7795
17784TIP3    H274844   6.002   5.826  13.920  0.0826  0.1399 -0.2054
17785TIP3   OH274845   1.003   4.915  15.085 -0.0430 -0.2522  0.5372
17785TIP3    H174846   1.028   4.840  15.139 -1.3671 -0.2694  1.1543
17785TIP3    H274847   1.005   4.881  14.995  1.2288 -0.4804  0.6246
17786TIP3   OH274848   6.576   0.532  13.983  0.3056 -0.4623 -0.2932
17786TIP3    H174849   6.606   0.512  13.894  0.5602 -1.5473  0.0232
17786TIP3    H274850   6.497   0.585  13.971  0.2511 -0.7308 -1.1644
17787TIP3   OH274851   1.775   5.203   3.453 -0.3837  0.4391 -0.0889
17787TIP3    H174852   1.806   5.241   3.371  1.5187 -0.1677  0.3059
17787TIP3    H274853   1.680   5.201   3.444 -0.1848 -0.7833 -2.8329
17788TIP3   OH274854   3.544   0.065  15.471  0.0341 -0.0214  0.2730
17788TIP3    H174855   3.459   0.076  15.513  1.2284 -1.1311  3.2976
17788TIP3    H274856   3.557  -0.030  15.469  0.6918  0.0740 -1.3424
17789TIP3   OH274857   3.274   5.179   6.671  0.2516  0.0559 -0.1966
17789TIP3    H174858   3.270   5.131   6.754 -0.3019  0.3240 -0.0677
17789TIP3    H274859   3.186   5.215   6.660 -0.2279 -1.4664 -1.7894
17790TIP3   OH274860   1.509   5.042  13.028 -0.1544  0.2881 -0.1911
17790TIP3    H174861   1.441   5.001  13.082  0.3685  0.2376  0.4410
17790TIP3    H274862   1.555   5.101  13.088 -0.7590  1.6666 -1.0259
17791TIP3   OH274863   0.743   1.025  11.253  0.0955 -0.2267  0.1567
17791TIP3    H174864   0.773   0.991  11.168 -2.6632  0.1626 -1.0643
17791TIP3    H274865   0.749   1.120  11.243  0.8175 -0.1897  0.8520
17792TIP3   OH274866   2.474   6.428   5.729  0.1272 -0.2289  0.5468
17792TIP3    H174867   2.483   6.383   5.813 -1.4565 -1.1625  0.2667
17792TIP3    H274868   2.494   6.520   5.748  1.7281 -0.7439  1.5037
17793TIP3   OH274869   4.466   6.405   0.035  0.2910  0.0046 -0.4829
17793TIP3    H174870   4.464   6.501   0.029  0.7194 -0.0315 -1.3820
17793TIP3    H274871   4.421   6.385   0.117  1.3457  1.0380  0.3795
17794TIP3   OH274872   3.068   1.609   1.134 -0.3992 -0.0439  0.0650
17794TIP3    H174873   3.086   1.548   1.063  1.6404 -0.6626  1.0259
17794TIP3    H274874   3.029   1.556   1.204  0.7316 -0.1505  0.6409
17795TIP3   OH274875   4.401   3.580  13.968 -0.2118  0.2691  0.0032
17795TIP3    H174876   4.418   3.528  13.889 -0.0651 -1.1828  0.9620
17795TIP3    H274877   4.320   3.627  13.948  1.1730  1.9808 -2.0015
17796TIP3   OH274878   3.054   1.049   0.243 -0.2609 -0.3120 -0.2107
17796TIP3    H174879   2.960   1.054   0.257 -0.1867 -0.8270  0.5461
17796TIP3    H274880   3.068   0.964   0.201 -0.1120 -0.3610 -0.0662
17797TIP3   OH274881   1.268   4.232  13.380 -0.2821  1.0225  0.0100
17797TIP3    H174882   1.357   4.241  13.417  0.1005  0.1738 -0.6665
17797TIP3    H274883   1.214   4.208  13.456  0.0507  1.6074  0.4415
17798TIP3   OH274884   0.842   3.486   3.061 -0.8384  0.3010 -0.6228
17798TIP3    H174885   0.862   3.407   3.011 -0.5872 -1.3198  1.8928
17798TIP3    H274886   0.925   3.510   3.102 -1.2259  1.0731 -0.2725
17799TIP3   OH274887   5.829   3.201   2.913  0.3633  0.3060 -0.0143
17799TIP3    H174888   5.894   3.152   2.863  0.9087  0.7392  0.2654
17799TIP3    H274889   5.756   3.212   2.853  1.3460  1.5801 -1.0314
17800TIP3   OH274890   5.439   6.405   1.670  0.4271  0.5386 -0.1873
17800TIP3    H174891   5.415   6.469   1.738  1.3785  0.3403  0.3493
17800TIP3    H274892   5.400   6.440   1.590 -0.9595  0.6324  0.4975
17801TIP3   OH274893   4.635   4.369  13.101 -0.0325 -0.3931 -0.2244
17801TIP3    H174894   4.564   4.402  13.155 -0.1351  0.9410 -1.1138
17801TIP3    H274895   4.671   4.295  13.150 -1.4989 -0.5779  0.6143
17802TIP3   OH274896   1.754   0.010   0.799  0.3333  0.6901  0.0660
17802TIP3    H174897   1.758   0.101   0.768  0.6431  0.6660  0.0311
17802TIP3    H274898   1.817  -0.036   0.745 -0.4605  0.2646 -0.5185
17803TIP3   OH274899   5.918   6.101  11.542  0.4297  0.2129 -0.6445
17803TIP3    H174900   5.902   6.055  11.460 -0.5957  1.6388 -1.2746
17803TIP3    H274901   5.938   6.032  11.605 -1.0793 -1.0938 -1.5506
17804TIP3   OH274902   2.491   5.434   2.337 -0.0475  0.4786 -0.3387
17804TIP3    H174903   2.583   5.462   2.334 -0.6601  2.7530  0.2843
17804TIP3    H274904   2.477   5.390   2.253  1.9743 -1.3573  0.1778
17805TIP3   OH274905   4.398   1.089  14.887 -0.6423 -0.0923  0.0910
17805TIP3    H174906   4.493   1.090  14.898 -0.8360 -0.3135  2.0714
17805TIP3    H274907   4.380   1.168  14.835  0.5066  0.8511  1.0448
17806TIP3   OH274908   1.240   3.494  17.304  0.4046 -0.1044  0.0132
17806TIP3    H174909   1.287   3.561  17.255  0.1089 -0.2410 -0.4556
17806TIP3    H274910   1.309   3.436  17.337  0.5639 -0.4057 -0.8195
17807TIP3   OH274911   1.531   3.776  13.354  0.1555 -0.1084  0.6686
17807TIP3    H174912   1.625   3.767  13.340 -0.1645 -0.6437 -1.3989
17807TIP3    H274913   1.506   3.696  13.400  0.8248  0.4433  2.0406
17808TIP3   OH274914   2.081   4.154  14.373 -0.7677 -0.6063 -0.1223
17808TIP3    H174915   2.051   4.230  14.424 -0.5819  0.0927 -1.0403
17808TIP3    H274916   2.025   4.154  14.295 -0.7103 -1.3677 -0.1689
17809TIP3   OH274917   4.810   4.680  13.229  0.4977  0.0985  0.3825
17809TIP3    H174918   4.834   4.751  13.288 -0.1827 -0.8589  1.8553
17809TIP3    H274919   4.886   4.670  13.171  0.1509  2.8048 -0.7027
17810TIP3   OH274920   6.066   4.000   3.732 -0.0808  0.2342 -0.5961
17810TIP3    H174921   6.054   4.005   3.637 -0.6736  1.9883 -0.4746
17810TIP3    H274922   6.152   4.040   3.747 -0.7346  1.6158 -0.3006
17811TIP3   OH274923   2.611   3.580   4.876  0.1550 -0.3242  0.7297
17811TIP3    H174924   2.644   3.491   4.889  1.8029  0.0163 -0.6458
17811TIP3    H274925   2.653   3.632   4.944  4.6601  0.5226 -2.2370
17812TIP3   OH274926   0.139   6.484   2.270  0.3916 -0.6464  0.2870
17812TIP3    H174927   0.084   6.540   2.324  0.7052  0.8538 -0.8899
17812TIP3    H274928   0.200   6.442   2.332  1.1677  1.5082  1.0704
17813TIP3   OH274929   2.711   3.426  12.961  0.1970  0.5559  0.5643
17813TIP3    H174930   2.727   3.513  12.924  0.2012  0.5676  0.5927
17813TIP3    H274931   2.616   3.420  12.969  0.2313  0.8601  1.2743
17814TIP3   OH274932   1.125   3.028  14.668 -0.9522  0.1655 -0.0870
17814TIP3    H174933   1.122   2.943  14.713  0.7457  0.6786  1.0987
17814TIP3    H274934   1.150   3.006  14.578  1.7892 -0.5213  0.7361
17815TIP3   OH274935   3.590   1.301   3.133 -0.5292 -0.6368 -0.0103
17815TIP3    H174936   3.637   1.363   3.077 -0.8573 -0.9940 -0.6937
17815TIP3    H274937   3.654   1.234   3.154  0.3783  0.7868  2.2130
17816TIP3   OH274938   3.724   6.493   3.974 -0.1555 -0.6086  0.3644
17816TIP3    H174939   3.741   6.465   3.884 -0.8695  0.7565 -0.2227
17816TIP3    H274940   3.664   6.427   4.009 -2.7207  0.6578 -1.3599
17817TIP3   OH274941   6.364   4.644  14.353 -0.1667  0.5315 -0.3795
17817TIP3    H174942   6.429   4.693  14.304  1.3331 -1.6044 -0.6310
17817TIP3    H274943   6.397   4.555  14.356 -1.2101  0.1253  2.7564
17818TIP3   OH274944   4.179   4.729  11.620  0.2124 -0.1593  0.6464
17818TIP3    H174945   4.152   4.820  11.633  0.0402 -0.2998  1.3017
17818TIP3    H274946   4.134   4.701  11.541  0.7896  0.5321  0.0557
17819TIP3   OH274947   1.665   2.386  14.596 -0.1863  0.7228 -0.0403
17819TIP3    H174948   1.608   2.313  14.574 -2.1850  2.3402 -0.5194
17819TIP3    H274949   1.702   2.364  14.681 -0.9376 -0.7074 -0.0724
17820TIP3   OH274950   0.958   3.571   2.219  0.4787  0.3248 -0.1391
17820TIP3    H174951   0.966   3.646   2.159  0.6036 -1.2524 -2.2092
17820TIP3    H274952   0.869   3.578   2.254 -0.4057  0.1374 -2.2114
17821TIP3   OH274953   2.732   4.695   1.259 -0.2317 -0.0134 -0.1425
17821TIP3    H174954   2.696   4.666   1.344 -0.8800  2.3466  0.4599
17821TIP3    H274955   2.825   4.712   1.277  0.2801 -2.0255 -0.6276
17822TIP3   OH274956   4.985   2.254   2.706  0.3423  0.0264  0.1958
17822TIP3    H174957   5.049   2.183   2.706 -2.2226 -2.5776 -1.7747
17822TIP3    H274958   4.967   2.271   2.798  1.2971 -1.6869  0.7285
17823TIP3   OH274959   6.369   2.480  14.737  0.1497 -0.3534 -0.2902
17823TIP3    H174960   6.329   2.567  14.746  0.4043 -0.2433 -0.1756
17823TIP3    H274961   6.318   2.437  14.669 -2.4414 -1.5479  2.2100
17824TIP3   OH274962   4.035   4.907  14.821 -0.2740 -0.1121 -0.0652
17824TIP3    H174963   4.022   4.999  14.795  1.4387 -0.0517 -0.8447
17824TIP3    H274964   4.129   4.899  14.834 -0.2574 -1.9992 -0.9737
17825TIP3   OH274965   5.129   2.755   0.246 -0.3899  0.2239  0.1156
17825TIP3    H174966   5.149   2.777   0.155 -0.8750 -0.6999 -0.2285
17825TIP3    H274967   5.174   2.672   0.261 -1.7000 -0.5040  0.1673
17826TIP3   OH274968   0.581   5.298   1.342 -0.0970  0.4751  0.3406
17826TIP3    H174969   0.535   5.244   1.406  0.9666 -0.0318  0.6968
17826TIP3    H274970   0.666   5.317   1.383 -0.4978  2.5793  0.3190
17827TIP3   OH274971   4.808   0.250  17.162  0.6295  0.1282 -0.2684
17827TIP3    H174972   4.808   0.342  17.189  0.2414  0.0202  0.1112
17827TIP3    H274973   4.715   0.225  17.160  0.7162 -0.1876 -0.6142
17828TIP3   OH274974   0.012   3.792   5.265 -0.0212 -0.0999  0.1134
17828TIP3    H174975  -0.074   3.765   5.297  0.6342 -1.9631  0.4313
17828TIP3    H274976   0.030   3.874   5.311 -1.6893  0.4104 -0.0996
17829TIP3   OH274977   2.986   1.123   5.854 -0.3237  0.1937 -0.1221
17829TIP3    H174978   2.945   1.209   5.848  0.2971  0.7620  2.3683
17829TIP3    H274979   2.913   1.062   5.856 -0.8988  0.8717  0.2985
17830TIP3   OH274980   2.646   0.410   2.624  0.3190 -0.5764 -0.0240
17830TIP3    H174981   2.723   0.406   2.568  0.4873 -0.4058  0.1950
17830TIP3    H274982   2.586   0.469   2.578 -0.2982 -1.8854 -0.9489
17831TIP3   OH274983   4.747   1.479  14.388  0.0282 -0.2579  0.2367
17831TIP3    H174984   4.722   1.571  14.394 -1.5457 -0.7355  2.2224
17831TIP3    H274985   4.824   1.478  14.331 -0.9141  2.0595 -1.2110
17832TIP3   OH274986   0.042   5.973  14.860 -0.0154  0.1610 -0.0744
17832TIP3    H174987   0.008   5.949  14.946  0.5769 -0.1688  0.0738
17832TIP3    H274988   0.137   5.966  14.869  0.0143 -1.1669 -1.1233
17833TIP3   OH274989   1.652   2.011  15.811 -0.5949 -0.3868  0.3620
17833TIP3    H174990   1.681   1.967  15.891  0.7727 -1.0745 -0.4895
17833TIP3    H274991   1.731   2.024  15.759 -1.1691  1.7525 -0.1024
17834TIP3   OH274992   0.777   6.297   4.115  0.1963  0.1744 -0.6178
17834TIP3    H174993   0.839   6.364   4.142 -0.1363  0.6034 -0.9058
17834TIP3    H274994   0.820   6.250   4.044 -0.3387  1.3754 -1.7856
17835TIP3   OH274995   3.291   6.738   4.388 -0.2549  0.0272  0.0064
17835TIP3    H174996   3.339   6.764   4.309 -1.4834  0.2238 -0.7014
17835TIP3    H274997   3.299   6.812   4.448  0.4384 -0.0024 -0.0466
17836TIP3   OH274998   6.144   4.231   1.999  0.1020  0.3717  0.0166
17836TIP3    H174999   6.097   4.148   2.003 -1.9756  1.4930 -0.0498
17836TIP3    H275000   6.192   4.228   1.916  0.4033 -0.9173  0.2236
17837TIP3   OH275001   2.391   3.774   3.558 -0.1653 -0.3639 -0.2179
17837TIP3    H175002   2.435   3.689   3.571  0.6291  0.2576  1.3927
17837TIP3    H275003   2.375   3.806   3.646 -3.3055 -0.2164 -0.7317
17838TIP3   OH275004   5.135   0.083   2.918  0.0189 -0.1295 -0.1631
17838TIP3    H175005   5.104   0.016   2.857  0.0335  0.0716 -0.3930
17838TIP3    H275006   5.055   0.118   2.958 -0.1467  0.9462 -1.3349
17839TIP3   OH275007   3.787   1.740  14.067 -0.1592 -0.1177 -0.1281
17839TIP3    H175008   3.724   1.812  14.079 -1.4438 -0.8084 -2.2921
17839TIP3    H275009   3.862   1.781  14.026 -0.8218  0.0502 -1.2038
17840TIP3   OH275010   0.599   6.313  14.611  0.0917  0.2385 -0.3492
17840TIP3    H175011   0.620   6.354  14.527 -0.8531  1.1692 -0.1428
17840TIP3    H275012   0.669   6.343  14.669  0.2375  0.3278 -0.5653
17841TIP3   OH275013   1.891   5.921  11.445  0.0576 -0.3266  0.0811
17841TIP3    H175014   1.914   5.835  11.412 -1.1188 -1.0566  1.0455
17841TIP3    H275015   1.795   5.919  11.454 -0.0328  1.1853 -0.1627
17842TIP3   OH275016   0.964   3.881   2.794  0.1566 -0.0639 -0.1835
17842TIP3    H175017   0.996   3.848   2.710 -0.6660  0.8572 -0.8867
17842TIP3    H275018   1.039   3.928   2.831  0.1623  0.6042 -1.0064
17843TIP3   OH275019   4.847   0.890  16.062 -0.2025  0.1437 -0.0571
17843TIP3    H175020   4.853   0.806  16.107 -0.6888  0.8686  1.4278
17843TIP3    H275021   4.809   0.950  16.127  1.5002  1.8778 -0.5543
17844TIP3   OH275022   2.622   6.403   2.903  0.1771 -0.1323  0.3773
17844TIP3    H175023   2.705   6.378   2.862 -0.1140  0.9965 -0.9756
17844TIP3    H275024   2.647   6.466   2.971  0.3427  1.4847 -1.1275
17845TIP3   OH275025   4.425   6.410   6.041  0.1381  0.1751  0.2425
17845TIP3    H175026   4.471   6.388   6.122  0.7468 -1.1761 -0.4374
17845TIP3    H275027   4.485   6.384   5.971 -0.6280  0.7398 -0.6517
17846TIP3   OH275028   3.111   6.420  13.871 -0.2780 -0.3629  0.0615
17846TIP3    H175029   3.055   6.345  13.892  0.8928 -0.9622  1.1614
17846TIP3    H275030   3.164   6.432  13.949  0.9648  0.3360 -0.8665
17847TIP3   OH275031   5.475   5.706  16.534  0.5732  0.4534  0.5385
17847TIP3    H175032   5.391   5.727  16.575  0.6129  0.8873  0.4035
17847TIP3    H275033   5.523   5.788  16.534  0.5879  0.4580 -0.3448
17848TIP3   OH275034   3.664   3.116  15.576  0.0943  0.2349  0.4701
17848TIP3    H175035   3.642   3.209  15.573 -0.5405  0.0732 -0.1589
17848TIP3    H275036   3.649   3.085  15.487 -1.0830 -0.7647  0.9894
17849TIP3   OH275037   6.506   4.042   4.241 -0.0611  0.1114  0.0577
17849TIP3    H175038   6.597   4.023   4.216  0.6307  0.0534  2.4125
17849TIP3    H275039   6.462   3.957   4.237  0.2385 -0.0385 -0.0620
17850TIP3   OH275040   2.842   0.160  13.738 -0.2680  0.6339 -0.1692
17850TIP3    H175041   2.874   0.211  13.664  1.8379  0.9103  0.8379
17850TIP3    H275042   2.871   0.070  13.720  0.9186  0.8351  0.6249
17851TIP3   OH275043   6.465   2.010   0.228 -0.0443 -0.1676 -0.3533
17851TIP3    H175044   6.404   2.029   0.157 -1.1034  0.9582  0.7918
17851TIP3    H275045   6.515   2.091   0.239  1.4021 -0.9349 -0.9891
17852TIP3   OH275046   1.487   3.064   2.788  0.0755 -0.1739  0.2476
17852TIP3    H175047   1.509   3.052   2.695  1.4595 -1.4640  0.6989
17852TIP3    H275048   1.408   3.118   2.787 -0.0216 -0.2740 -1.6849
17853TIP3   OH275049   1.903   1.568  11.249 -0.3428 -0.2739  0.1777
17853TIP3    H175050   1.945   1.582  11.164 -2.0115  1.2006 -0.4885
17853TIP3    H275051   1.826   1.514  11.228 -0.7363  0.0601  0.7535
17854TIP3   OH275052   0.977   4.203  12.758 -0.0398 -0.1044  0.2192
17854TIP3    H175053   0.904   4.159  12.715 -0.3790 -0.5802  1.2580
17854TIP3    H275054   0.989   4.284  12.708  0.0006 -0.9296 -1.1663
17855TIP3   OH275055   2.709   4.862  13.847 -0.0870 -0.0020 -0.2536
17855TIP3    H175056   2.707   4.775  13.807  1.1191 -0.0480 -0.2280
17855TIP3    H275057   2.765   4.914  13.789  0.3383  0.3772  0.4930
17856TIP3   OH275058   1.500   0.268   0.997  0.1559 -0.0457 -0.3400
17856TIP3    H175059   1.546   0.241   1.076 -3.0223  2.1279  2.5404
17856TIP3    H275060   1.420   0.216   0.997 -1.5536  2.3971  0.0029
17857TIP3   OH275061   2.973   1.683  12.601 -0.0465 -0.3204 -0.4230
17857TIP3    H175062   2.960   1.773  12.630  0.2099  0.0043 -1.2992
17857TIP3    H275063   3.049   1.687  12.544  3.1742 -1.8765  3.2767
17858TIP3   OH275064   3.112   0.523   2.709 -0.6580  0.3278  0.2293
17858TIP3    H175065   3.164   0.571   2.644  0.9297  0.4661  1.5268
17858TIP3    H275066   3.145   0.555   2.794 -1.4429 -1.1051  1.1072
17859TIP3   OH275067   2.047   3.601  12.848 -0.2425  0.3839 -0.2580
17859TIP3    H175068   2.120   3.662  12.839 -0.5495  0.9131  0.7051
17859TIP3    H275069   1.992   3.618  12.771 -0.4556  1.5085  0.1237
17860TIP3   OH275070   1.114   4.338   0.611 -0.1111 -0.3759  0.4615
17860TIP3    H175071   1.197   4.307   0.647  0.1468 -0.9596 -0.5939
17860TIP3    H275072   1.067   4.257   0.589 -0.0138 -0.0428 -1.0376
17861TIP3   OH275073   6.719   1.226   2.716  0.5124 -0.9365  0.1908
17861TIP3    H175074   6.624   1.230   2.711  0.5363  0.7130  0.3522
17861TIP3    H275075   6.748   1.311   2.682  1.8331 -0.6014  2.0116
17862TIP3   OH275076   1.416   5.033   4.139  0.9064  0.0777  0.0545
17862TIP3    H175077   1.333   5.001   4.102  0.1475 -0.1898  1.8655
17862TIP3    H275078   1.439   4.967   4.205  2.9625 -0.2162 -0.8781
17863TIP3   OH275079   5.357   4.436  15.896  0.0847  0.1309  0.2725
17863TIP3    H175080   5.343   4.373  15.966 -0.9875  0.6675  0.5545
17863TIP3    H275081   5.274   4.440  15.849  0.4399  0.6116 -0.3407
17864TIP3   OH275082   3.521   1.010  16.057  0.2872  0.3654 -0.5940
17864TIP3    H175083   3.601   0.971  16.092  0.6059  1.9948  0.6489
17864TIP3    H275084   3.481   0.941  16.005  1.9843 -0.8137 -0.4154
17865TIP3   OH275085   2.692   4.340   2.746 -0.8219 -0.6785  0.0143
17865TIP3    H175086   2.627   4.384   2.801 -0.7576  2.6032 -2.2210
17865TIP3    H275087   2.775   4.382   2.769 -0.3560 -1.1969 -0.6698
17866TIP3   OH275088   1.339   3.391   4.821  0.0137 -0.6268  0.3734
17866TIP3    H175089   1.422   3.353   4.852  0.1382 -0.0337  0.7827
17866TIP3    H275090   1.366   3.461   4.761 -0.1440  0.3338  1.3788
17867TIP3   OH275091   3.844   3.141   3.752 -0.2073  0.0572  0.6721
17867TIP3    H175092   3.775   3.106   3.809 -0.0859  1.3269  1.6355
17867TIP3    H275093   3.890   3.205   3.807  0.7649  0.3449 -0.4493
17868TIP3   OH275094   0.366   4.043  12.659 -0.0552 -0.0207 -0.2599
17868TIP3    H175095   0.431   3.995  12.711 -0.4366 -0.9438 -0.5990
17868TIP3    H275096   0.350   3.986  12.583 -2.1072 -0.3940  0.3825
17869TIP3   OH275097   5.997   0.516  15.420 -0.1364 -0.0893 -0.5456
17869TIP3    H175098   5.904   0.512  15.441 -0.2953  0.1685 -1.1669
17869TIP3    H275099   6.039   0.539  15.503 -0.3762 -2.3805  0.2849
17870TIP3   OH275100   3.348   1.366   3.673 -0.2527 -0.1441  0.0155
17870TIP3    H175101   3.408   1.431   3.637 -1.0325 -0.8713 -2.8724
17870TIP3    H275102   3.306   1.410   3.746 -1.3028  3.0132 -2.2574
17871TIP3   OH275103   3.457   6.201  13.130 -0.3160  0.1196 -0.4564
17871TIP3    H175104   3.366   6.189  13.103 -1.2529  1.2572  1.9090
17871TIP3    H275105   3.485   6.281  13.086 -0.5312 -0.0912 -0.9861
17872TIP3   OH275106   0.695   1.808   5.624 -0.2559  0.4028  0.0337
17872TIP3    H175107   0.669   1.742   5.688  0.9459  1.1282  1.3111
17872TIP3    H275108   0.784   1.783   5.598 -0.2213  0.8892 -0.3298
17873TIP3   OH275109   0.528   4.149  13.070  0.3995 -0.3589 -0.0043
17873TIP3    H175110   0.620   4.160  13.092  1.2212 -1.3958 -2.5236
17873TIP3    H275111   0.506   4.228  13.020 -0.6986  0.7825  2.1392
17874TIP3   OH275112   1.779   4.501   5.526 -0.2548  0.0888 -0.0075
17874TIP3    H175113   1.739   4.587   5.540 -0.8450 -0.3052  0.7493
17874TIP3    H275114   1.873   4.520   5.516 -0.2751  0.7495  0.9079
17875TIP3   OH275115   2.611   3.770   5.109  0.1435  0.5231  0.4466
17875TIP3    H175116   2.702   3.790   5.129  0.9342 -2.5731  0.3750
17875TIP3    H275117   2.565   3.786   5.191  0.8877  1.1926  0.7542
17876TIP3   OH275118   4.277   2.523  11.259  0.2865  0.2241 -0.7111
17876TIP3    H175119   4.365   2.542  11.225  0.5340  1.8907  0.7560
17876TIP3    H275120   4.293   2.465  11.334  0.1757  0.8901 -0.1696
17877TIP3   OH275121   2.236   2.187   5.082 -0.1613 -0.0904  0.0612
17877TIP3    H175122   2.152   2.144   5.095 -0.9067  0.7462 -1.6744
17877TIP3    H275123   2.220   2.278   5.109 -0.4078  0.5354 -2.0574
17878TIP3   OH275124   5.627   0.590  13.414  0.3902  0.3656 -0.0216
17878TIP3    H175125   5.659   0.680  13.422 -3.4538  1.7646  2.5332
17878TIP3    H275126   5.657   0.546  13.494 -0.7003  0.5466  0.5125
17879TIP3   OH275127   3.614   4.729  14.067  0.4950  0.1038 -0.2965
17879TIP3    H175128   3.601   4.684  13.984  0.9558 -0.0209 -0.3006
17879TIP3    H275129   3.694   4.780  14.056  0.6292 -0.0115  0.1135
17880TIP3   OH275130   0.859   3.319   5.355  0.0353 -0.8069  0.4269
17880TIP3    H175131   0.942   3.331   5.401  1.5564 -4.3439 -1.0524
17880TIP3    H275132   0.868   3.368   5.274 -0.4940  1.0294  1.4290
17881TIP3   OH275133   5.858   4.661   5.343 -0.2768 -0.0763  0.1535
17881TIP3    H175134   5.846   4.705   5.258 -0.0635 -0.9224 -0.3252
17881TIP3    H275135   5.789   4.595   5.346 -0.0963 -0.2509  0.5040
17882TIP3   OH275136   6.596   1.651  16.842  0.6538  0.2865 -0.0575
17882TIP3    H175137   6.675   1.657  16.788  1.0541 -0.5107  0.4135
17882TIP3    H275138   6.575   1.557  16.842  0.4915  0.3180  0.9195
17883TIP3   OH275139   6.072   1.604   5.212  0.2839 -0.0315  0.2402
17883TIP3    H175140   6.114   1.519   5.207 -1.2668 -0.8981  0.9891
17883TIP3    H275141   5.978   1.584   5.210 -0.1111  1.6446  0.5122
17884TIP3   OH275142   1.966   6.509   6.166 -0.4321 -0.1914  0.2442
17884TIP3    H175143   2.019   6.558   6.103  1.9022 -0.2809  1.9695
17884TIP3    H275144   1.905   6.574   6.201  0.0733  0.5464 -0.1949
17885TIP3   OH275145   1.188   2.096   3.886  0.1007 -0.0908 -0.2713
17885TIP3    H175146   1.255   2.144   3.838 -0.1681 -0.3812 -0.9593
17885TIP3    H275147   1.230   2.013   3.908 -0.2121 -0.5294 -1.2521
17886TIP3   OH275148   4.219   4.392   0.751  0.9234 -0.3159 -0.6346
17886TIP3    H175149   4.194   4.484   0.757 -2.8034 -1.2031  0.0307
17886TIP3    H275150   4.257   4.372   0.836 -1.3454 -0.0731  0.5147
17887TIP3   OH275151   0.915   3.374   1.373  0.2197  0.3342  0.1246
17887TIP3    H175152   0.955   3.292   1.345  0.4662  0.6287 -0.3954
17887TIP3    H275153   0.989   3.434   1.382 -0.1473  1.0332 -1.3438
17888TIP3   OH275154   3.531   4.186  10.819  0.4140 -0.1565  0.0213
17888TIP3    H175155   3.446   4.149  10.798  0.5991 -1.0262  0.7816
17888TIP3    H275156   3.543   4.256  10.754 -1.5396  1.0255  0.8442
17889TIP3   OH275157   6.173   3.285  16.348  0.1289 -0.2122  0.1654
17889TIP3    H175158   6.243   3.256  16.290  0.0185  1.4370 -0.8487
17889TIP3    H275159   6.211   3.356  16.398 -0.8955  1.0081 -0.7080
17890TIP3   OH275160   1.663   4.990  12.808  0.0813  0.3201  0.6868
17890TIP3    H175161   1.643   4.906  12.766  4.0148 -0.3149 -0.2746
17890TIP3    H275162   1.624   4.984  12.895 -1.6832 -1.5044 -0.1512
17891TIP3   OH275163   2.516   3.343   4.514  0.1107  0.1763 -0.0866
17891TIP3    H175164   2.528   3.438   4.522  0.2795  0.1542 -0.0721
17891TIP3    H275165   2.450   3.321   4.579 -2.3581  0.7593 -2.2117
17892TIP3   OH275166   1.629   1.923   5.223 -0.1839  0.1217 -0.1631
17892TIP3    H175167   1.559   1.943   5.161 -0.9473 -1.3607  0.1718
17892TIP3    H275168   1.687   1.864   5.175 -1.5784 -2.2793  0.8952
17893TIP3   OH275169   6.160   4.628   5.774 -0.0823 -0.6517  0.5023
17893TIP3    H175170   6.248   4.617   5.738  0.4017 -0.4293  1.5738
17893TIP3    H275171   6.102   4.627   5.697  1.0054  0.9302 -0.3939
17894TIP3   OH275172   4.114   6.637   4.356  0.1906  0.3079  0.4025
17894TIP3    H175173   4.091   6.726   4.329 -1.0519 -0.0984  0.0644
17894TIP3    H275174   4.049   6.581   4.314  0.0334 -0.6341  1.8254
17895TIP3   OH275175   5.129   4.617   0.896  0.3216  0.2459 -0.3381
17895TIP3    H175176   5.219   4.636   0.870  0.3010 -0.8576 -1.3248
17895TIP3    H275177   5.076   4.646   0.823 -0.3924  2.8170  1.0718
17896TIP3   OH275178   3.333   4.338   4.055 -0.0063  0.4906  0.0372
17896TIP3    H175179   3.388   4.260   4.059 -1.1144 -0.2479  1.4796
17896TIP3    H275180   3.251   4.312   4.096 -1.3241  1.6871 -1.7133
17897TIP3   OH275181   2.724   6.375  14.934  0.4568  0.0949 -0.6809
17897TIP3    H175182   2.641   6.336  14.906 -0.6254  2.6482 -1.2626
17897TIP3    H275183   2.757   6.315  15.001 -1.4385 -1.3900 -0.9847
17898TIP3   OH275184   1.466   3.420   2.190  0.0081 -0.7621 -0.7852
17898TIP3    H175185   1.536   3.369   2.148 -0.7515 -3.6345  1.1633
17898TIP3    H275186   1.387   3.395   2.143 -0.3137 -1.0283 -0.1066
17899TIP3   OH275187   5.260   1.760  12.752  0.7129 -0.8213 -0.3119
17899TIP3    H175188   5.346   1.759  12.709 -0.0906 -1.5058 -1.9750
17899TIP3    H275189   5.278   1.729  12.841  2.4079  0.5431 -0.1277
17900TIP3   OH275190   5.021   3.789  17.125 -0.9006 -0.4986  0.0228
17900TIP3    H175191   4.991   3.856  17.186 -2.0547 -1.0811  0.1427
17900TIP3    H275192   5.001   3.706  17.169 -2.9474 -0.9722 -1.5817
17901TIP3   OH275193   0.397   5.452  14.761  0.2609  0.3516  0.6390
17901TIP3    H175194   0.482   5.413  14.746  0.2540  0.7998 -0.7481
17901TIP3    H275195   0.346   5.384  14.805  0.8000 -0.5384 -0.0851
17902TIP3   OH275196   0.040   5.073  14.476  0.0411 -0.7790 -0.1939
17902TIP3    H175197   0.024   4.998  14.534  2.8283 -0.1981  1.5206
17902TIP3    H275198   0.117   5.047  14.425  0.1882  0.3827 -0.5841
17903TIP3   OH275199   0.254   0.030  15.457  0.1038  0.2309 -0.2513
17903TIP3    H175200   0.291  -0.058  15.453  1.3492  0.6567  1.1366
17903TIP3    H275201   0.255   0.053  15.550 -0.3454  1.6583 -0.5628
17904TIP3   OH275202   2.905   0.988   0.486 -0.2318 -0.4544 -0.2739
17904TIP3    H175203   2.813   1.014   0.489  0.1439  0.8779  0.1628
17904TIP3    H275204   2.902   0.892   0.479 -1.6409 -0.4573  0.0109
17905TIP3   OH275205   4.113   4.009   2.903  0.1105  0.5318 -1.0302
17905TIP3    H175206   4.036   3.958   2.928 -0.6721  1.3630 -1.6663
17905TIP3    H275207   4.168   4.009   2.981 -0.3704 -0.3482 -0.6700
17906TIP3   OH275208   2.260   0.954  13.348  0.3254  0.2146 -0.3004
17906TIP3    H175209   2.255   0.859  13.360  0.3038  0.2472 -0.0435
17906TIP3    H275210   2.283   0.965  13.255 -3.0626  0.0162 -1.3080
17907TIP3   OH275211   3.671   0.560   6.189  0.4840 -0.0211  0.1633
17907TIP3    H175212   3.709   0.625   6.249 -0.5683  1.2817 -0.5154
17907TIP3    H275213   3.643   0.612   6.113 -1.1133 -1.1611 -0.0715
17908TIP3   OH275214   6.313   5.929  12.149 -0.4468 -0.3198 -0.0941
17908TIP3    H175215   6.399   5.895  12.123 -1.0861 -1.6172 -0.5950
17908TIP3    H275216   6.251   5.860  12.125 -1.5606  0.2766  0.9336
17909TIP3   OH275217   0.286   1.855  11.514  0.0605 -0.1023 -0.2636
17909TIP3    H175218   0.258   1.814  11.596  1.1674 -0.4566 -0.0468
17909TIP3    H275219   0.218   1.830  11.451 -0.8477  0.2420  0.5537
17910TIP3   OH275220   2.949   3.819   2.761  0.2085  0.4478  0.7160
17910TIP3    H175221   2.884   3.823   2.831  0.8777  1.4474  1.3039
17910TIP3    H275222   2.906   3.861   2.686  0.9751  3.4080  1.8118
17911TIP3   OH275223   0.961   4.397   4.719  0.4053  0.0035  0.6589
17911TIP3    H175224   0.887   4.407   4.659  0.7433  0.4491  0.3103
17911TIP3    H275225   0.927   4.430   4.803  0.9604  2.7331 -0.0781
17912TIP3   OH275226   6.510   2.556   1.644 -0.1253  0.7250 -0.2605
17912TIP3    H175227   6.438   2.606   1.605 -0.0468  2.1334  1.3012
17912TIP3    H275228   6.549   2.615   1.709  0.7532 -0.9319  0.8057
17913TIP3   OH275229   6.154   4.668   6.455 -0.1013  0.1904  0.0992
17913TIP3    H175230   6.080   4.611   6.437  1.4127 -1.2999 -1.9036
17913TIP3    H275231   6.223   4.609   6.486  0.1181  1.6216  2.6057
17914TIP3   OH275232   2.357   0.254  13.390  0.2387 -0.0812  0.2114
17914TIP3    H175233   2.396   0.324  13.338 -1.1193 -0.2191 -1.0760
17914TIP3    H275234   2.293   0.213  13.331 -0.2350 -1.2866  1.4968
17915TIP3   OH275235   0.012   0.230  17.335 -0.3735  0.5351  0.4218
17915TIP3    H175236   0.027   0.264  17.247  1.5406 -1.1263  0.0435
17915TIP3    H275237  -0.048   0.156  17.323 -2.9468  2.3591  1.0199
17916TIP3   OH275238   0.395   5.404   4.626  0.4999 -0.7010 -0.3055
17916TIP3    H175239   0.481   5.363   4.636  0.7941  0.1543  1.0152
17916TIP3    H275240   0.352   5.353   4.558  1.8343 -1.5069 -0.5982
17917TIP3   OH275241   1.391   4.099  11.991  0.3139 -0.2874 -0.5648
17917TIP3    H175242   1.418   4.028  11.933  2.0662 -0.5557  0.5198
17917TIP3    H275243   1.415   4.179  11.944 -1.5516 -0.3593 -1.7334
17918TIP3   OH275244   2.345   1.470   3.592  0.2488 -0.4451 -0.3159
17918TIP3    H175245   2.288   1.479   3.668  1.6767 -1.0210  0.8760
17918TIP3    H275246   2.296   1.510   3.520 -0.2962  2.0388  1.3123
17919TIP3   OH275247   2.838   2.396   4.011 -0.1146  0.3675 -0.0387
17919TIP3    H175248   2.879   2.471   3.968  0.9824  0.0416  0.3992
17919TIP3    H275249   2.808   2.430   4.095  1.2658  0.1084  0.5789
17920TIP3   OH275250   5.453   4.955   2.557  0.5259 -0.3354 -0.0987
17920TIP3    H175251   5.401   4.984   2.482  1.1080  1.0150 -0.0073
17920TIP3    H275252   5.505   5.032   2.581 -0.4573 -0.3526  2.3887
17921TIP3   OH275253   3.276   6.418  12.156 -0.3768 -0.1064 -0.0934
17921TIP3    H175254   3.257   6.327  12.181 -2.1620  0.0292 -0.8161
17921TIP3    H275255   3.331   6.451  12.227 -0.7063 -1.3891  0.8026
17922TIP3   OH275256   0.795   1.960   2.068 -0.0388 -0.2120 -0.0513
17922TIP3    H175257   0.817   1.909   2.146  2.2885  1.4616  0.5149
17922TIP3    H275258   0.775   1.895   2.001  0.7028 -1.7810  1.1947
17923TIP3   OH275259   2.745   2.993  16.797  0.5503  0.1970  0.1180
17923TIP3    H175260   2.698   2.937  16.859  0.8475  1.1729  1.2476
17923TIP3    H275261   2.820   2.941  16.769  0.7476 -0.0181  1.0420
17924TIP3   OH275262   0.231   4.870   5.995  0.2247 -0.2036 -0.2243
17924TIP3    H175263   0.216   4.905   6.083  0.6456 -0.2965 -0.1124
17924TIP3    H275264   0.326   4.867   5.986  0.1953 -0.8401 -0.4184
17925TIP3   OH275265   4.580   6.006  16.455 -0.0708 -0.1234 -0.6392
17925TIP3    H175266   4.576   5.912  16.433  0.2932 -0.2039 -0.3687
17925TIP3    H275267   4.621   6.009  16.541 -2.2276  0.1487  0.4240
17926TIP3   OH275268   3.211   1.303  12.875 -0.4581  0.5760  0.4179
17926TIP3    H175269   3.196   1.324  12.783  0.7707  0.2960  0.1293
17926TIP3    H275270   3.154   1.362  12.923 -4.6489 -2.2385 -0.5511
17927TIP3   OH275271   4.364   5.384   3.931 -0.2893 -0.1242 -0.4727
17927TIP3    H175272   4.329   5.376   4.020 -1.6488  0.2176 -0.9504
17927TIP3    H275273   4.360   5.294   3.896  1.0579 -0.4160  0.0852
17928TIP3   OH275274   3.706   0.665  14.818  0.2162 -0.0971 -0.0146
17928TIP3    H175275   3.773   0.733  14.810  0.0210 -0.0124 -1.1846
17928TIP3    H275276   3.750   0.592  14.861  1.0439 -0.0094 -0.6799
17929TIP3   OH275277   3.479   1.499   2.441  0.1279 -0.0166  0.0817
17929TIP3    H175278   3.467   1.548   2.359  3.6682  0.7526 -0.1319
17929TIP3    H275279   3.421   1.542   2.503 -0.6700  1.1234 -1.3889
17930TIP3   OH275280   1.116   5.963   5.159  0.0096  0.2113  0.0759
17930TIP3    H175281   1.145   5.873   5.177  0.2600  0.4760  1.0833
17930TIP3    H275282   1.195   6.016   5.168 -0.3625  0.6740  0.6975
17931TIP3   OH275283   3.413   1.654  11.945  0.0503  0.0940 -1.3462
17931TIP3    H175284   3.357   1.727  11.972  0.5196  0.0441 -0.1951
17931TIP3    H275285   3.370   1.576  11.980  0.6569  0.0250 -0.7379
17932TIP3   OH275286   0.884   6.671  13.432 -0.3206 -0.0371 -0.4267
17932TIP3    H175287   0.831   6.646  13.356  0.9622  1.4842 -1.8798
17932TIP3    H275288   0.880   6.766  13.434 -0.5994 -0.0427  1.6640
17933TIP3   OH275289   1.572   1.090  12.511 -0.0244 -0.0875  0.0388
17933TIP3    H175290   1.478   1.108  12.499  0.0573 -0.5557 -1.4907
17933TIP3    H275291   1.602   1.060  12.425  1.3118 -0.9707  0.7791
17934TIP3   OH275292   1.876   1.980   0.655 -0.3378  0.0455 -0.4751
17934TIP3    H175293   1.932   2.029   0.595  1.1545  1.1967  1.7045
17934TIP3    H275294   1.786   2.001   0.628  0.2837  1.7860 -1.3213
17935TIP3   OH275295   5.841   0.771  16.505  0.1257 -0.3395  0.5985
17935TIP3    H175296   5.758   0.729  16.482  0.4564 -1.4084  1.2578
17935TIP3    H275297   5.817   0.862  16.525 -0.6875 -0.3213 -0.3754
17936TIP3   OH275298   5.727   3.845  15.818 -0.1970 -0.3412  0.0730
17936TIP3    H175299   5.815   3.830  15.783  0.2481 -0.1793  1.0789
17936TIP3    H275300   5.741   3.906  15.891 -1.1653 -0.1970  0.1446
17937TIP3   OH275301   5.974   1.363   2.029  0.3732  0.2965  0.2980
17937TIP3    H175302   5.917   1.438   2.044  1.7368  1.1303  1.5417
17937TIP3    H275303   5.927   1.310   1.965 -0.6262  2.1796 -0.6073
17938TIP3   OH275304   1.046   0.795  11.966 -0.1918 -0.1670  0.0757
17938TIP3    H175305   0.970   0.750  12.004 -0.6667  0.3324 -0.2619
17938TIP3    H275306   1.095   0.726  11.922  0.7884 -0.9135  2.1849
17939TIP3   OH275307   1.943   2.137  12.046 -0.6258 -0.1649  0.1413
17939TIP3    H175308   1.986   2.065  12.093  1.0350  2.1893  2.5883
17939TIP3    H275309   1.852   2.109  12.037 -0.0080 -2.6222  0.7699
17940TIP3   OH275310   4.441   5.587  14.598  0.3457 -0.4256  0.1477
17940TIP3    H175311   4.446   5.594  14.694  1.2307 -2.2550  0.2692
17940TIP3    H275312   4.530   5.568  14.570  0.5213  2.0508 -1.3030
17941TIP3   OH275313   5.154   1.773   0.147 -0.5038 -0.2530 -0.1691
17941TIP3    H175314   5.089   1.713   0.183  0.8876 -1.7582 -0.0310
17941TIP3    H275315   5.108   1.857   0.139 -2.0107 -0.8839  1.2932
17942TIP3   OH275316   6.333   6.306  12.077 -0.3479 -0.5054  0.1232
17942TIP3    H175317   6.378   6.334  11.998 -0.0309 -0.4018  0.3367
17942TIP3    H275318   6.400   6.258  12.127 -0.3936 -0.1223  0.5643
17943TIP3   OH275319   1.941   0.447   4.407  0.1395  0.0465 -0.4255
17943TIP3    H175320   2.018   0.404   4.444  0.5998  1.3030  0.1392
17943TIP3    H275321   1.977   0.509   4.343 -0.5795 -1.2476 -2.1873
17944TIP3   OH275322   3.710   3.707   4.270  0.2415 -0.3631  0.0514
17944TIP3    H175323   3.675   3.639   4.213  0.6055 -0.3469 -0.1943
17944TIP3    H275324   3.691   3.676   4.359 -2.2756  0.6268 -0.0675
17945TIP3   OH275325   0.139   4.842   4.993  0.2098  0.0533 -0.3320
17945TIP3    H175326   0.103   4.838   5.082  0.0617  0.3942 -0.3761
17945TIP3    H275327   0.153   4.750   4.969  0.4254 -0.0356  0.1139
17946TIP3   OH275328   0.381   3.995   3.250  0.0650 -0.3265  0.0844
17946TIP3    H175329   0.386   3.911   3.296 -0.0458 -0.4145 -0.0611
17946TIP3    H275330   0.437   4.054   3.300 -1.3978  0.0554  1.3388
17947TIP3   OH275331   2.549   0.086   6.018  0.0752 -0.4538  0.3048
17947TIP3    H175332   2.469   0.129   5.987 -0.1510 -0.5710  0.7136
17947TIP3    H275333   2.567   0.127   6.103  0.9326  0.1770 -0.1559
17948TIP3   OH275334   1.181   6.261   3.310 -0.2271 -0.3250  0.1339
17948TIP3    H175335   1.139   6.263   3.224  2.2600 -0.3931 -1.1658
17948TIP3    H275336   1.230   6.178   3.310  1.9353  0.8823  0.4689
17949TIP3   OH275337   5.813   2.563   5.385  0.3852 -0.3076 -0.2809
17949TIP3    H175338   5.885   2.612   5.427  0.4853 -0.8954  0.2505
17949TIP3    H275339   5.858   2.495   5.335  0.2291 -0.1229 -0.6707
17950TIP3   OH275340   6.523   0.799   0.817  0.1310 -0.4090 -0.1269
17950TIP3    H175341   6.613   0.824   0.836  0.6992 -0.7892 -2.0800
17950TIP3    H275342   6.471   0.840   0.886  1.8858 -1.2293  1.7867
17951TIP3   OH275343   2.137   1.170   3.618  0.6564  0.0074 -0.1008
17951TIP3    H175344   2.075   1.214   3.560 -0.6838  0.3598  1.5153
17951TIP3    H275345   2.106   1.080   3.623  0.7230 -0.0052  0.0984
17952TIP3   OH275346   3.018   5.853  16.905  0.1536  0.6062  0.6785
17952TIP3    H175347   3.091   5.914  16.892 -0.3510  0.9277 -0.7848
17952TIP3    H275348   2.948   5.887  16.850 -0.6167 -0.5258  0.9253
17953TIP3   OH275349   3.610   1.428  12.159 -0.1937 -0.3687  0.1251
17953TIP3    H175350   3.613   1.333  12.145 -0.3397 -0.2049 -1.0517
17953TIP3    H275351   3.638   1.466  12.076 -0.4352  0.6276  0.4863
17954TIP3   OH275352   4.278   6.302  15.532  0.6271 -0.0876 -0.1193
17954TIP3    H175353   4.314   6.382  15.494 -0.5216 -0.0606 -1.2089
17954TIP3    H275354   4.355   6.250  15.555  1.3801  0.3237 -1.5845
17955TIP3   OH275355   3.557   3.470   6.852  0.5273  0.2783  0.6238
17955TIP3    H175356   3.513   3.552   6.828  0.5346  0.0844 -0.0792
17955TIP3    H275357   3.644   3.497   6.880  0.4023  0.5452  0.7584
17956TIP3   OH275358   3.012   2.757   4.326 -0.7984  0.4559  0.4116
17956TIP3    H175359   2.998   2.742   4.419  1.0600  1.7501  0.9596
17956TIP3    H275360   3.106   2.773   4.318 -1.1055  1.7008 -1.4979
17957TIP3   OH275361   1.359   3.165  15.317  0.0844  0.1809 -0.5403
17957TIP3    H175362   1.303   3.179  15.240  1.1235  1.1492 -1.1611
17957TIP3    H275363   1.447   3.154  15.280  0.3098 -1.4601  0.3952
17958TIP3   OH275364   4.831   0.241  11.516  0.0367  0.5484 -0.6298
17958TIP3    H175365   4.768   0.267  11.583 -0.3564  2.0412 -1.5246
17958TIP3    H275366   4.916   0.253  11.557 -0.2237  0.2987 -0.0114
17959TIP3   OH275367   4.030   4.062   4.955  0.1895  0.0902 -0.4134
17959TIP3    H175368   3.986   4.050   4.871  0.9671  1.4139 -1.0369
17959TIP3    H275369   4.050   3.973   4.985 -0.5836 -0.4172 -1.3499
17960TIP3   OH275370   3.406   5.383   3.472 -0.3961 -0.4781 -0.1267
17960TIP3    H175371   3.399   5.449   3.402 -0.4337  0.4898  0.7752
17960TIP3    H275372   3.427   5.302   3.425  0.4652  0.3198 -1.2035
17961TIP3   OH275373   1.764   5.920   0.116 -0.3287 -0.2959  0.4327
17961TIP3    H175374   1.795   5.987   0.054 -0.4103 -1.6049 -1.0949
17961TIP3    H275375   1.683   5.887   0.077 -0.6986 -0.7520  1.5503
17962TIP3   OH275376   6.417   4.490   1.305  0.2664 -0.3541 -0.3923
17962TIP3    H175377   6.378   4.571   1.339  0.0549  0.8911 -3.3020
17962TIP3    H275378   6.492   4.473   1.363 -0.5821  1.0511  1.1946
17963TIP3   OH275379   6.567   2.561   0.068  0.0949 -0.1306  0.2264
17963TIP3    H175380   6.511   2.602   0.001  0.5253  0.1416  0.0268
17963TIP3    H275381   6.572   2.469   0.042 -0.0909 -0.1139  0.1285
17964TIP3   OH275382   1.142   5.002   0.041 -0.6066 -0.0329  0.1047
17964TIP3    H175383   1.078   5.017   0.111 -0.0841  1.0835  0.3740
17964TIP3    H275384   1.135   4.909   0.021 -3.3681  0.3060 -0.9199
17965TIP3   OH275385   4.783   1.702   3.433 -0.0488 -0.1010 -0.6282
17965TIP3    H175386   4.819   1.734   3.517 -0.6378 -1.3908  0.1351
17965TIP3    H275387   4.831   1.753   3.367  1.0111  0.3793  0.4512
17966TIP3   OH275388   5.831   3.571  14.315  0.5478 -0.4420 -0.5184
17966TIP3    H175389   5.842   3.498  14.254  0.4921 -0.2008 -0.8208
17966TIP3    H275390   5.918   3.610  14.322  0.8678 -1.3109  0.6426
17967TIP3   OH275391   1.194   0.134   0.099  0.0999  0.0052  0.1729
17967TIP3    H175392   1.238   0.049   0.099 -0.8652 -0.5138 -0.1463
17967TIP3    H275393   1.133   0.129   0.026  0.0315  0.9785  0.1540
17968TIP3   OH275394   0.515   2.533   1.208  0.1957 -0.2070  0.0015
17968TIP3    H175395   0.440   2.566   1.258  0.0524 -0.0465 -0.3182
17968TIP3    H275396   0.487   2.537   1.117  0.5367 -0.2979 -0.1092
17969TIP3   OH275397   5.492   0.434  11.917  0.1245 -0.1278 -0.1475
17969TIP3    H175398   5.405   0.411  11.950 -0.8805  1.5767 -1.4369
17969TIP3    H275399   5.483   0.434  11.821  1.8984 -1.0877 -0.3760
17970TIP3   OH275400   6.247   6.143   2.249  0.1026  0.6111 -0.7043
17970TIP3    H175401   6.186   6.110   2.183 -0.6240  0.9156 -0.1982
17970TIP3    H275402   6.271   6.230   2.217 -1.2955  1.3163  0.0788
17971TIP3   OH275403   0.580   1.428   3.718  0.2727 -0.2783  0.2149
17971TIP3    H175404   0.545   1.340   3.706  1.8390 -0.8881 -0.0792
17971TIP3    H275405   0.630   1.424   3.799  0.1267  0.4302  0.3487
17972TIP3   OH275406   1.679   4.995  15.179  0.4067  0.9943  0.1260
17972TIP3    H175407   1.675   5.086  15.211  3.3603  1.1724  0.2969
17972TIP3    H275408   1.714   4.946  15.253  1.5176  0.2661 -0.8545
17973TIP3   OH275409   1.111   1.626   0.842  0.2016 -0.3990 -0.1829
17973TIP3    H175410   1.152   1.711   0.858 -1.0490 -0.1771  2.5495
17973TIP3    H275411   1.031   1.647   0.794 -0.2429  0.0576  0.7238
17974TIP3   OH275412   0.657   0.467  16.924 -0.1827  0.5193 -0.4173
17974TIP3    H175413   0.724   0.412  16.883 -1.0122 -1.4947  0.7594
17974TIP3    H275414   0.707   0.533  16.973  0.9666 -0.5896 -0.0316
17975TIP3   OH275415   2.705   1.719   1.779  0.2428  0.4875 -0.0212
17975TIP3    H175416   2.721   1.808   1.811 -0.5611  0.6777 -0.0996
17975TIP3    H275417   2.676   1.670   1.856  0.4771  0.3530 -0.0192
17976TIP3   OH275418   6.716   2.158   2.772  0.1885 -0.1726  0.0585
17976TIP3    H175419   6.752   2.100   2.838 -0.7750 -0.8479  0.0056
17976TIP3    H275420   6.756   2.130   2.690  0.8446  0.2104  0.2385
17977TIP3   OH275421   5.563   5.175   6.294  0.1768 -0.0868 -0.0124
17977TIP3    H175422   5.537   5.267   6.288 -1.3532 -0.5181 -0.3333
17977TIP3    H275423   5.517   5.132   6.222  0.3821 -1.2191  0.5133
17978TIP3   OH275424   1.931   3.031  14.588  0.1497 -0.6247  0.2579
17978TIP3    H175425   2.003   3.075  14.544 -0.2769 -1.7785 -1.7176
17978TIP3    H275426   1.862   3.025  14.522 -1.0629 -1.2415  1.5033
17979TIP3   OH275427   4.864   2.178  12.743 -0.1622  0.3983  0.0029
17979TIP3    H175428   4.775   2.142  12.739 -0.1188  0.3516 -0.7085
17979TIP3    H275429   4.880   2.194  12.836 -0.5348 -0.5454  0.2321
17980TIP3   OH275430   0.694   4.658   2.496  0.3294  0.0088 -0.4498
17980TIP3    H175431   0.609   4.618   2.476  0.0200  0.0769  0.6644
17980TIP3    H275432   0.738   4.594   2.552  0.2804  0.7466  0.4422
17981TIP3   OH275433   1.802   1.624  11.897  0.0547 -0.0919 -0.1076
17981TIP3    H175434   1.823   1.672  11.817 -1.0052  2.2884  0.9116
17981TIP3    H275435   1.749   1.550  11.867 -1.3891  1.4224 -1.5869
17982TIP3   OH275436   2.917   1.529   0.198 -0.1545 -0.3702 -0.2378
17982TIP3    H175437   2.962   1.461   0.148 -1.2287 -1.3181  0.0397
17982TIP3    H275438   2.934   1.507   0.289 -0.9778 -0.6195 -0.1349
17983TIP3   OH275439   4.165   1.734   4.543  0.0164  0.0277 -0.0049
17983TIP3    H175440   4.220   1.688   4.480 -1.3704 -1.4301 -0.2335
17983TIP3    H275441   4.211   1.724   4.627 -0.0360 -1.4638 -0.1247
17984TIP3   OH275442   0.539   3.021   3.944  0.0630 -0.2604  0.3962
17984TIP3    H175443   0.544   3.109   3.906 -0.7597 -0.2981  0.1906
17984TIP3    H275444   0.625   2.984   3.929  0.2621  0.3305  0.0369
17985TIP3   OH275445   1.241   6.271   5.492  0.2039  0.6093  0.6758
17985TIP3    H175446   1.250   6.339   5.559  0.0195  1.4080 -0.1016
17985TIP3    H275447   1.162   6.294   5.444 -0.0090 -0.3076  0.5636
17986TIP3   OH275448   5.460   3.144  16.693 -0.4407 -0.0141  0.1158
17986TIP3    H175449   5.522   3.210  16.725 -1.2997  0.3351  1.1151
17986TIP3    H275450   5.465   3.151  16.597  1.3258 -0.2709  0.1520
17987TIP3   OH275451   4.317   4.772   3.135 -0.3288  0.3052  0.1051
17987TIP3    H175452   4.384   4.725   3.085 -1.0656 -0.1550 -0.4753
17987TIP3    H275453   4.353   4.860   3.146  1.0998 -0.3933  1.2731
17988TIP3   OH275454   5.639   5.359  11.807 -0.4937 -0.5803  0.7355
17988TIP3    H175455   5.631   5.453  11.824 -0.2219 -0.3256 -0.4695
17988TIP3    H275456   5.729   5.338  11.833 -1.0297 -0.8523  2.4816
17989TIP3   OH275457   5.760   5.881   5.496 -0.1856  0.3580  0.0326
17989TIP3    H175458   5.796   5.923   5.574 -1.6041  0.3102  0.7413
17989TIP3    H275459   5.668   5.865   5.517 -0.5005 -0.0413 -1.4966
17990TIP3   OH275460   1.616   6.400   2.632 -0.3049 -0.4245 -0.1948
17990TIP3    H175461   1.571   6.346   2.568 -1.0097  0.4404 -0.4533
17990TIP3    H275462   1.619   6.487   2.592  0.7123 -0.2417  0.2457
17991TIP3   OH275463   2.195   1.758   0.772 -0.5755 -0.3221  0.0683
17991TIP3    H175464   2.286   1.786   0.784 -0.3339 -0.6151 -0.9336
17991TIP3    H275465   2.185   1.684   0.831  0.1624 -0.9202 -0.5211
17992TIP3   OH275466   3.700   6.521   1.479 -0.1699  0.3443 -0.0573
17992TIP3    H175467   3.645   6.454   1.438  1.0617 -0.6870 -0.0726
17992TIP3    H275468   3.790   6.491   1.465  0.5143  2.7620 -1.3585
17993TIP3   OH275469   4.902   1.177   3.204  0.1431  0.2287 -0.1270
17993TIP3    H175470   4.942   1.096   3.237 -1.4649  0.1251  1.7151
17993TIP3    H275471   4.893   1.233   3.281 -2.9012  0.3880 -0.4928
17994TIP3   OH275472   0.540   3.870  17.252  0.5965 -0.2954 -0.0545
17994TIP3    H175473   0.466   3.916  17.292 -0.5961 -1.3984 -0.8840
17994TIP3    H275474   0.499   3.801  17.199  2.2152 -0.5844 -0.9942
17995TIP3   OH275475   4.334   3.130  12.264 -0.0676 -0.5191  0.3207
17995TIP3    H175476   4.411   3.186  12.257 -0.4146 -0.1483 -0.7353
17995TIP3    H275477   4.270   3.183  12.312  0.1230 -0.5916  0.6554
17996TIP3   OH275478   0.388   2.107  12.076  0.1899 -0.3437  0.5772
17996TIP3    H175479   0.315   2.144  12.125 -0.6950 -1.8652  0.4955
17996TIP3    H275480   0.439   2.059  12.141  0.9387  0.4320  0.5722
17997TIP3   OH275481   6.114   2.284   2.983 -0.0848  0.5107  0.1031
17997TIP3    H175482   6.178   2.221   3.016  0.7785  0.2338 -1.9398
17997TIP3    H275483   6.165   2.364   2.971 -0.6865  0.9853  0.6243
17998TIP3   OH275484   2.799   1.221  15.420 -0.5152 -0.0630  0.0688
17998TIP3    H175485   2.713   1.198  15.384 -1.1058  3.3943 -1.1119
17998TIP3    H275486   2.850   1.249  15.344  1.4863 -1.2959  0.8615
17999TIP3   OH275487   3.244   5.308   1.426  0.0441  0.4746 -0.4502
17999TIP3    H175488   3.254   5.381   1.487  1.3937  0.0255 -0.1045
17999TIP3    H275489   3.175   5.336   1.366  1.4062  2.5861 -1.1156
18000TIP3   OH275490   3.031   1.499   5.636  0.1083  0.4239  0.3120
18000TIP3    H175491   3.085   1.445   5.578 -0.6157 -0.6977  0.6435
18000TIP3    H275492   3.085   1.577   5.653  0.4414  0.6795 -1.6372
18001TIP3   OH275493   4.678   1.937  14.127 -0.3236  0.0604 -0.5206
18001TIP3    H175494   4.685   2.027  14.095 -1.5415  0.1248 -0.6744
18001TIP3    H275495   4.584   1.923  14.139 -0.0134 -0.3804  1.8762
18002TIP3   OH275496   1.560   4.336   5.209  0.1856 -0.0110 -0.0709
18002TIP3    H175497   1.547   4.273   5.138 -1.0402  2.5772 -2.3086
18002TIP3    H275498   1.656   4.342   5.217  0.4702  1.0354 -2.9764
18003TIP3   OH275499   0.758   0.167   0.347 -0.6566 -0.3769  0.0562
18003TIP3    H175500   0.741   0.106   0.419 -3.3371  0.2829  0.0959
18003TIP3    H275501   0.788   0.111   0.276  2.1848 -1.0384  1.6120
18004TIP3   OH275502   4.839   1.694  12.592 -0.0842 -0.4334  0.1243
18004TIP3    H175503   4.754   1.727  12.563  0.4764 -0.4363 -1.7109
18004TIP3    H275504   4.826   1.599  12.600 -0.4677 -0.3351  0.6726
18005TIP3   OH275505   5.617   1.376  13.622  0.4328  0.3390  0.3148
18005TIP3    H175506   5.534   1.417  13.598 -0.5823 -0.0885  2.8791
18005TIP3    H275507   5.598   1.283  13.629  1.0461  0.2679  1.2048
18006TIP3   OH275508   3.790   4.940  16.262 -0.3930  0.4332  0.4323
18006TIP3    H175509   3.794   4.908  16.172 -1.5156  1.0866  0.1294
18006TIP3    H275510   3.724   5.009  16.260 -0.1666  0.7096  1.6853
18007TIP3   OH275511   3.698   3.196  17.297  0.5828  0.2009  0.4188
18007TIP3    H175512   3.696   3.123  17.235 -0.3259  2.2830 -2.1697
18007TIP3    H275513   3.764   3.256  17.262 -2.8364  3.4459 -1.2225
18008TIP3   OH275514   2.197   5.795   5.069 -0.4286  0.4239  0.0601
18008TIP3    H175515   2.203   5.833   4.981 -2.0370  1.0908  0.2148
18008TIP3    H275516   2.203   5.701   5.054 -0.7014  0.5306 -0.7638
18009TIP3   OH275517   1.102   4.390   3.853  0.8649 -0.1660 -0.5757
18009TIP3    H175518   1.130   4.479   3.833  0.9791 -0.2887 -0.9625
18009TIP3    H275519   1.141   4.336   3.785  0.2540 -0.4285 -0.7277
18010TIP3   OH275520   2.879   3.381   4.826  0.0749  0.0298  0.6346
18010TIP3    H175521   2.918   3.413   4.907  0.4169  1.2360  0.0145
18010TIP3    H275522   2.944   3.319   4.791 -0.4083 -1.0810  1.6299
18011TIP3   OH275523   2.688   3.883   1.295  0.2903 -0.1860  0.9334
18011TIP3    H175524   2.654   3.799   1.264  0.8404  0.3754 -1.3571
18011TIP3    H275525   2.707   3.932   1.216  1.6304  1.4582  2.1985
18012TIP3   OH275526   1.624   4.157  16.398  0.2888 -0.6982  0.3324
18012TIP3    H175527   1.547   4.199  16.358  1.0307  1.2290  0.7813
18012TIP3    H275528   1.603   4.064  16.398 -0.1932 -0.7726 -3.6141
18013TIP3   OH275529   0.997   6.746   4.549  0.1027  0.5220  0.3987
18013TIP3    H175530   0.952   6.697   4.481 -1.3857  0.4600  1.3906
18013TIP3    H275531   1.006   6.684   4.622  3.3211 -0.0166 -0.2809
18014TIP3   OH275532   3.593   1.941  12.677  0.5521  0.0382  0.3212
18014TIP3    H175533   3.569   1.894  12.757  2.3484 -0.7795  0.4251
18014TIP3    H275534   3.607   1.872  12.612 -0.3204  0.6625 -0.5681
18015TIP3   OH275535   0.099   4.759  17.335 -0.4942 -0.0165 -0.2407
18015TIP3    H175536   0.119   4.824  17.402 -0.5804 -0.5609  0.3184
18015TIP3    H275537   0.111   4.674  17.379  1.8303 -0.4598 -1.5633
18016TIP3   OH275538   1.637   4.225   5.765  0.1222  0.0587  0.3796
18016TIP3    H175539   1.594   4.144   5.795  0.9533 -0.5107  0.0761
18016TIP3    H275540   1.653   4.211   5.671  1.1886  0.1399  0.5316
18017TIP3   OH275541   4.341   1.075  14.502 -0.3758  0.0063  0.0164
18017TIP3    H175542   4.376   1.160  14.528 -2.3096  0.8568 -0.0222
18017TIP3    H275543   4.410   1.036  14.448  0.4670  1.6357 -0.1344
18018TIP3   OH275544   3.822   6.510   2.742 -0.0337 -0.0273 -0.5773
18018TIP3    H175545   3.832   6.428   2.790 -0.7961  0.0189 -0.3262
18018TIP3    H275546   3.868   6.495   2.659  0.3459 -0.4932 -0.2858
18019TIP3   OH275547   5.914   5.993   4.824  0.0429 -0.1813  0.0003
18019TIP3    H175548   5.875   5.974   4.739 -1.7514  0.9105  0.5249
18019TIP3    H275549   5.928   6.088   4.823 -1.0244  0.0177  1.2900
18020TIP3   OH275550   5.056   6.316   5.970 -0.0962 -0.0257  0.5988
18020TIP3    H175551   5.083   6.382   6.034 -3.4821 -0.1303  2.3917
18020TIP3    H275552   4.961   6.308   5.983 -0.5524 -1.9618 -2.7306
18021TIP3   OH275553   2.109   1.231   5.348 -0.6952 -0.1451  0.1227
18021TIP3    H175554   2.156   1.287   5.409  2.3460 -0.6719 -1.5488
18021TIP3    H275555   2.138   1.142   5.369  0.7042 -0.3198 -2.1576
18022TIP3   OH275556   0.348   0.491  12.287  0.4414  0.6151 -0.2086
18022TIP3    H175557   0.411   0.453  12.225 -0.7719 -0.3914 -0.8599
18022TIP3    H275558   0.275   0.519  12.232 -0.1430  0.8024  0.6504
18023TIP3   OH275559   2.565   3.739   2.497 -0.2900 -0.0129  0.6477
18023TIP3    H175560   2.500   3.788   2.549 -0.8424  1.0673 -0.9910
18023TIP3    H275561   2.562   3.650   2.533 -1.0757  0.5382  2.0465
18024TIP3   OH275562   2.912   5.585   1.135 -0.8937 -0.4171 -0.1583
18024TIP3    H175563   2.857   5.594   1.057 -1.9841  0.5997  0.6841
18024TIP3    H275564   2.990   5.637   1.115 -0.3626 -1.5621 -1.2167
18025TIP3   OH275565   4.108   2.801   0.766 -0.0126 -0.3149 -0.1743
18025TIP3    H175566   4.114   2.713   0.727 -0.8305 -1.2810  1.7091
18025TIP3    H275567   4.019   2.805   0.802  0.4772  0.7330  0.9849
18026TIP3   OH275568   3.186   5.706  16.640  0.2835 -0.5954 -0.1008
18026TIP3    H175569   3.213   5.794  16.616  0.1954 -0.0199  1.7381
18026TIP3    H275570   3.101   5.695  16.598  1.2635 -0.6837 -2.1592
18027TIP3   OH275571   1.717   5.732   1.364  0.3172  0.3948  0.6500
18027TIP3    H175572   1.805   5.733   1.402  1.5594  1.6472 -1.9851
18027TIP3    H275573   1.719   5.661   1.300 -1.0753 -0.4256  1.4612
18028TIP3   OH275574   2.210   2.975  13.489 -0.0780 -0.0138 -0.4420
18028TIP3    H175575   2.121   2.989  13.457 -0.1383 -0.8547 -0.6786
18028TIP3    H275576   2.198   2.929  13.573  0.0919  1.5610  0.4748
18029TIP3   OH275577   2.876   4.645   5.998  0.4254  0.1416  0.0227
18029TIP3    H175578   2.935   4.717   5.975  0.4118 -0.0501 -0.6295
18029TIP3    H275579   2.931   4.585   6.048  1.4297 -1.0991 -2.4001
18030TIP3   OH275580   1.508   3.120   1.149  0.3419  0.4208 -0.0943
18030TIP3    H175581   1.584   3.088   1.100  0.0872 -2.8671  1.3435
18030TIP3    H275582   1.543   3.189   1.205  1.2093  2.2385 -2.7026
18031TIP3   OH275583   4.836   1.017   0.813 -0.1580  0.4141 -0.3308
18031TIP3    H175584   4.765   1.023   0.749  0.0764  1.4106 -0.5086
18031TIP3    H275585   4.795   1.041   0.896 -0.3809 -0.5387 -0.1535
18032TIP3   OH275586   2.068   5.466  12.826  0.3243  0.1879  0.2263
18032TIP3    H175587   2.092   5.508  12.743 -0.6149  0.2225 -0.0415
18032TIP3    H275588   1.989   5.513  12.854 -0.0748 -0.6323  0.5054
18033TIP3   OH275589   5.680   4.812   3.051 -0.2816 -0.2008 -0.2071
18033TIP3    H175590   5.660   4.734   3.000 -1.4274 -0.2972  0.3708
18033TIP3    H275591   5.632   4.801   3.133  0.3947  0.6149  0.3191
18034TIP3   OH275592   0.182   2.740   5.078  0.1350  0.2188 -0.4272
18034TIP3    H175593   0.198   2.646   5.068 -0.6158  0.1261 -0.8258
18034TIP3    H275594   0.095   2.745   5.118 -0.5201  0.7589 -1.8586
18035TIP3   OH275595   3.931   4.998  13.519 -0.1539 -0.2362  0.1053
18035TIP3    H175596   3.870   5.069  13.541 -1.0947 -0.1354 -2.4258
18035TIP3    H275597   3.912   4.929  13.582 -1.5841  0.5108  0.5407
18036TIP3   OH275598   2.555   5.212  11.061  0.2760  0.3279  0.1919
18036TIP3    H175599   2.535   5.217  11.155  0.4007 -0.3609  0.2628
18036TIP3    H275600   2.650   5.199  11.058 -0.0083 -2.2431  0.0918
18037TIP3   OH275601   1.639   4.718   5.098  0.4379  0.3825  0.1530
18037TIP3    H175602   1.698   4.712   5.173  0.6742  1.1212  0.0428
18037TIP3    H275603   1.558   4.677   5.127  0.6834  0.2524  0.6542
18038TIP3   OH275604   0.040   2.200   1.684  0.2850 -0.1099  0.2778
18038TIP3    H175605   0.018   2.286   1.648  1.1641 -0.0344 -0.1038
18038TIP3    H275606  -0.011   2.194   1.764 -0.7761  0.2212 -0.3619
18039TIP3   OH275607   0.241   3.210  12.945 -0.3498  0.2230  0.8439
18039TIP3    H175608   0.218   3.127  12.986  1.1925 -0.9128 -0.4473
18039TIP3    H275609   0.168   3.228  12.885 -1.3720  0.5782  2.1540
18040TIP3   OH275610   5.025   3.589   1.601 -0.3373 -0.0297  0.0579
18040TIP3    H175611   5.106   3.558   1.562 -1.1464 -0.6651 -1.1937
18040TIP3    H275612   4.960   3.523   1.576 -1.3276  0.6782  0.6758
18041TIP3   OH275613   4.360   1.056  12.353 -0.3674  0.1834 -0.7882
18041TIP3    H175614   4.279   1.011  12.374  0.4646 -0.5336  1.0530
18041TIP3    H275615   4.413   0.991  12.307  0.0556 -0.1122  0.0968
18042TIP3   OH275616   0.499   1.952  14.752  0.0642 -0.7526  0.3394
18042TIP3    H175617   0.507   2.008  14.674 -1.6948 -0.5845  0.2544
18042TIP3    H275618   0.426   1.894  14.733 -0.4519 -0.6628  1.8895
18043TIP3   OH275619   2.317   0.135   5.106  0.2367  0.6132  0.9290
18043TIP3    H175620   2.269   0.114   5.025 -0.8029  1.9323  1.1691
18043TIP3    H275621   2.255   0.114   5.176  1.0793 -0.3778  1.3968
18044TIP3   OH275622   3.467   6.216   4.289 -0.0272  0.4003  0.6228
18044TIP3    H175623   3.514   6.225   4.372  1.0823 -1.0666  0.1922
18044TIP3    H275624   3.520   6.264   4.226  0.2582 -0.2504  0.3641
18045TIP3   OH275625   3.498   6.738  11.729  0.2390 -0.3293 -0.0550
18045TIP3    H175626   3.443   6.661  11.715 -1.5605  0.8365  0.1570
18045TIP3    H275627   3.452   6.788  11.797  2.0323  0.3117  0.7447
18046TIP3   OH275628   0.987   1.062   3.687  0.6451 -0.2400  0.3916
18046TIP3    H175629   0.973   1.016   3.769 -1.5441 -1.2288 -0.4702
18046TIP3    H275630   0.980   1.155   3.709 -0.6004 -0.5173  1.2160
18047TIP3   OH275631   1.090   4.090   0.445 -0.2054  0.1294 -0.0442
18047TIP3    H175632   1.078   3.996   0.459  2.5126 -0.2154  0.4916
18047TIP3    H275633   1.176   4.097   0.404  0.2281  2.4366  1.0909
18048TIP3   OH275634   3.441   6.035   4.927 -0.4353 -0.1299  0.9093
18048TIP3    H175635   3.456   5.980   5.004  0.8797 -1.6377 -0.3512
18048TIP3    H275636   3.491   5.992   4.858 -0.7038  1.7883 -0.5312
18049TIP3   OH275637   4.846   0.979  11.098  0.4450 -0.5035  0.0715
18049TIP3    H175638   4.797   0.908  11.139  2.0726 -0.8245  1.5374
18049TIP3    H275639   4.926   0.937  11.066  0.5872  0.3432 -0.7226
18050TIP3   OH275640   0.847   2.360  16.272  0.2523 -0.3938  0.0308
18050TIP3    H175641   0.792   2.286  16.296  1.3879 -0.8113  1.4277
18050TIP3    H275642   0.809   2.434  16.320  0.8562 -0.6671  0.9379
18051TIP3   OH275643   2.349   6.024   1.084 -0.2559  0.0398  0.1037
18051TIP3    H175644   2.260   6.016   1.049 -1.0079  0.0518  1.8805
18051TIP3    H275645   2.338   6.015   1.179  1.7715 -0.9422  0.3027
18052TIP3   OH275646   5.245   2.987   6.554  0.3502  0.0754  0.0745
18052TIP3    H175647   5.312   2.988   6.622  0.3603 -0.7968  0.0829
18052TIP3    H275648   5.163   2.982   6.602  0.4077 -2.4460  0.0463
18053TIP3   OH275649   4.990   1.675   3.873 -0.3707  0.3895 -0.3680
18053TIP3    H175650   4.947   1.676   3.959 -0.3310  0.0586 -0.3444
18053TIP3    H275651   5.025   1.587   3.865  0.7984  0.8158 -0.1409
18054TIP3   OH275652   3.293   1.507   0.162 -0.3649 -0.3188  0.0938
18054TIP3    H175653   3.355   1.447   0.203 -2.2248 -0.8518  2.3234
18054TIP3    H275654   3.229   1.450   0.119 -1.7513 -0.0240  1.6322
18055TIP3   OH275655   2.948   2.298   0.252  0.1396  0.4447 -0.0405
18055TIP3    H175656   2.912   2.256   0.174 -0.1907  0.8360 -0.1052
18055TIP3    H275657   2.893   2.266   0.324  0.1128  0.4845 -0.0428
18056TIP3   OH275658   6.324   2.800   5.499 -0.0559  0.7615 -0.5046
18056TIP3    H175659   6.381   2.749   5.441 -0.4391 -1.9650  1.3347
18056TIP3    H275660   6.366   2.795   5.585 -0.8580  2.3954  0.0181
18057TIP3   OH275661   5.114   5.141   3.445  0.0015 -0.3893 -0.2314
18057TIP3    H175662   5.208   5.155   3.437  0.1711 -0.1787  1.6975
18057TIP3    H275663   5.086   5.117   3.357  1.5708  1.1395 -1.2111
18058TIP3   OH275664   0.140   0.864  13.197  0.0779 -0.2376  0.1521
18058TIP3    H175665   0.112   0.955  13.192 -0.2792 -0.1998  2.0019
18058TIP3    H275666   0.098   0.821  13.123 -1.4584  0.7049  0.4409
18059TIP3   OH275667   3.717   3.275   3.976  0.2446 -0.1173 -0.7278
18059TIP3    H175668   3.666   3.329   3.916 -1.3049  0.5618  1.0890
18059TIP3    H275669   3.807   3.308   3.968 -0.1701  0.8451 -1.6427
18060TIP3   OH275670   1.656   4.866  15.981 -0.4486 -0.0164 -0.4935
18060TIP3    H175671   1.737   4.917  15.994 -0.9450  0.4280  1.1288
18060TIP3    H275672   1.589   4.932  15.965 -0.6847 -0.3279 -0.8126
18061TIP3   OH275673   1.807   3.667   2.745  0.2895  0.0888  0.0863
18061TIP3    H175674   1.867   3.595   2.726 -1.9447 -2.4110  1.6886
18061TIP3    H275675   1.720   3.630   2.729 -0.9375  2.9395 -0.3703
18062TIP3   OH275676   1.293   1.471  15.016  0.0463  0.8162  0.3304
18062TIP3    H175677   1.329   1.384  15.001  0.3797  1.0857 -0.5106
18062TIP3    H275678   1.222   1.479  14.952 -2.3350 -0.1244  2.6641
18063TIP3   OH275679   3.133   1.897  16.774 -0.3374 -0.3240  0.1189
18063TIP3    H175680   3.042   1.888  16.747 -0.8455 -1.2104  1.9538
18063TIP3    H275681   3.129   1.908  16.869  1.4887 -0.8898  0.2989
18064TIP3   OH275682   1.129   3.692  14.321 -0.4095  0.4354  0.6644
18064TIP3    H175683   1.050   3.683  14.268  1.2910  1.1711 -2.2282
18064TIP3    H275684   1.112   3.768  14.377 -2.3055 -0.3983  1.3012
18065TIP3   OH275685   2.684   6.436  13.890  0.5594  0.2581  0.4023
18065TIP3    H175686   2.748   6.447  13.820  0.1672  0.0232 -0.0013
18065TIP3    H275687   2.650   6.348  13.877  0.0206  0.4494  0.5005
18066TIP3   OH275688   5.511   1.678   2.110  0.0647 -0.1956  0.3833
18066TIP3    H175689   5.581   1.683   2.045 -1.1341 -1.0762 -1.0638
18066TIP3    H275690   5.548   1.717   2.189  2.4459 -1.3906 -0.0558
18067TIP3   OH275691   1.764   0.256   0.689  0.2081  0.0354  0.7370
18067TIP3    H175692   1.725   0.270   0.602  0.6229 -3.4273 -0.1506
18067TIP3    H275693   1.729   0.327   0.743 -1.5583  1.2138 -1.7780
18068TIP3   OH275694   3.226   5.386  13.104 -0.3597  0.0460 -0.3740
18068TIP3    H175695   3.294   5.404  13.169 -1.9777  0.7262  1.2026
18068TIP3    H275696   3.230   5.291  13.091  1.5968  0.1834 -1.1901
18069TIP3   OH275697   3.700   2.424   3.344  0.3799 -0.0008 -0.6849
18069TIP3    H175698   3.744   2.439   3.261 -0.9684  0.2000 -1.3890
18069TIP3    H275699   3.765   2.378   3.398  1.7324  1.0684 -1.3510
18070TIP3   OH275700   4.183   5.659  15.562  0.1820 -0.2904  0.1363
18070TIP3    H175701   4.182   5.592  15.493 -2.5415  0.4473 -0.6550
18070TIP3    H275702   4.256   5.633  15.619  0.6662 -2.6047 -1.3851
18071TIP3   OH275703   3.970   1.588  13.376 -0.3065 -0.2131 -0.0755
18071TIP3    H175704   4.023   1.510  13.393 -0.7681 -0.2884  1.1565
18071TIP3    H275705   3.889   1.554  13.337  1.0174  0.0128 -3.2581
18072TIP3   OH275706   1.958   1.452  12.059 -0.6443  0.3282  0.2968
18072TIP3    H175707   1.917   1.371  12.028  1.1661 -0.3080 -0.5843
18072TIP3    H275708   1.950   1.512  11.984  1.4354 -0.3603 -0.5512
18073TIP3   OH275709   4.058   3.808   6.057  0.5328  0.2845 -0.2853
18073TIP3    H175710   4.106   3.729   6.080 -0.8520 -0.2110  1.0699
18073TIP3    H275711   3.966   3.785   6.073 -0.3348  0.8611 -3.6483
18074TIP3   OH275712   4.713   2.864   3.927 -0.2488  0.6471 -0.0442
18074TIP3    H175713   4.767   2.786   3.912 -1.4266 -0.3694  0.7066
18074TIP3    H275714   4.769   2.938   3.905  1.2498 -0.3796  0.1847
18075TIP3   OH275715   4.717   1.066   1.991 -0.0608 -0.4441  0.5411
18075TIP3    H175716   4.775   1.135   1.958  0.0526 -0.5143  0.5909
18075TIP3    H275717   4.756   1.041   2.075  0.1350 -0.8596  0.3319
18076TIP3   OH275718   5.499   5.129  15.093  0.2830 -0.4388  0.4773
18076TIP3    H175719   5.433   5.070  15.128  1.2720 -2.9122 -1.4780
18076TIP3    H275720   5.563   5.139  15.163  0.3225 -2.1419  0.7217
18077TIP3   OH275721   0.791   5.097  11.408 -0.2208 -0.2078  0.4760
18077TIP3    H175722   0.794   5.045  11.489  0.3737 -1.4909 -0.3354
18077TIP3    H275723   0.698   5.103  11.387 -0.2909 -1.2158  0.4345
18078TIP3   OH275724   1.086   5.963   4.406 -0.7390 -0.8591  0.1970
18078TIP3    H175725   1.003   5.965   4.359 -1.1297 -0.3276  0.8913
18078TIP3    H275726   1.100   5.871   4.426 -0.1529 -1.2151 -1.6436
18079TIP3   OH275727   5.049   6.585  12.776 -0.2030 -0.2094 -0.6500
18079TIP3    H175728   4.993   6.519  12.734 -0.1862 -0.5800 -0.0902
18079TIP3    H275729   5.054   6.656  12.711 -1.3872 -0.1314 -0.6739
18080TIP3   OH275730   0.710   0.055   1.889  0.1038 -0.0322  0.3048
18080TIP3    H175731   0.781   0.095   1.839 -0.6227  1.0341  0.0737
18080TIP3    H275732   0.733   0.070   1.981  1.3362 -1.8095  0.3285
18081TIP3   OH275733   3.180   1.573  14.473 -0.3165 -0.7817 -0.6297
18081TIP3    H175734   3.141   1.567  14.386 -0.5625  0.1476 -0.5893
18081TIP3    H275735   3.270   1.542  14.462 -1.0658 -3.1539 -0.6892
18082TIP3   OH275736   4.102   3.313  14.411  0.2500 -0.5613 -0.0329
18082TIP3    H175737   4.053   3.257  14.351 -0.9320  1.5552 -1.1497
18082TIP3    H275738   4.170   3.353  14.357  1.1668 -0.9989  0.7747
18083TIP3   OH275739   3.712   4.774   2.809 -0.1524 -0.3665  0.5655
18083TIP3    H175740   3.782   4.839   2.813 -0.5733  0.2624 -1.2604
18083TIP3    H275741   3.673   4.775   2.897  0.9175  0.6206  1.0536
18084TIP3   OH275742   3.536   2.659  15.934 -0.1914 -0.3118 -0.3102
18084TIP3    H175743   3.456   2.686  15.889 -1.8279 -3.8676  0.1304
18084TIP3    H275744   3.512   2.657  16.027 -0.3728 -3.2854 -0.3249
18085TIP3   OH275745   5.779   6.214  13.847  0.2543  0.3706 -0.5798
18085TIP3    H175746   5.849   6.270  13.881  0.7396  0.7287 -2.0865
18085TIP3    H275747   5.781   6.137  13.902  0.6888  1.1170  0.4812
18086TIP3   OH275748   3.968   6.259  12.383 -0.7229 -0.0198 -0.4268
18086TIP3    H175749   3.946   6.213  12.464 -1.9606  1.3470  0.0750
18086TIP3    H275750   4.045   6.311  12.405  0.0931 -1.0802 -0.7122
18087TIP3   OH275751   4.793   1.392  12.240  0.0547  0.1034 -0.2104
18087TIP3    H175752   4.725   1.333  12.207 -1.4796  2.6654 -1.9320
18087TIP3    H275753   4.788   1.384  12.336  0.0017 -2.5419 -0.3632
18088TIP3   OH275754   4.426   0.927   3.102 -0.2542 -0.3732 -0.2021
18088TIP3    H175755   4.350   0.905   3.155 -0.0320 -2.3774 -0.6630
18088TIP3    H275756   4.390   0.947   3.015 -0.4236  0.9769  0.1428
18089TIP3   OH275757   0.429   0.295   3.984  0.2133 -0.1168  0.4096
18089TIP3    H175758   0.430   0.364   3.918 -0.2414  0.0491  0.5740
18089TIP3    H275759   0.485   0.329   4.054 -1.2205  0.7849  1.1751
18090TIP3   OH275760   3.462   5.377  12.461  0.0265 -0.2206  0.0867
18090TIP3    H175761   3.422   5.438  12.399 -0.4527 -0.1406  0.4663
18090TIP3    H275762   3.396   5.367  12.530  0.9400  0.4426  1.0820
18091TIP3   OH275763   4.189   5.834   6.209  0.0611 -0.8332  0.2318
18091TIP3    H175764   4.125   5.905   6.211  2.6502  1.6558  0.7552
18091TIP3    H275765   4.222   5.829   6.299  2.0730 -0.5646 -0.4452
18092TIP3   OH275766   2.903   1.363   1.137 -0.3565  0.4325  0.0309
18092TIP3    H175767   2.963   1.288   1.145 -0.0332  0.8059  1.2712
18092TIP3    H275768   2.840   1.351   1.207  0.1649  1.7336  0.7567
18093TIP3   OH275769   5.767   3.821  14.441 -0.5431 -0.2664 -0.2393
18093TIP3    H175770   5.701   3.848  14.505  0.2751 -0.5801  0.7691
18093TIP3    H275771   5.782   3.729  14.460  1.1369  0.1162  0.4305
18094TIP3   OH275772   5.835   5.430  15.095 -0.2790 -0.4992 -0.1320
18094TIP3    H175773   5.745   5.427  15.062 -1.4562  1.2017  2.5195
18094TIP3    H275774   5.875   5.504  15.049 -0.8518 -0.1343 -0.0550
18095TIP3   OH275775   3.543   4.443  14.622 -0.4137 -0.1775  0.0572
18095TIP3    H175776   3.454   4.421  14.595 -0.2532  0.8051 -1.3450
18095TIP3    H275777   3.558   4.531  14.588  1.1160 -0.3421  0.2241
18096TIP3   OH275778   1.997   2.996  13.933 -0.0012  0.2946  0.1939
18096TIP3    H175779   2.042   2.984  13.849  2.3412  1.5033  1.1938
18096TIP3    H275780   1.907   3.017  13.909 -0.1681 -2.2885 -1.9070
18097TIP3   OH275781   3.615   6.367   1.720  0.4764 -0.6413  0.3070
18097TIP3    H175782   3.613   6.423   1.642 -1.2816  0.3081  0.9814
18097TIP3    H275783   3.545   6.303   1.705 -0.4456  0.0642  1.4309
18098TIP3   OH275784   6.427   5.691  11.805 -0.3528 -0.1104  0.4225
18098TIP3    H175785   6.449   5.608  11.848  0.4384 -0.4276 -0.5605
18098TIP3    H275786   6.379   5.666  11.726 -2.3983  0.4962  1.3891
18099TIP3   OH275787   1.969   5.187   0.036 -0.1080 -0.0940  0.1231
18099TIP3    H175788   2.013   5.269   0.012 -0.8463 -0.4946 -3.0203
18099TIP3    H275789   1.900   5.214   0.097  0.8166  1.3503  0.5803
18100TIP3   OH275790   3.598   5.884  15.737 -0.3418  0.0325 -0.0210
18100TIP3    H175791   3.608   5.976  15.712  2.1747 -0.6316 -1.8197
18100TIP3    H275792   3.610   5.884  15.832  0.2376  1.4993 -0.0647
18101TIP3   OH275793   4.300   1.141   5.669 -0.2401  0.2524  0.4638
18101TIP3    H175794   4.278   1.108   5.757  1.4242 -0.8055  0.5381
18101TIP3    H275795   4.388   1.177   5.679 -0.2943  0.7177 -0.6356
18102TIP3   OH275796   1.016   4.608  17.025 -0.4585  0.0391 -0.2121
18102TIP3    H175797   1.010   4.688  17.077  1.5461 -0.5484  1.0631
18102TIP3    H275798   1.098   4.617  16.977  0.0980 -1.4683  0.4061
18103TIP3   OH275799   1.844   3.984   5.734 -0.0916 -0.0360 -0.1627
18103TIP3    H175800   1.792   4.064   5.743 -0.2390  0.3065 -3.1712
18103TIP3    H275801   1.786   3.923   5.689  0.5419 -1.3628  0.7492
18104TIP3   OH275802   3.457   0.887   0.834  0.0137 -0.4581  0.0731
18104TIP3    H175803   3.544   0.919   0.810 -0.1571  0.7588  0.9689
18104TIP3    H275804   3.462   0.875   0.929 -0.3761 -1.7689 -0.0545
18105TIP3   OH275805   6.233   0.667  11.743  0.7404  0.5113 -0.2388
18105TIP3    H175806   6.139   0.652  11.736  0.7340 -0.5541  1.5606
18105TIP3    H275807   6.269   0.632  11.662 -0.2253 -1.1541  0.0130
18106TIP3   OH275808   3.785   2.125  14.395  0.5255 -0.2449  0.2250
18106TIP3    H175809   3.731   2.184  14.342  0.5007 -0.8571 -0.4499
18106TIP3    H275810   3.873   2.161  14.387  0.2908  0.5281  1.0045
18107TIP3   OH275811   4.840   5.080   1.553  0.7973 -0.2785  0.4101
18107TIP3    H175812   4.859   5.098   1.645  0.9971 -0.2938  0.3711
18107TIP3    H275813   4.746   5.063   1.551  0.6425  0.5288  0.4876
18108TIP3   OH275814   0.934   1.463  16.655  0.2010 -0.1416  0.0740
18108TIP3    H175815   0.840   1.468  16.637 -0.0020  0.1286  1.1597
18108TIP3    H275816   0.975   1.494  16.574 -0.6979  1.5773  0.2203
18109TIP3   OH275817   6.204   1.065  15.479  0.3379  0.2126 -0.0798
18109TIP3    H175818   6.201   0.995  15.414 -0.4233  0.6547 -0.5442
18109TIP3    H275819   6.181   1.145  15.430 -0.3786  0.5353  0.7356
18110TIP3   OH275820   5.703   2.935  16.568  1.1435 -0.0727 -0.3608
18110TIP3    H175821   5.766   2.899  16.507  2.4048 -0.4213  1.0939
18110TIP3    H275822   5.738   3.021  16.592  0.2767  0.3859 -0.6901
18111TIP3   OH275823   3.790   3.056   0.116 -0.1714  0.1672  0.3263
18111TIP3    H175824   3.772   2.962   0.107 -0.3789 -0.1001  2.7631
18111TIP3    H275825   3.765   3.076   0.206  0.6969  2.3885  0.1251
18112TIP3   OH275826   1.213   0.246   0.359  0.4584  0.0163 -0.0338
18112TIP3    H175827   1.191   0.335   0.330 -2.2203 -0.0844  1.3832
18112TIP3    H275828   1.188   0.190   0.286 -1.5907  0.1745  0.4748
18113TIP3   OH275829   2.253   6.205   2.083  0.2490  0.3781  0.2170
18113TIP3    H175830   2.324   6.141   2.090  0.8308  1.1273  1.6390
18113TIP3    H275831   2.182   6.158   2.039  1.5342 -0.4527 -1.0345
18114TIP3   OH275832   1.254   1.009   3.158  0.1959  0.4460  0.7417
18114TIP3    H175833   1.192   0.970   3.096  0.3382  2.5927 -0.8758
18114TIP3    H275834   1.303   0.935   3.193 -0.5012 -0.9556 -1.0796
18115TIP3   OH275835   4.217   2.832   1.803  0.1811  0.5347 -0.5184
18115TIP3    H175836   4.195   2.803   1.714  1.6153 -1.8640 -0.1978
18115TIP3    H275837   4.306   2.867   1.795 -0.4634  2.2698 -0.3569
18116TIP3   OH275838   0.665   4.220  15.890  0.1656  0.3971 -0.0452
18116TIP3    H175839   0.656   4.141  15.943 -3.0266  0.9774  0.4941
18116TIP3    H275840   0.648   4.291  15.951  1.7331  1.4562 -0.7953
18117TIP3   OH275841   3.253   5.786   1.426  0.0412 -0.6858  0.1912
18117TIP3    H175842   3.322   5.733   1.466  2.4696  0.5413 -2.1345
18117TIP3    H275843   3.299   5.851   1.374 -2.8921  1.3295 -0.1186
18118TIP3   OH275844   1.228   0.198   5.372 -0.0387  0.3590  0.2620
18118TIP3    H175845   1.152   0.245   5.406  0.0699  0.2746  0.6287
18118TIP3    H275846   1.284   0.186   5.449 -0.2170 -0.6582  0.2378
18119TIP3   OH275847   2.685   0.581  16.687  0.3322  0.5044  0.0308
18119TIP3    H175848   2.760   0.639  16.693  0.0407  0.9160 -0.2860
18119TIP3    H275849   2.709   0.518  16.619  0.2558  0.8341 -0.3007
18120TIP3   OH275850   3.113   5.370  16.808  0.5967 -0.3550  0.0491
18120TIP3    H175851   3.122   5.309  16.881  1.1604 -2.6832 -1.8659
18120TIP3    H275852   3.118   5.457  16.849 -2.8310 -1.3989  3.2758
18121TIP3   OH275853   4.924   3.678  12.400  0.1004 -0.0359 -0.1340
18121TIP3    H175854   4.992   3.743  12.417 -0.0199  0.0325  0.0886
18121TIP3    H275855   4.842   3.727  12.410  0.0242  0.2776 -1.9316
18122TIP3   OH275856   0.601   0.946  12.243 -0.4493 -0.4838 -0.1320
18122TIP3    H175857   0.632   0.944  12.152  0.3275 -0.0831  0.1189
18122TIP3    H275858   0.517   0.992  12.239  0.8636  2.0275 -0.2890
18123TIP3   OH275859   5.937   3.186  13.774  0.6858 -0.3604 -0.4704
18123TIP3    H175860   6.031   3.205  13.768  0.7343 -0.5647 -0.3597
18123TIP3    H275861   5.914   3.152  13.688  0.7187 -0.3318 -0.4904
18124TIP3   OH275862   1.229   4.564   2.289  0.2714 -0.1556 -0.4184
18124TIP3    H175863   1.279   4.562   2.371 -0.0171 -1.7089 -0.2555
18124TIP3    H275864   1.215   4.472   2.268  0.2115  0.2260 -2.1480
18125TIP3   OH275865   5.518   5.958   3.424 -1.0167 -0.0143 -0.7040
18125TIP3    H175866   5.469   5.993   3.499 -0.4888  0.2625 -0.4822
18125TIP3    H275867   5.553   5.875   3.455 -1.1549 -0.1034 -0.7865
18126TIP3   OH275868   0.195   4.258   0.546  0.0801 -0.5797 -0.6495
18126TIP3    H175869   0.109   4.299   0.551 -0.1662 -1.0708 -0.8052
18126TIP3    H275870   0.192   4.189   0.612  1.3267  1.1446  1.3628
18127TIP3   OH275871   0.149   1.796  14.908  0.2929  0.4760 -0.5613
18127TIP3    H175872   0.180   1.885  14.924 -0.4981  1.1824 -2.6397
18127TIP3    H275873   0.209   1.760  14.842 -0.0742 -0.1142 -0.5894
18128TIP3   OH275874   4.415   0.833  14.977  0.0613 -0.1155  0.2927
18128TIP3    H175875   4.395   0.884  14.898  1.7421 -0.0831 -0.1446
18128TIP3    H275876   4.415   0.897  15.048  1.4033  0.3886 -0.1384
18129TIP3   OH275877   3.506   3.878  15.921  0.0867  0.4265  0.3681
18129TIP3    H175878   3.443   3.865  15.992  0.2401  0.5685  0.5346
18129TIP3    H275879   3.453   3.887  15.842 -0.0286 -2.6678 -0.0413
18130TIP3   OH275880   0.074   3.668  14.904  0.1567  0.0804 -0.2475
18130TIP3    H175881   0.016   3.604  14.863  1.0266 -0.3989 -0.7790
18130TIP3    H275882   0.079   3.740  14.841  0.7737 -0.2494 -0.5899
18131TIP3   OH275883   1.786   3.413   5.140  0.0260 -0.2947 -0.3472
18131TIP3    H175884   1.707   3.440   5.094 -0.5526 -0.6776  0.3953
18131TIP3    H275885   1.818   3.493   5.182  1.4638  0.4255 -2.6541
18132TIP3   OH275886   4.001   2.460  16.448  0.5555 -0.2221  0.0592
18132TIP3    H175887   4.061   2.397  16.409  0.6824 -1.6743  2.4225
18132TIP3    H275888   4.031   2.469  16.538 -0.6649  1.7580  0.3283
18133TIP3   OH275889   4.754   2.427   5.428  0.4673 -0.0201 -0.4595
18133TIP3    H175890   4.787   2.406   5.340 -1.9023  0.7062 -1.6147
18133TIP3    H275891   4.662   2.402   5.425 -0.6309  3.3747  0.5675
18134TIP3   OH275892   4.190   3.261  17.195  0.2370  0.6644 -0.0093
18134TIP3    H175893   4.205   3.242  17.102 -0.0353 -2.2526  0.4421
18134TIP3    H275894   4.203   3.356  17.203  0.1305  1.0216 -3.0254
18135TIP3   OH275895   1.728   1.242   6.716 -0.1498  0.3039  0.2213
18135TIP3    H175896   1.700   1.236   6.624 -0.9671 -0.7225  0.5115
18135TIP3    H275897   1.663   1.300   6.757  0.3862  0.9995  0.0938
18136TIP3   OH275898   4.429   0.711  13.760  0.1569  0.1222 -0.6892
18136TIP3    H175899   4.503   0.715  13.821 -0.4164  1.1570 -0.0261
18136TIP3    H275900   4.424   0.619  13.734  2.2589  0.1819 -1.4984
18137TIP3   OH275901   2.617   1.140   5.268 -0.2292 -0.4094  0.2634
18137TIP3    H175902   2.598   1.093   5.350  0.2686 -0.3228  0.4298
18137TIP3    H275903   2.652   1.073   5.210 -0.7668 -0.5120  0.0486
18138TIP3   OH275904   5.908   5.017  15.790  0.3951  0.2149  0.4789
18138TIP3    H175905   5.850   4.992  15.863 -0.5337  1.5314  0.2309
18138TIP3    H275906   5.941   5.103  15.815  0.9643  0.1810 -0.1502
18139TIP3   OH275907   0.695   5.896  11.619 -0.3836 -0.2528 -0.1188
18139TIP3    H175908   0.734   5.813  11.591  0.2462 -0.5140  1.4298
18139TIP3    H275909   0.699   5.893  11.715 -1.2457  1.1497 -0.0140
18140TIP3   OH275910   6.136   2.441   4.551 -0.0837  0.2435  0.2512
18140TIP3    H175911   6.216   2.441   4.603  0.3497  2.1838 -0.3519
18140TIP3    H275912   6.081   2.374   4.593  1.1577  0.0770  1.7270
18141TIP3   OH275913   5.062   0.466  14.319  0.2577 -0.2350 -0.1338
18141TIP3    H175914   5.138   0.491  14.268  0.0147 -0.8362 -0.8128
18141TIP3    H275915   5.071   0.371  14.332 -0.4725 -0.3511 -0.4045
18142TIP3   OH275916   0.357   3.860   3.684 -0.0656 -0.1258 -0.1783
18142TIP3    H175917   0.348   3.818   3.599  0.0752 -0.1531 -0.1803
18142TIP3    H275918   0.428   3.923   3.672 -2.1596  2.2367 -1.0240
18143TIP3   OH275919   1.717   6.619  14.361 -0.2288 -0.2944 -0.2983
18143TIP3    H175920   1.661   6.542  14.371 -1.0639  0.2924 -0.3534
18143TIP3    H275921   1.704   6.645  14.270 -1.2702  0.8920  0.1659
18144TIP3   OH275922   3.425   4.481  15.907  0.7535  0.5565  0.2223
18144TIP3    H175923   3.479   4.403  15.917  0.0591  0.2223  1.8035
18144TIP3    H275924   3.437   4.529  15.988 -0.2104  1.1820  0.0152
18145TIP3   OH275925   3.061   2.407   1.776  0.5062 -0.0226 -0.1286
18145TIP3    H175926   2.987   2.363   1.819  1.9165 -1.5501  0.8637
18145TIP3    H275927   3.020   2.464   1.711 -1.6465  0.6410  1.6509
18146TIP3   OH275928   4.925   0.566   3.557 -0.1115 -0.3879 -0.9315
18146TIP3    H175929   4.887   0.601   3.476  0.6710 -1.0116 -1.5850
18146TIP3    H275930   4.934   0.472   3.541 -1.9221 -0.8939  0.6954
18147TIP3   OH275931   3.914   3.922   0.481 -0.0498  0.3701 -0.2458
18147TIP3    H175932   3.990   3.897   0.534 -0.0029 -1.2904 -1.0284
18147TIP3    H275933   3.840   3.921   0.543  0.3580  0.7837  0.2581
18148TIP3   OH275934   1.107   2.293  16.733 -0.5656  0.1081 -0.5177
18148TIP3    H175935   1.163   2.303  16.811  0.3624  0.8141 -1.2501
18148TIP3    H275936   1.116   2.376  16.687 -0.4105 -0.6057 -1.8271
18149TIP3   OH275937   5.830   4.542   4.231  0.0443  0.0894 -0.2252
18149TIP3    H175938   5.791   4.494   4.158  1.5585 -1.0043 -0.3700
18149TIP3    H275939   5.905   4.588   4.193 -0.1752  0.9355  0.3220
18150TIP3   OH275940   2.176   1.662  15.505 -0.1935 -0.0736  0.2597
18150TIP3    H175941   2.149   1.683  15.415  0.3996  1.0487  0.3220
18150TIP3    H275942   2.095   1.667  15.556 -0.9058 -2.5867 -0.4654
18151TIP3   OH275943   3.630   3.540  16.086 -0.1886 -0.3082  0.3638
18151TIP3    H175944   3.589   3.563  16.170 -0.3131 -2.7963  1.0592
18151TIP3    H275945   3.692   3.611  16.070 -1.1273  0.9358  1.8568
18152TIP3   OH275946   0.218   4.451  11.795 -0.0202 -0.0107  0.7465
18152TIP3    H175947   0.143   4.509  11.780  0.0580  0.0346  0.5210
18152TIP3    H275948   0.231   4.407  11.711 -0.3532 -0.6815  1.0411
18153TIP3   OH275949   6.149   4.644   2.337 -0.0591 -0.2514  0.3202
18153TIP3    H175950   6.151   4.579   2.267  0.2023  0.5578 -0.4335
18153TIP3    H275951   6.105   4.720   2.299 -1.3703 -0.3698  1.5427
18154TIP3   OH275952   4.749   2.110  15.874  0.2773  0.0099 -0.4317
18154TIP3    H175953   4.693   2.033  15.863  0.0639  0.2460 -1.0383
18154TIP3    H275954   4.838   2.075  15.875  0.1382 -0.3364  0.2125
18155TIP3   OH275955   4.828   4.547   3.278  0.9437 -0.6439  0.0383
18155TIP3    H175956   4.815   4.467   3.227  0.3438  0.6854 -2.0436
18155TIP3    H275957   4.923   4.557   3.284  1.0240 -1.6038  0.5170
18156TIP3   OH275958   4.829   3.540   4.068  0.3226  0.4702  0.1253
18156TIP3    H175959   4.878   3.532   3.987 -0.6628 -1.2708 -0.3574
18156TIP3    H275960   4.890   3.579   4.130  2.2164 -1.2461 -0.5613
18157TIP3   OH275961   1.603   0.346  10.849  0.0267  0.0853  0.3512
18157TIP3    H175962   1.691   0.323  10.880  0.1168  0.4592  0.3779
18157TIP3    H275963   1.586   0.432  10.887  0.4507  0.9201 -1.2185
18158TIP3   OH275964   2.102   5.726   3.362  0.0712 -0.3715  0.0250
18158TIP3    H175965   2.080   5.656   3.301 -0.9505 -1.6961  1.8096
18158TIP3    H275966   2.157   5.684   3.428 -1.1673  0.2905  1.5471
18159TIP3   OH275967   3.063   3.419   1.349  0.4933  0.2421 -0.1670
18159TIP3    H175968   3.002   3.492   1.353 -1.6657 -1.5248  1.0590
18159TIP3    H275969   3.110   3.422   1.432  1.3472  0.9407 -0.6518
18160TIP3   OH275970   1.469   5.016   2.969 -0.1585  0.2674 -0.9087
18160TIP3    H175971   1.523   4.993   2.894 -1.3823 -0.3925 -1.6216
18160TIP3    H275972   1.380   4.997   2.941 -0.9950  2.9552 -0.4291
18161TIP3   OH275973   4.516   2.935   1.384  0.4805  0.2882  0.1489
18161TIP3    H175974   4.530   3.019   1.341 -0.6655  0.0095 -0.8406
18161TIP3    H275975   4.526   2.870   1.314 -0.4168 -0.2583  0.5082
18162TIP3   OH275976   1.387   1.337   1.077  0.1381  0.6977 -0.4413
18162TIP3    H175977   1.395   1.406   1.143 -0.8544  0.1110  0.3201
18162TIP3    H275978   1.316   1.367   1.020  0.1315  0.6067 -0.4812
18163TIP3   OH275979   3.347   6.016   0.925  0.1669  0.2647  0.3570
18163TIP3    H175980   3.438   6.043   0.912  0.8928 -1.1015  2.1209
18163TIP3    H275981   3.352   5.950   0.994 -2.1558 -0.0280  0.3087
18164TIP3   OH275982   5.473   3.293   6.156 -0.4318  0.2189  0.0343
18164TIP3    H175983   5.435   3.293   6.244  1.2642 -1.1433  0.8163
18164TIP3    H275984   5.494   3.385   6.140  0.3275  0.3612  1.5766
18165TIP3   OH275985   3.980   1.093  11.299  0.6356  0.0329 -0.1479
18165TIP3    H175986   3.988   1.112  11.393  1.8572 -0.9093 -0.0422
18165TIP3    H275987   3.968   1.179  11.258  5.0364  1.1333  0.3954
18166TIP3   OH275988   2.952   0.718  17.264 -0.0054 -0.0347 -0.3575
18166TIP3    H175989   2.911   0.800  17.236 -2.0939 -1.3933 -1.5747
18166TIP3    H275990   2.904   0.695  17.344  1.5321  0.5827  0.7828
18167TIP3   OH275991   5.681   1.784   4.048  0.6619 -0.4970 -0.1907
18167TIP3    H175992   5.646   1.817   3.966 -0.4458 -3.8374 -1.2464
18167TIP3    H275993   5.710   1.695   4.028  1.9716 -0.8534  2.6754
18168TIP3   OH275994   1.525   5.754  14.356 -0.0810 -0.6868  0.0035
18168TIP3    H175995   1.544   5.729  14.266  1.1889  1.6278 -0.4492
18168TIP3    H275996   1.558   5.681  14.409  0.4521 -1.4509 -1.3433
18169TIP3   OH275997   3.448   1.223   4.754  0.1595 -0.6284 -0.5502
18169TIP3    H175998   3.370   1.172   4.775  1.0066 -1.7321 -0.0218
18169TIP3    H275999   3.413   1.306   4.720 -1.2462 -1.6426 -1.6993
18170TIP3   OH276000   2.605   1.525  14.426 -0.2907  0.5274 -0.4091
18170TIP3    H176001   2.628   1.567  14.343 -0.9126  1.7107  0.0023
18170TIP3    H276002   2.614   1.431  14.408  0.9440  0.8070 -1.3948
18171TIP3   OH276003   3.895   2.124  11.718 -0.3162 -0.2503  0.3252
18171TIP3    H176004   3.920   2.033  11.704  0.9248 -0.0622  1.1918
18171TIP3    H276005   3.853   2.125  11.804 -0.7620 -0.0654  0.1129
18172TIP3   OH276006   1.683   0.818  14.756  0.4240 -0.1183  0.1081
18172TIP3    H176007   1.588   0.812  14.749  0.1729  2.6213  0.1914
18172TIP3    H276008   1.701   0.819  14.850  0.0880  3.1262  0.2560
18173TIP3   OH276009   1.242   3.265   2.041 -0.1534 -0.7177 -0.2218
18173TIP3    H176010   1.308   3.217   1.991  2.7772  2.0273  0.6875
18173TIP3    H276011   1.230   3.346   1.992  1.6024  1.3499  2.5134
18174TIP3   OH276012   3.541   4.999   5.571  0.4213 -0.1103  1.1174
18174TIP3    H176013   3.576   5.088   5.561 -2.0154  0.7992 -0.1003
18174TIP3    H276014   3.587   4.948   5.504  1.8521  0.1776  1.8353
18175TIP3   OH276015   0.207   5.563  11.236  0.0389  0.0832  0.2292
18175TIP3    H176016   0.240   5.652  11.248 -1.1385  0.6140 -0.2908
18175TIP3    H276017   0.123   5.574  11.192 -0.6394 -1.2297  1.1042
18176TIP3   OH276018   1.217   4.104   6.025  0.1426  0.0793 -0.3159
18176TIP3    H176019   1.214   4.013   6.056  0.6915  0.5877  1.3492
18176TIP3    H276020   1.160   4.105   5.949 -0.0267 -1.6257 -0.2559
18177TIP3   OH276021   5.852   1.325   5.943  0.1062  0.2426 -0.4420
18177TIP3    H176022   5.880   1.331   5.852 -1.2636 -1.3605 -1.0093
18177TIP3    H276023   5.893   1.401   5.985  3.1852 -0.5758 -1.6945
18178TIP3   OH276024   2.066   1.471  15.067 -0.2590  0.3176 -0.2713
18178TIP3    H176025   2.099   1.546  15.018 -0.2998  0.4674 -0.0692
18178TIP3    H276026   2.013   1.509  15.137 -1.8996  0.0397 -1.3237
18179TIP3   OH276027   2.469   5.050   4.359 -0.0425  0.2394  0.0595
18179TIP3    H176028   2.438   5.003   4.437 -0.0128 -2.5378 -1.4732
18179TIP3    H276029   2.506   5.131   4.393 -2.3920  0.3657  2.6624
18180TIP3   OH276030   3.338   4.169   1.224  0.2541 -0.5912  0.2197
18180TIP3    H176031   3.331   4.165   1.319  0.0961 -2.0638  0.1730
18180TIP3    H276032   3.423   4.131   1.204  2.0364  3.1234 -0.0906
18181TIP3   OH276033   0.003   2.150   1.350 -0.3259 -0.1864  0.4335
18181TIP3    H176034   0.076   2.145   1.411  0.4188 -0.3864 -0.4583
18181TIP3    H276035  -0.005   2.061   1.314 -2.0491 -0.5983  1.6796
18182TIP3   OH276036   1.460   6.010  13.676 -0.2456 -0.0363 -0.0265
18182TIP3    H176037   1.423   6.049  13.597  0.6242  0.2243 -0.3129
18182TIP3    H276038   1.551   6.038  13.677 -0.1351 -0.3780  0.8559
18183TIP3   OH276039   5.962   3.766  12.624 -0.0366 -0.2411  0.3722
18183TIP3    H176040   5.913   3.813  12.692 -1.6592 -0.2281 -0.7543
18183TIP3    H276041   5.974   3.678  12.659 -0.0938  0.0054  1.0278
18184TIP3   OH276042   0.658   2.632   2.336 -0.2242  0.6621 -0.2128
18184TIP3    H176043   0.699   2.567   2.394  0.8079  0.7574 -0.8081
18184TIP3    H276044   0.568   2.639   2.368  0.2493  0.5385  1.2184
18185TIP3   OH276045   1.216   4.559  10.642 -0.5723 -0.8007 -0.2936
18185TIP3    H176046   1.276   4.508  10.587 -0.0374 -0.0899 -0.3809
18185TIP3    H276047   1.245   4.650  10.631 -1.4968 -0.4820 -0.1182
18186TIP3   OH276048   6.125   3.211   0.289  0.0280 -0.5678 -0.1708
18186TIP3    H176049   6.182   3.276   0.248 -0.2836 -0.7476 -0.9111
18186TIP3    H276050   6.179   3.132   0.296  1.1566  0.3357  2.7894
18187TIP3   OH276051   0.441   0.155  16.464  0.3309 -0.1136  0.0023
18187TIP3    H176052   0.387   0.214  16.413 -0.4881 -1.6485 -0.9713
18187TIP3    H276053   0.398   0.151  16.550  0.6752  1.0474  0.2429
18188TIP3   OH276054   1.906   3.289   1.184 -0.0966 -0.1591  0.8565
18188TIP3    H176055   1.884   3.377   1.156  0.4581  0.9177  3.4615
18188TIP3    H276056   2.002   3.287   1.185 -0.0935 -1.0571  0.1320
18189TIP3   OH276057   2.936   2.906  13.266  0.8966 -0.2023  0.0619
18189TIP3    H176058   2.852   2.881  13.227  0.3586 -0.9406  1.6193
18189TIP3    H276059   2.922   2.996  13.296  1.5490  0.6438 -2.0022
18190TIP3   OH276060   1.024   4.663  15.171 -0.0470  0.2637 -0.3091
18190TIP3    H176061   1.058   4.618  15.094 -1.2456 -1.9606  0.3771
18190TIP3    H276062   1.080   4.633  15.243  1.5380  2.8810 -0.2967
18191TIP3   OH276063   4.165   2.993   7.311  0.1302 -0.4076 -0.3685
18191TIP3    H176064   4.087   2.946   7.283  0.3599 -1.2617  0.3800
18191TIP3    H276065   4.184   2.959   7.398  1.8702 -0.8970 -0.8975
18192TIP3   OH276066   4.815   0.929  14.276  0.1220 -0.4182  0.2229
18192TIP3    H176067   4.883   0.990  14.248 -0.1220 -0.2484 -0.0040
18192TIP3    H276068   4.862   0.849  14.299  0.6897  0.4822  2.4937
18193TIP3   OH276069   4.547   1.055  16.902  0.2651 -0.0669 -0.3711
18193TIP3    H176070   4.473   1.116  16.897 -0.7260 -1.2337 -0.4587
18193TIP3    H276071   4.565   1.047  16.995  1.2962  1.3696 -0.4193
18194TIP3   OH276072   0.641   1.948  16.157  1.4078  0.1978  0.5116
18194TIP3    H176073   0.585   1.970  16.083  0.8796  0.6566  1.0393
18194TIP3    H276074   0.626   1.854  16.172 -0.1019  0.5488  1.3609
18195TIP3   OH276075   2.534   3.832  13.330  0.8618  0.4751 -0.1023
18195TIP3    H176076   2.627   3.829  13.351  0.9251  0.8241 -0.3371
18195TIP3    H276077   2.492   3.789  13.405  1.3098 -0.9908 -0.6446
18196TIP3   OH276078   3.163   6.188  16.644  0.2697  0.2049  0.3485
18196TIP3    H176079   3.205   6.252  16.587 -0.7158 -1.1422 -2.0110
18196TIP3    H276080   3.082   6.231  16.672 -0.7497 -0.1964 -1.8155
18197TIP3   OH276081   6.366   2.717   4.612 -0.2696  0.2265  0.5636
18197TIP3    H176082   6.364   2.674   4.698  0.2896 -0.3904  0.2787
18197TIP3    H276083   6.459   2.734   4.597 -0.4635  1.3642  0.5735
18198TIP3   OH276084   0.638   0.297  11.227 -0.1136 -0.2206  0.3702
18198TIP3    H176085   0.628   0.371  11.168  1.2097  0.6986  1.2352
18198TIP3    H276086   0.556   0.295  11.277  0.0979  1.1247  0.8210
18199TIP3   OH276087   4.040   0.044  12.003  0.1939 -0.9732  0.5546
18199TIP3    H176088   4.127   0.084  12.006  0.5958 -1.7674 -0.0334
18199TIP3    H276089   4.036  -0.012  12.081  0.7303 -1.9371 -0.0872
18200TIP3   OH276090   4.924   1.763   0.662  0.1930 -0.4038 -0.1251
18200TIP3    H176091   4.866   1.732   0.732  0.2119  0.4291  0.2686
18200TIP3    H276092   4.937   1.856   0.681  0.7600 -0.3285 -0.8470
18201TIP3   OH276093   2.961   1.222  13.130  0.6250 -0.0896 -0.1455
18201TIP3    H176094   2.999   1.148  13.083  1.5708  0.9961 -1.1800
18201TIP3    H276095   3.036   1.278  13.151  0.0206  0.2550  1.2412
18202TIP3   OH276096   5.096   0.891   5.160 -1.0791  0.5779 -0.2072
18202TIP3    H176097   5.002   0.886   5.143 -0.9451 -1.3642 -0.5405
18202TIP3    H276098   5.115   0.812   5.211  0.8137 -0.4986 -2.4168
18203TIP3   OH276099   0.241   4.315  11.563  0.0054 -0.3027 -0.1816
18203TIP3    H176100   0.297   4.347  11.493 -0.5191 -0.4505 -0.6778
18203TIP3    H276101   0.152   4.332  11.532 -0.2252  0.4890  0.8617
18204TIP3   OH276102   4.853   1.486   5.933 -0.0194 -0.2024  0.3439
18204TIP3    H176103   4.881   1.577   5.936  0.6601 -0.4315  2.1506
18204TIP3    H276104   4.934   1.435   5.933 -0.3755 -0.8207  1.8320
18205TIP3   OH276105   1.989   2.745   3.266  0.1979 -0.1007  0.0362
18205TIP3    H176106   1.964   2.697   3.187  0.1132 -0.8136  0.4895
18205TIP3    H276107   1.961   2.835   3.250  0.6649 -0.1203 -0.9709
18206TIP3   OH276108   5.822   2.108  14.231 -0.0757  0.3383 -0.7247
18206TIP3    H176109   5.866   2.165  14.168 -2.4370  1.3217 -1.6025
18206TIP3    H276110   5.796   2.032  14.180 -1.7170  0.9955 -0.9211
18207TIP3   OH276111   3.544   0.144   0.215  0.3411  0.5597  0.2766
18207TIP3    H176112   3.457   0.123   0.181  0.4588  1.3818 -0.5692
18207TIP3    H276113   3.534   0.231   0.254  0.7849  0.6445  0.1981
18208TIP3   OH276114   1.870   2.882   0.341 -0.4121 -0.1081 -0.7197
18208TIP3    H176115   1.798   2.928   0.383 -0.0899 -0.9951  0.9059
18208TIP3    H276116   1.923   2.849   0.414  0.2077 -1.6952 -1.8231
18209TIP3   OH276117   0.286   3.624  13.824 -0.0453  0.3333  0.2540
18209TIP3    H176118   0.223   3.621  13.752  1.2583  2.1174 -1.0423
18209TIP3    H276119   0.362   3.576  13.792 -0.0361 -0.2594  1.1138
18210TIP3   OH276120   0.879   2.169  17.362  0.0507  0.1325 -0.1691
18210TIP3    H176121   0.880   2.091  17.417 -0.1031  0.9310  0.9841
18210TIP3    H276122   0.933   2.145  17.286 -1.1418 -1.5794 -0.5333
18211TIP3   OH276123   1.258   6.417  16.690  0.7173 -0.1544 -0.0375
18211TIP3    H176124   1.330   6.361  16.661  0.9830  0.7754 -1.2382
18211TIP3    H276125   1.189   6.356  16.717  0.7590 -1.0723 -1.9059
18212TIP3   OH276126   3.460   2.816   2.413  0.0779  0.3326  0.3033
18212TIP3    H176127   3.550   2.849   2.415  0.5385 -0.6478 -1.6622
18212TIP3    H276128   3.436   2.806   2.505  0.8673  3.4402  0.9693
18213TIP3   OH276129   6.677   4.193   5.789 -0.0261 -0.3914  0.2891
18213TIP3    H176130   6.767   4.194   5.756 -0.5621  0.6724 -1.2656
18213TIP3    H276131   6.663   4.102   5.815  1.1571 -0.8136 -0.4516
18214TIP3   OH276132   4.066   0.012   3.186  0.0268  0.2090 -0.2004
18214TIP3    H176133   4.039  -0.068   3.231  0.4827  0.7969  1.1738
18214TIP3    H276134   3.994   0.073   3.201  0.0826  0.3422 -0.4686
18215TIP3   OH276135   1.645   1.576  17.026  0.4717 -0.5646  0.1455
18215TIP3    H176136   1.625   1.490  16.989  1.8421 -0.2829 -1.3744
18215TIP3    H276137   1.571   1.631  16.999  0.7064 -0.7368 -0.9149
18216TIP3   OH276138   0.745   2.247   5.699 -0.0602  0.1881 -0.2326
18216TIP3    H176139   0.737   2.318   5.762  1.4927  0.2117 -0.0121
18216TIP3    H276140   0.803   2.281   5.631 -1.7007  0.1587 -1.7193
18217TIP3   OH276141   4.525   0.054  16.905 -0.0055  0.6971 -0.0923
18217TIP3    H176142   4.504   0.112  16.978 -0.0821  1.3510 -0.6237
18217TIP3    H276143   4.593  -0.004  16.939  1.8118  2.6293 -0.2285
18218TIP3   OH276144   0.794   1.740  16.613 -0.5489  0.1765 -0.2614
18218TIP3    H176145   0.843   1.706  16.538 -2.3505 -1.3859 -0.8241
18218TIP3    H276146   0.703   1.720  16.593 -1.5517  3.4467  0.4827
18219TIP3   OH276147   3.153   0.416  14.999 -0.2871  0.3502 -0.3639
18219TIP3    H176148   3.245   0.420  14.974 -0.0785  0.8718  0.4707
18219TIP3    H276149   3.131   0.504  15.029 -1.0891  0.2578 -0.6373
18220TIP3   OH276150   5.498   3.241   0.741  0.3159 -0.1034 -0.8391
18220TIP3    H176151   5.593   3.235   0.740  0.4648  0.9505  1.3177
18220TIP3    H276152   5.479   3.331   0.716 -0.0381 -0.0007 -0.2274
18221TIP3   OH276153   3.605   1.797   1.529 -0.1431 -0.2236  0.5428
18221TIP3    H176154   3.551   1.869   1.562 -0.6629  0.4212 -1.5489
18221TIP3    H276155   3.682   1.839   1.491  0.4565 -0.9260  0.9533
18222TIP3   OH276156   6.732   0.629   1.362 -0.1118 -0.4632 -0.0191
18222TIP3    H176157   6.742   0.534   1.364 -0.3418 -0.4786  1.3007
18222TIP3    H276158   6.673   0.649   1.435  2.6261  0.9617  2.0224
18223TIP3   OH276159   2.690   1.103  13.312 -0.3597  0.2498  0.5550
18223TIP3    H176160   2.687   1.136  13.222 -0.0071 -0.3728  0.3077
18223TIP3    H276161   2.691   1.182  13.367  2.4618  0.7404 -0.0706
18224TIP3   OH276162   3.709   0.024   1.447  0.8150 -0.3982  0.2365
18224TIP3    H176163   3.799   0.047   1.424  1.0515 -1.8644 -0.4699
18224TIP3    H276164   3.707  -0.072   1.441 -0.3932 -0.5023  1.7662
18225TIP3   OH276165   2.101   3.150  11.313  0.5755  0.4259  0.4349
18225TIP3    H176166   2.011   3.121  11.323  0.2298  0.3400 -2.2944
18225TIP3    H276167   2.142   3.127  11.397 -0.9978 -3.0155  0.4665
18226TIP3   OH276168   4.021   3.407   3.035  0.0127  0.1641 -0.7966
18226TIP3    H176169   4.071   3.344   2.983 -0.6594  0.2093 -1.5049
18226TIP3    H276170   4.060   3.401   3.123  0.1339 -1.0334 -0.9171
18227TIP3   OH276171   2.018   4.167  13.849 -0.7043 -0.4244 -0.2519
18227TIP3    H176172   1.983   4.176  13.760 -1.8725  0.2749  0.2473
18227TIP3    H276173   2.042   4.256  13.875 -0.3010 -0.6325  0.1102
18228TIP3   OH276174   1.038   0.651   2.041  0.2369 -0.3563 -0.3386
18228TIP3    H176175   1.015   0.574   1.990  1.2224 -0.6335 -0.3885
18228TIP3    H276176   0.980   0.649   2.117 -0.8312 -0.2665 -1.1339
18229TIP3   OH276177   1.538   6.088  11.300 -0.4030  0.0593  0.3191
18229TIP3    H176178   1.606   6.059  11.238 -0.5959 -0.8898  0.5460
18229TIP3    H276179   1.459   6.040  11.273 -1.1226  1.4921 -0.2288
18230TIP3   OH276180   0.601   4.854  11.201 -0.2934  0.6868 -0.4541
18230TIP3    H176181   0.552   4.911  11.260  1.6054  1.3387  0.5761
18230TIP3    H276182   0.657   4.913  11.150  1.1324 -0.1640  0.0714
18231TIP3   OH276183   6.254   2.006   2.106 -0.1245  0.4343 -0.1914
18231TIP3    H176184   6.323   2.048   2.054 -0.8497  0.2285 -1.3677
18231TIP3    H276185   6.270   1.912   2.096  0.5795  0.3792  1.1728
18232TIP3   OH276186   1.895   5.007  11.685  0.9240 -0.5302  0.0691
18232TIP3    H176187   1.849   5.049  11.758 -1.2843 -2.9398  0.2235
18232TIP3    H276188   1.945   5.077  11.644 -2.6960  2.3623  0.0870
18233TIP3   OH276189   4.404   2.984  16.106  0.6426  0.0981  0.1995
18233TIP3    H176190   4.493   2.958  16.132  0.3662  0.9193  2.0981
18233TIP3    H276191   4.360   3.004  16.188 -0.9934  0.7102 -0.7931
18234TIP3   OH276192   3.230   5.781  14.675 -0.3787  0.2227  0.2068
18234TIP3    H176193   3.197   5.853  14.729 -0.0587 -1.5914  3.0617
18234TIP3    H276194   3.278   5.823  14.605 -2.1027  2.7917  0.4516
18235TIP3   OH276195   3.043   2.229   0.914  0.0404  0.5307  0.2514
18235TIP3    H176196   3.057   2.287   0.840  2.1199  0.1228  0.2698
18235TIP3    H276197   3.073   2.279   0.990 -3.8151  1.7032  1.2429
18236TIP3   OH276198   2.876   1.135  11.184  0.3605  0.5453 -0.4154
18236TIP3    H176199   2.959   1.180  11.173  2.2012 -2.7237 -1.1878
18236TIP3    H276200   2.864   1.086  11.103 -1.9827  0.3671 -0.0248
18237TIP3   OH276201   0.933   4.934   2.552  0.4323  0.1343 -0.0306
18237TIP3    H176202   0.928   4.865   2.486  1.0006  0.5397 -0.5158
18237TIP3    H276203   0.882   5.006   2.515 -1.4888 -0.5280  1.1612
18238TIP3   OH276204   1.021   0.857  15.931  0.2564 -0.5359 -0.1459
18238TIP3    H176205   1.052   0.842  16.020  1.0988  0.6262 -0.2162
18238TIP3    H276206   1.005   0.769  15.896  1.5245 -1.1039  0.5999
18239TIP3   OH276207   2.149   1.907  15.684  0.3007 -0.0315  0.4704
18239TIP3    H176208   2.218   1.972  15.700 -0.8614  1.4402 -0.3043
18239TIP3    H276209   2.165   1.838  15.749  2.6669  0.1063  0.1278
18240TIP3   OH276210   2.176   4.734  11.548 -0.5166  0.1751 -1.0248
18240TIP3    H176211   2.190   4.829  11.549 -0.6046  0.1788  0.1433
18240TIP3    H276212   2.258   4.697  11.580 -0.9563 -0.0825 -0.1894
18241TIP3   OH276213   3.547   6.380  11.054 -0.3999  0.1535  0.0289
18241TIP3    H176214   3.468   6.330  11.073 -1.5382  2.0805  0.5613
18241TIP3    H276215   3.569   6.356  10.963 -0.6828 -1.5384  0.3777
18242TIP3   OH276216   3.205   6.590  16.174 -0.1372 -0.2824  0.1671
18242TIP3    H176217   3.249   6.647  16.237 -0.5361  0.2097  0.0126
18242TIP3    H276218   3.114   6.619  16.175 -0.0697  0.0492 -0.9537
18243TIP3   OH276219   3.865   3.179  10.345 -0.2397  0.5091  0.4122
18243TIP3    H176220   3.774   3.156  10.323 -0.4084  0.7871  0.8051
18243TIP3    H276221   3.905   3.095  10.367 -0.4950  0.4246  0.5644
18244TIP3   OH276222   1.717   6.186   4.953  0.2894  0.2831  0.1495
18244TIP3    H176223   1.732   6.092   4.956 -1.9318 -0.1063  1.9271
18244TIP3    H276224   1.791   6.221   4.903  1.5001 -2.3061 -0.0204
18245TIP3   OH276225   6.737   4.162  11.829 -0.2533  0.5229 -0.1506
18245TIP3    H176226   6.648   4.125  11.834  0.4043 -1.2940 -0.9342
18245TIP3    H276227   6.736   4.216  11.750 -0.1150 -1.2240 -1.4058
18246TIP3   OH276228   2.588   5.797  16.649  0.2288 -0.5435 -0.2504
18246TIP3    H176229   2.561   5.810  16.558 -2.7713 -0.8464  0.4757
18246TIP3    H276230   2.527   5.731  16.683 -0.0017  0.9257  2.4671
18247TIP3   OH276231   5.750   3.032  13.226  0.1230 -0.1206  0.3869
18247TIP3    H176232   5.691   2.961  13.250  1.4128 -1.0458  0.9749
18247TIP3    H276233   5.714   3.109  13.270 -0.9047 -0.5551  0.3246
18248TIP3   OH276234   1.333   5.382   3.026  0.0294 -0.5256 -0.8425
18248TIP3    H176235   1.346   5.455   2.966  0.3056 -0.3196 -0.5414
18248TIP3    H276236   1.259   5.334   2.991 -1.2736  0.8638 -0.1300
18249TIP3   OH276237   0.376   3.913   0.498 -0.1800  0.1455 -0.2086
18249TIP3    H176238   0.432   3.866   0.560 -1.9047 -0.5860  0.8643
18249TIP3    H276239   0.339   3.985   0.549 -2.5176 -1.1327  0.0404
18250TIP3   OH276240   5.324   1.412  15.864  0.2083 -0.5061  0.6917
18250TIP3    H176241   5.330   1.435  15.956  0.7832  0.8884  0.3197
18250TIP3    H276242   5.268   1.479  15.825 -0.2236 -1.2083  0.0505
18251TIP3   OH276243   2.852   4.069   1.679  0.0274 -0.3022 -0.3120
18251TIP3    H176244   2.791   4.089   1.750 -0.3678 -0.3951 -0.6210
18251TIP3    H276245   2.854   4.149   1.626  0.7134 -0.0503  0.0785
18252TIP3   OH276246   3.995   5.204  16.714  0.1365 -0.1866  0.0786
18252TIP3    H176247   3.943   5.152  16.775  0.2006  0.9652  1.1620
18252TIP3    H276248   3.974   5.168  16.628 -1.7913 -0.3173  0.5622
18253TIP3   OH276249   1.192   0.368   1.067 -0.1127 -0.7458 -0.7306
18253TIP3    H176250   1.249   0.355   1.144 -0.1556 -0.7595 -0.7013
18253TIP3    H276251   1.195   0.284   1.021 -0.6377 -0.9627 -0.3753
18254TIP3   OH276252   4.996   1.393  16.533 -0.5171  0.1954  0.0960
18254TIP3    H176253   4.990   1.297  16.527  0.0062  0.1155  0.7567
18254TIP3    H276254   4.914   1.424  16.495 -0.4234 -0.4950 -0.6929
18255TIP3   OH276255   0.717   3.530  15.856 -0.7746  0.5966  0.1977
18255TIP3    H176256   0.708   3.456  15.796 -0.2973  1.3886 -0.8835
18255TIP3    H276257   0.627   3.562  15.867 -1.0617 -0.5075  1.1638
18256TIP3   OH276258   5.500   2.746   5.493 -0.0379 -0.2842 -0.7384
18256TIP3    H176259   5.546   2.824   5.524 -0.3479  0.3560 -1.8157
18256TIP3    H276260   5.410   2.758   5.525 -0.1252 -0.1002 -1.0395
18257TIP3   OH276261   5.080   4.952  15.341  0.2390 -0.5208 -0.0224
18257TIP3    H176262   5.081   5.048  15.342  0.4112 -0.5148  0.9502
18257TIP3    H276263   4.991   4.929  15.369  0.5831 -0.6293  1.0143
18258TIP3   OH276264   1.612   4.633  13.710 -0.0159 -0.7092  0.1579
18258TIP3    H176265   1.520   4.650  13.731  0.0067 -1.7410  1.2245
18258TIP3    H276266   1.660   4.661  13.787  0.6922  0.7443 -0.7787
18259TIP3   OH276267   3.998   0.018  12.685  0.2755  0.1178 -0.4545
18259TIP3    H176268   3.918   0.070  12.672  0.2274  0.3953  0.8243
18259TIP3    H276269   4.012   0.019  12.780  1.7631  0.0086 -0.6534
18260TIP3   OH276270   4.655   6.199   1.895 -0.0585 -0.0575 -0.3570
18260TIP3    H176271   4.688   6.149   1.821  1.3216  0.1767  0.0602
18260TIP3    H276272   4.695   6.158   1.972 -0.1138  0.7374  0.1108
18261TIP3   OH276273   2.145   0.010  11.364  0.3519 -0.4182 -0.1179
18261TIP3    H176274   2.125  -0.014  11.273  1.7256 -2.0915 -0.0368
18261TIP3    H276275   2.240   0.021  11.365  0.2958  0.0520  1.0202
18262TIP3   OH276276   2.624   0.547  15.167  0.2163  0.6029 -0.5216
18262TIP3    H176277   2.532   0.568  15.154  0.2466  0.2800 -1.3245
18262TIP3    H276278   2.640   0.563  15.260 -1.4174 -2.3532  0.3793
18263TIP3   OH276279   1.060   5.820   2.286  0.3223 -0.0023  0.2269
18263TIP3    H176280   1.057   5.867   2.369  1.0401 -0.3353  0.4564
18263TIP3    H276281   1.153   5.802   2.272  0.2678  0.5033 -0.9162
18264TIP3   OH276282   3.421   4.065   0.920 -0.0913  0.2879 -0.5917
18264TIP3    H176283   3.442   4.158   0.915  0.5601  0.2123  0.4078
18264TIP3    H276284   3.379   4.045   0.837 -5.1199  2.6576  1.0145
18265TIP3   OH276285   3.181   2.681  13.833  0.2019  0.0524 -0.2994
18265TIP3    H176286   3.265   2.725  13.818  0.5005 -0.0576  0.9805
18265TIP3    H276287   3.135   2.736  13.895  0.0377 -0.7583  0.3179
18266TIP3   OH276288   0.201   6.038  12.574 -0.1216 -0.6363 -0.0374
18266TIP3    H176289   0.271   6.016  12.513  0.0199  1.1064 -0.5633
18266TIP3    H276290   0.175   5.954  12.612  2.1100 -1.3525  0.0448
18267TIP3   OH276291   5.913   4.523   2.439  0.2645 -0.0786  0.1887
18267TIP3    H176292   5.855   4.525   2.363  1.2941 -1.1099 -0.6558
18267TIP3    H276293   5.989   4.575   2.414  0.7390 -0.6590  0.3903
18268TIP3   OH276294   4.546   4.930  12.242  0.3271  0.4568 -0.1996
18268TIP3    H176295   4.467   4.879  12.222  0.9096  0.0043 -1.4270
18268TIP3    H276296   4.617   4.866  12.238  0.8834  1.0721 -0.1891
18269TIP3   OH276297   4.163   3.808  12.726 -0.5531 -0.0255 -0.0985
18269TIP3    H176298   4.125   3.865  12.659  0.2859  1.0581  0.3076
18269TIP3    H276299   4.235   3.763  12.682  1.8392  2.7377  0.6075
18270TIP3   OH276300   1.520   2.770   2.152 -0.0644 -0.3258  0.1678
18270TIP3    H176301   1.583   2.707   2.115 -0.3335  0.4036 -1.6627
18270TIP3    H276302   1.435   2.742   2.118 -0.2516  0.7209 -0.2743
18271TIP3   OH276303   6.239   3.463   6.808 -0.0979 -0.0997  0.2326
18271TIP3    H176304   6.309   3.484   6.870  1.2695  0.1443 -1.3134
18271TIP3    H276305   6.259   3.374   6.778 -0.1654  0.1433 -0.5696
18272TIP3   OH276306   4.392   6.687   1.098 -0.1267 -0.2465  0.1967
18272TIP3    H176307   4.455   6.724   1.037  1.5377 -1.6028  1.0272
18272TIP3    H276308   4.371   6.601   1.062  0.8709 -1.0578  1.4856
18273TIP3   OH276309   2.492   5.468  13.886 -0.1782 -0.0236  0.7749
18273TIP3    H176310   2.510   5.375  13.902  0.0666 -0.0833  0.1966
18273TIP3    H276311   2.555   5.514  13.941 -0.0614 -0.2096  0.7983
18274TIP3   OH276312   0.320   6.681  12.377 -0.2334  0.7263 -0.3843
18274TIP3    H176313   0.382   6.679  12.449  0.8439  1.3437 -1.2590
18274TIP3    H276314   0.283   6.770  12.380 -0.4463  0.6400 -0.3932
18275TIP3   OH276315   5.912   1.365  11.421 -0.0499  0.0243  0.1094
18275TIP3    H176316   5.956   1.280  11.427  0.3161  0.3229  2.2241
18275TIP3    H276317   5.975   1.420  11.374  0.3428 -0.4779  0.0275
18276TIP3   OH276318   0.880   2.907   3.272 -0.4806  0.1586  0.0995
18276TIP3    H176319   0.911   2.819   3.295 -1.7071  0.0888  1.6563
18276TIP3    H276320   0.786   2.897   3.262 -0.2907  0.6467 -3.1494
18277TIP3   OH276321   3.476   6.443  12.979 -0.4443 -0.6141  0.8051
18277TIP3    H176322   3.403   6.461  12.920 -0.9153  0.5352  1.7104
18277TIP3    H276323   3.484   6.521  13.033  1.9795 -0.3924  0.2273
18278TIP3   OH276324   6.234   3.827  14.493  0.3507  0.2000 -0.1293
18278TIP3    H176325   6.146   3.829  14.531  0.6942 -1.3845  0.8803
18278TIP3    H276326   6.233   3.752  14.434  1.0114  0.1688 -0.1114
18279TIP3   OH276327   5.385   0.180  13.774 -0.1930 -0.4699 -0.1721
18279TIP3    H176328   5.455   0.123  13.805  1.0340  0.1489 -1.6538
18279TIP3    H276329   5.333   0.124  13.716 -1.3625 -1.1018  1.4066
18280TIP3   OH276330   5.492   2.221  11.445 -0.6475  0.0932  0.1605
18280TIP3    H176331   5.574   2.261  11.418 -1.2444  1.0664 -0.2454
18280TIP3    H276332   5.434   2.294  11.464 -1.1086 -0.5772  1.4686
18281TIP3   OH276333   3.038   5.027   2.152  0.3790 -0.6875  0.3487
18281TIP3    H176334   2.991   5.013   2.235  0.3247  0.5675  0.5494
18281TIP3    H276335   3.126   5.052   2.179  0.5616 -0.9485  0.0043
18282TIP3   OH276336   4.046   2.917   1.985 -0.4991  0.3346  0.7556
18282TIP3    H176337   3.969   2.863   1.967 -0.0913 -0.1085  0.2937
18282TIP3    H276338   4.111   2.887   1.922 -0.6999  2.3370 -0.5030
18283TIP3   OH276339   5.096   4.481   2.297 -0.4608  0.4983  0.1656
18283TIP3    H176340   5.101   4.392   2.332 -1.9162 -0.1492 -1.1346
18283TIP3    H276341   5.041   4.473   2.219  0.9287  2.2258 -1.0822
18284TIP3   OH276342   5.704   3.560  15.719  0.2887  0.9942 -0.0244
18284TIP3    H176343   5.708   3.628  15.786  2.4769  0.3698  0.5769
18284TIP3    H276344   5.793   3.523  15.717 -0.5574 -1.1702 -1.0286
18285TIP3   OH276345   5.739   5.684   1.893  0.5776 -0.0962 -0.2649
18285TIP3    H176346   5.665   5.742   1.876 -0.6169 -1.5123 -0.0167
18285TIP3    H276347   5.811   5.720   1.840 -0.2456  1.3465 -0.4373
18286TIP3   OH276348   2.806   5.498   2.322 -0.2156 -0.6018 -0.1793
18286TIP3    H176349   2.839   5.568   2.265  0.7285 -1.1896 -0.3815
18286TIP3    H276350   2.837   5.521   2.409  1.2018 -1.4064 -0.4459
18287TIP3   OH276351   6.763   0.080  15.804  0.3411 -0.0126  0.0271
18287TIP3    H176352   6.837   0.048  15.753  1.0574 -0.2510  1.1859
18287TIP3    H276353   6.686   0.055  15.752  1.0774  1.2783 -1.7738
18288TIP3   OH276354   5.796   3.011  12.225 -0.3289 -0.2388 -0.2301
18288TIP3    H176355   5.833   2.999  12.313  1.4370 -0.4009 -0.9435
18288TIP3    H276356   5.756   3.098  12.227  0.0625 -0.0685  0.6054
18289TIP3   OH276357   0.719   1.058  11.536 -0.4886  0.7916 -0.6092
18289TIP3    H176358   0.775   0.989  11.571  1.8525  2.1898 -1.3582
18289TIP3    H276359   0.716   1.041  11.442 -0.4291  1.3633 -0.7149
18290TIP3   OH276360   3.796   4.759   2.330 -0.1309  0.7303  0.5861
18290TIP3    H176361   3.715   4.795   2.294  0.1336  0.1343 -0.6793
18290TIP3    H276362   3.859   4.831   2.325 -0.5216  1.1446  1.4203
18291TIP3   OH276363   1.488   6.685   2.644  0.2570  0.2650 -0.0787
18291TIP3    H176364   1.461   6.748   2.710 -1.5902 -0.2840 -0.2515
18291TIP3    H276365   1.572   6.652   2.675  0.3809  1.4935  0.9349
18292TIP3   OH276366   2.646   3.367   1.226  0.4306 -0.2348  0.3758
18292TIP3    H176367   2.635   3.323   1.142  0.8637  1.5024 -0.6476
18292TIP3    H276368   2.740   3.384   1.232  0.6040 -1.5435  1.8800
18293TIP3   OH276369   1.701   4.539   3.184  0.1362 -0.0373 -0.0668
18293TIP3    H176370   1.702   4.490   3.102 -3.5924  0.0858 -0.3956
18293TIP3    H276371   1.671   4.626   3.159 -1.4636 -0.1100  1.3848
18294TIP3   OH276372   2.084   4.747  15.274  0.2226 -0.3392  0.0150
18294TIP3    H176373   2.116   4.756  15.185 -1.0033 -1.4395 -0.5763
18294TIP3    H276374   2.083   4.836  15.309  0.5267  0.1255 -1.1251
18295TIP3   OH276375   3.080   0.941   2.090  0.3771 -0.4360 -0.1733
18295TIP3    H176376   3.039   0.863   2.053 -2.8410  0.2771  1.5012
18295TIP3    H276377   3.148   0.907   2.148  1.1410 -1.7877 -1.7704
18296TIP3   OH276378   3.414   2.252  16.518 -0.3176 -0.1945  0.2791
18296TIP3    H176379   3.505   2.227  16.499 -0.0470  0.8159  0.2169
18296TIP3    H276380   3.369   2.168  16.529  0.8373 -0.7089  1.3871
18297TIP3   OH276381   3.551   2.358  17.083  0.0288 -0.0010  0.2126
18297TIP3    H176382   3.548   2.453  17.072  1.5628  0.0421 -0.1223
18297TIP3    H276383   3.504   2.341  17.164 -1.4984  0.8856 -0.4596
18298TIP3   OH276384   5.382   4.817   3.128 -0.0639 -0.0358  0.0546
18298TIP3    H176385   5.351   4.898   3.168 -0.0078 -0.4270  0.9190
18298TIP3    H276386   5.409   4.842   3.040  2.0100  1.3638  0.9999
18299TIP3   OH276387   3.567   1.297  13.827  0.2964 -0.4811 -0.3335
18299TIP3    H176388   3.653   1.284  13.788 -0.0235  1.1916 -1.7045
18299TIP3    H276389   3.585   1.335  13.914  0.9833  2.0196 -1.4723
18300TIP3   OH276390   3.709   3.027  16.453 -0.0678 -0.1529  0.9070
18300TIP3    H176391   3.701   3.117  16.484 -0.0456  0.2997 -0.3355
18300TIP3    H276392   3.787   2.993  16.497  1.8264  1.4790 -0.9781
18301TIP3   OH276393   4.717   0.460  15.157 -0.1858  0.2050 -0.7456
18301TIP3    H176394   4.705   0.553  15.137  0.6270  0.2649 -0.9706
18301TIP3    H276395   4.628   0.426  15.163 -0.4890  0.9114 -1.0569
18302TIP3   OH276396   6.590   6.599  14.170  0.4464  0.2929 -0.2570
18302TIP3    H176397   6.535   6.677  14.163 -1.3645 -1.0211 -1.5800
18302TIP3    H276398   6.613   6.577  14.080  1.5228 -0.3313  0.1492
18303TIP3   OH276399   4.633   4.971  15.626 -0.3413  0.0074 -0.0609
18303TIP3    H176400   4.627   5.066  15.629 -0.4815  0.0561 -1.2690
18303TIP3    H276401   4.543   4.941  15.625 -0.3014 -0.1144 -0.0140
18304TIP3   OH276402   5.536   2.522  11.805  0.0129  0.0213 -0.0305
18304TIP3    H176403   5.616   2.573  11.814 -0.4465  0.8056 -0.2702
18304TIP3    H276404   5.512   2.498  11.894  0.0650  0.4938  0.1110
18305TIP3   OH276405   0.062   0.588   1.828 -0.2202  0.3877 -0.3953
18305TIP3    H176406   0.063   0.515   1.766  0.1638  1.6204 -1.8870
18305TIP3    H276407   0.153   0.617   1.832 -0.0361 -0.3348  1.6009
18306TIP3   OH276408   2.463   3.405   5.262  0.6306  0.7101  0.0001
18306TIP3    H176409   2.395   3.364   5.315 -0.4695  2.9806  0.4761
18306TIP3    H276410   2.477   3.345   5.190 -2.1561  0.2753 -0.3005
18307TIP3   OH276411   6.592   3.414   6.061  0.0634  0.1209 -1.0090
18307TIP3    H176412   6.618   3.351   5.993 -1.2457 -1.9025  0.2331
18307TIP3    H276413   6.619   3.372   6.143 -2.6885  0.1496  0.0123
18308TIP3   OH276414   1.521   1.241   5.508  0.3970 -0.0349  0.0643
18308TIP3    H176415   1.491   1.158   5.471  1.5743 -1.4618  2.0920
18308TIP3    H276416   1.607   1.256   5.467  0.3121  0.0225 -0.0916
18309TIP3   OH276417   6.725   5.464  11.776 -0.2596 -0.9018  0.0011
18309TIP3    H176418   6.810   5.421  11.763  0.0015 -0.0987 -1.0914
18309TIP3    H276419   6.745   5.544  11.824 -0.0420  0.4281 -2.1820
18310TIP3   OH276420   1.485   3.549  13.473  0.5812  0.0053  0.3420
18310TIP3    H176421   1.534   3.469  13.452 -0.6129 -0.7308  0.2459
18310TIP3    H276422   1.490   3.556  13.568  1.4779  0.3532  0.2799
18311TIP3   OH276423   3.063   2.207   4.827  0.0114 -0.0818  0.3000
18311TIP3    H176424   3.014   2.270   4.879  0.2474 -1.1292  1.8662
18311TIP3    H276425   3.147   2.198   4.872  0.0880 -1.2839 -0.0321
18312TIP3   OH276426   5.975   6.205  11.072  0.1447  0.7097 -0.2661
18312TIP3    H176427   5.896   6.235  11.027  0.4204  0.2777 -1.0450
18312TIP3    H276428   5.972   6.110  11.065 -1.5004  0.2690  3.4488
18313TIP3   OH276429   4.505   0.458  17.157 -0.3776 -0.2185 -0.0182
18313TIP3    H176430   4.510   0.520  17.229  1.7416 -1.4956  1.0551
18313TIP3    H276431   4.522   0.511  17.079 -0.4580  0.8271  0.6529
18314TIP3   OH276432   2.271   0.621   1.216  0.1989 -0.4055 -0.4175
18314TIP3    H176433   2.240   0.633   1.126  0.0224  0.7225 -0.2299
18314TIP3    H276434   2.295   0.710   1.244 -0.9554 -0.5359  1.0820
18315TIP3   OH276435   0.200   6.381   2.757 -0.3098 -0.4476  0.1559
18315TIP3    H176436   0.267   6.422   2.811 -0.5166  0.0963  0.0022
18315TIP3    H276437   0.119   6.394   2.805 -0.4633 -0.1438 -0.1849
18316TIP3   OH276438   6.613   4.492  14.622  0.1009  0.5770 -0.0822
18316TIP3    H176439   6.658   4.563  14.575 -0.2654  1.3073  0.6378
18316TIP3    H276440   6.628   4.414  14.569 -0.1282  1.3415 -1.2954
18317TIP3   OH276441   2.426   3.979   3.397  0.1878  0.4333 -0.3555
18317TIP3    H176442   2.401   3.944   3.311 -0.5603  2.1742 -0.8809
18317TIP3    H276443   2.409   3.907   3.458  0.2681 -0.6644 -1.5849
18318TIP3   OH276444   1.076   1.704  13.469  0.0692 -0.4314 -0.0546
18318TIP3    H176445   1.138   1.683  13.398  0.3466 -1.8563  0.5709
18318TIP3    H276446   0.990   1.685  13.431  0.2631 -1.9721  0.2113
18319TIP3   OH276447   2.144   1.479   2.135 -0.3703 -0.0518  0.8299
18319TIP3    H176448   2.182   1.394   2.156 -2.2399 -1.3595 -0.7161
18319TIP3    H276449   2.125   1.519   2.221 -0.6093 -1.7311  1.5901
18320TIP3   OH276450   2.364   1.326  13.629 -0.3679  0.2639  0.4377
18320TIP3    H176451   2.380   1.234  13.609 -1.3027  0.0874  0.4406
18320TIP3    H276452   2.304   1.355  13.561  1.2548  1.3736 -0.5961
18321TIP3   OH276453   5.077   2.012   0.688 -0.2546 -0.9977 -0.3749
18321TIP3    H176454   5.096   2.041   0.777 -1.9870 -3.3447  0.8462
18321TIP3    H276455   5.053   2.092   0.641  1.3640  0.3805  1.0313
18322TIP3   OH276456   4.472   4.804   2.607  0.0690 -0.1941 -0.1778
18322TIP3    H176457   4.487   4.869   2.539  0.6224  1.5640  1.5113
18322TIP3    H276458   4.513   4.724   2.574  1.7695  1.0487 -1.2277
18323TIP3   OH276459   6.730   2.478  16.430 -0.4277  0.1527 -0.0155
18323TIP3    H176460   6.785   2.556  16.437  0.0551 -0.1419 -0.4936
18323TIP3    H276461   6.651   2.500  16.480  0.6384  0.1149  1.7550
18324TIP3   OH276462   3.431   3.480  10.923  0.6402 -0.1000 -0.2654
18324TIP3    H176463   3.399   3.538  10.992  1.7216 -0.1574  0.2991
18324TIP3    H276464   3.393   3.395  10.944 -0.4692  0.2388 -0.7642
18325TIP3   OH276465   1.897   3.656  13.804 -0.3112 -0.0507 -0.3688
18325TIP3    H176466   1.962   3.727  13.807  0.1246 -0.3933 -1.2036
18325TIP3    H276467   1.916   3.602  13.881  2.2739 -1.7227 -1.9947
18326TIP3   OH276468   6.713   2.209   4.730 -0.4457  0.6409 -0.4996
18326TIP3    H176469   6.691   2.241   4.643  0.9228  0.6669 -0.8581
18326TIP3    H276470   6.767   2.278   4.769  0.4903 -0.1421 -0.3527
18327TIP3   OH276471   3.972   2.704  16.829  0.3327 -0.2125 -0.3347
18327TIP3    H176472   3.928   2.763  16.768  0.4823  0.1095 -0.1347
18327TIP3    H276473   4.052   2.751  16.854  0.5021 -0.5450 -0.2540
18328TIP3   OH276474   1.813   0.144   0.144 -0.9377 -0.0298  0.0817
18328TIP3    H176475   1.878   0.182   0.084 -0.7341 -0.6482 -0.0893
18328TIP3    H276476   1.864   0.115   0.219 -0.8001 -1.8010 -0.6511
18329TIP3   OH276477   3.454   5.587   1.448 -0.2479 -1.3884  0.1895
18329TIP3    H176478   3.420   5.510   1.402  1.4026 -2.0178 -0.0095
18329TIP3    H276479   3.547   5.590   1.427 -0.5175  1.5243 -1.0097
18330TIP3   OH276480   6.442   4.308   5.721  0.1686  0.2426  0.0838
18330TIP3    H176481   6.420   4.321   5.813 -1.7874 -3.9591  0.4201
18330TIP3    H276482   6.532   4.275   5.722 -0.5677 -1.9112  0.8329
18331TIP3   OH276483   3.831   0.067  11.810  0.4728 -0.5834  0.4645
18331TIP3    H176484   3.864   0.056  11.721  0.5460 -2.4441  0.6820
18331TIP3    H276485   3.907   0.053  11.866  0.0261 -1.4664  0.8679
18332TIP3   OH276486   2.597   2.041   4.280 -0.1732  0.3669  0.3411
18332TIP3    H176487   2.684   2.080   4.277 -1.7795  4.3591 -0.2012
18332TIP3    H276488   2.583   2.020   4.373  1.2514 -0.2250  0.4451
18333TIP3   OH276489   1.262   5.471   5.234 -0.3599 -0.4972 -0.1222
18333TIP3    H176490   1.354   5.485   5.212 -0.2733 -1.7826 -0.6521
18333TIP3    H276491   1.214   5.499   5.156 -0.5358  1.2378  0.5513
18334TIP3   OH276492   0.405   3.136   1.445 -0.1779 -0.8152 -0.8158
18334TIP3    H176493   0.466   3.168   1.378  1.5931 -1.0016  0.6404
18334TIP3    H276494   0.460   3.092   1.509 -1.5897  0.6941  1.5911
18335TIP3   OH276495   5.197   0.509   4.097  0.6212  0.3341 -0.0702
18335TIP3    H176496   5.204   0.563   4.018 -1.2955  0.3068 -0.3129
18335TIP3    H276497   5.259   0.547   4.158  1.3551  1.0325 -1.2171
18336TIP3   OH276498   1.767   4.434   1.634 -0.1068  0.6671 -0.6708
18336TIP3    H176499   1.792   4.401   1.547 -2.4892 -0.2962 -1.0870
18336TIP3    H276500   1.672   4.442   1.629 -0.2232  1.2852  1.6531
18337TIP3   OH276501   3.730   5.838   4.513 -0.4071 -0.0802 -0.1911
18337TIP3    H176502   3.774   5.918   4.544 -1.6409  0.7807 -0.6009
18337TIP3    H276503   3.722   5.784   4.592 -0.9395  0.8643  0.4245
18338TIP3   OH276504   6.381   5.050  14.253 -0.6674  0.3342 -0.7444
18338TIP3    H176505   6.441   5.124  14.259 -0.6187  0.1986  1.4295
18338TIP3    H276506   6.437   4.973  14.245 -0.5878  0.3395 -0.2978
18339TIP3   OH276507   5.155   4.218  15.208 -0.4480  0.7562 -0.6321
18339TIP3    H176508   5.124   4.128  15.202 -1.0297  0.7270  1.7911
18339TIP3    H276509   5.248   4.210  15.230 -0.1851  0.7901 -1.6749
18340TIP3   OH276510   6.120   0.777  12.742  0.1008 -0.1057 -0.2455
18340TIP3    H176511   6.123   0.826  12.824  2.5872  0.6246 -0.6881
18340TIP3    H276512   6.193   0.811  12.691  1.0669 -3.2493 -1.1795
18341TIP3   OH276513   6.643   5.047  13.760 -0.0730 -0.3558 -0.6101
18341TIP3    H176514   6.704   5.017  13.693  0.8820 -2.2122  1.0017
18341TIP3    H276515   6.560   5.005  13.738  0.6800 -2.4561  0.2943
18342TIP3   OH276516   0.312   1.790  17.119  0.2154 -0.3910 -0.2531
18342TIP3    H176517   0.377   1.738  17.167  0.9676  0.0640 -0.7644
18342TIP3    H276518   0.358   1.871  17.096 -0.6768  0.1393 -0.2215
18343TIP3   OH276519   1.581   2.104   3.624  0.1789  0.6221  0.5394
18343TIP3    H176520   1.631   2.182   3.599  0.2283 -0.1616 -2.1075
18343TIP3    H276521   1.538   2.077   3.544  0.6984 -2.4513  1.1853
18344TIP3   OH276522   3.314   4.378  12.102 -0.0098  0.9399  0.2946
18344TIP3    H176523   3.230   4.344  12.071  0.6953  0.1265 -0.8105
18344TIP3    H276524   3.315   4.469  12.074 -0.1545  0.7015 -0.5102
18345TIP3   OH276525   6.567   6.246   0.585 -0.1795  0.6078  0.3910
18345TIP3    H176526   6.475   6.254   0.612 -0.1939  2.7386 -0.1365
18345TIP3    H276527   6.562   6.223   0.492 -0.2226  2.1185 -0.0010
18346TIP3   OH276528   1.306   6.443   3.539 -0.1441 -0.0373 -0.2610
18346TIP3    H176529   1.360   6.445   3.618  0.7207 -0.0537 -0.8443
18346TIP3    H276530   1.266   6.356   3.539 -0.8302  0.2649  0.6017
18347TIP3   OH276531   2.736   0.938   1.617  0.1380  0.1945  0.3343
18347TIP3    H176532   2.646   0.922   1.645 -0.0427  1.3761  0.4689
18347TIP3    H276533   2.737   0.914   1.524  0.2965 -2.0317  0.8473
18348TIP3   OH276534   5.100   0.335  11.521 -0.1791  0.2306  0.3506
18348TIP3    H176535   5.129   0.254  11.564  1.3627  0.9338  0.7136
18348TIP3    H276536   5.168   0.399  11.543 -1.2696  1.5842 -0.0861
18349TIP3   OH276537   2.607   5.251   4.462  0.6902 -0.1591 -0.1986
18349TIP3    H176538   2.638   5.261   4.552  1.1286 -0.5519 -0.3008
18349TIP3    H276539   2.611   5.340   4.425  0.0617  0.0888  0.3018
18350TIP3   OH276540   0.354   4.272  13.483 -0.5290 -0.3221 -0.0491
18350TIP3    H176541   0.389   4.293  13.397  0.2132  0.1882  0.3640
18350TIP3    H276542   0.281   4.333  13.495 -0.2588  0.0084 -0.0765
18351TIP3   OH276543   1.072   5.271  15.664  0.6420 -0.1060 -0.2309
18351TIP3    H176544   1.079   5.284  15.570  0.0747  2.4441 -0.0053
18351TIP3    H276545   0.981   5.245  15.679  0.2193  1.2231 -0.2991
18352TIP3   OH276546   3.031   3.286   2.185 -0.4479  0.0782 -0.8777
18352TIP3    H176547   3.126   3.293   2.175  0.0607 -0.3665  2.4229
18352TIP3    H276548   3.010   3.196   2.163  0.2090 -0.3069  0.0250
18353TIP3   OH276549   1.371   2.024   4.950 -0.4811 -0.2110  0.0081
18353TIP3    H176550   1.300   2.043   4.889 -0.2381 -0.1813 -0.2675
18353TIP3    H276551   1.421   2.106   4.955 -0.3759 -0.2785  0.0756
18354TIP3   OH276552   6.332   3.440  11.724  0.0127 -0.0874  0.0323
18354TIP3    H176553   6.255   3.491  11.751  1.6667  1.3429  2.4458
18354TIP3    H276554   6.316   3.352  11.759 -0.5557  0.1723  0.4376
18355TIP3   OH276555   4.712   4.537  15.623 -0.1945 -0.5987  0.7494
18355TIP3    H176556   4.640   4.523  15.684  1.1367 -1.0404  2.2700
18355TIP3    H276557   4.669   4.566  15.542 -1.9624  0.6874  2.0658
18356TIP3   OH276558   4.355   1.522  12.929 -0.4570  0.0738  0.6363
18356TIP3    H176559   4.374   1.554  13.018  0.8541 -2.7880  1.5143
18356TIP3    H276560   4.414   1.572  12.873  0.8965 -0.1191  1.8149
18357TIP3   OH276561   6.737   6.525   1.226  0.1586  0.4463  0.2725
18357TIP3    H176562   6.690   6.577   1.292  0.9229  1.3662  0.1048
18357TIP3    H276563   6.829   6.535   1.248  0.3670 -0.1008 -0.3159
18358TIP3   OH276564   1.560   0.452   5.339 -0.6346  0.4140 -0.3449
18358TIP3    H176565   1.605   0.451   5.423  0.8016 -1.8907 -1.0333
18358TIP3    H276566   1.468   0.465   5.361 -0.0634  2.0909  1.3570
18359TIP3   OH276567   2.814   4.861   3.898 -0.1438  0.0698 -0.0067
18359TIP3    H176568   2.822   4.897   3.810  0.4655 -0.0942 -0.0214
18359TIP3    H276569   2.819   4.936   3.957  1.2335  0.0179 -0.0302
18360TIP3   OH276570   4.531   0.395  13.982  0.6961  1.1993  0.2093
18360TIP3    H176571   4.520   0.430  13.893 -0.0209  0.6707  0.0757
18360TIP3    H276572   4.601   0.448  14.020  1.8306  0.6827 -1.0627
18361TIP3   OH276573   3.573   4.858  10.884 -0.2854 -0.4503 -0.0951
18361TIP3    H176574   3.593   4.944  10.921  0.2687 -0.5642 -0.1268
18361TIP3    H276575   3.657   4.813  10.880 -0.5671 -0.9908 -0.0967
18362TIP3   OH276576   0.893   6.126   1.466  0.4693  0.3179 -0.0306
18362TIP3    H176577   0.923   6.204   1.420  2.2753 -1.0726 -1.3421
18362TIP3    H276578   0.845   6.077   1.400 -0.2130  0.0550  0.6443
18363TIP3   OH276579   6.367   6.351   1.682  0.7319 -0.0834  0.0688
18363TIP3    H176580   6.416   6.374   1.603  0.2190  0.0223 -0.2239
18363TIP3    H276581   6.382   6.424   1.742 -0.3575  0.7407 -0.6160
18364TIP3   OH276582   4.506   0.428   4.444  0.7791 -0.3080  0.1814
18364TIP3    H176583   4.577   0.467   4.496  1.2492 -0.4342 -0.3538
18364TIP3    H276584   4.466   0.503   4.399 -0.4881 -0.0111  1.7049
18365TIP3   OH276585   5.540   1.180  15.485 -0.1012 -0.2731 -0.1721
18365TIP3    H176586   5.619   1.127  15.500  0.5574  0.4632 -0.9343
18365TIP3    H276587   5.493   1.133  15.416  0.6535  0.2949 -1.0906
18366TIP3   OH276588   0.744   1.872  12.878  0.3013  0.3623 -0.2354
18366TIP3    H176589   0.655   1.891  12.906  0.8369  2.3911  0.2643
18366TIP3    H276590   0.796   1.878  12.959  0.8225 -1.3986 -0.4079
18367TIP3   OH276591   6.659   6.598  14.891 -0.7392 -0.1391 -0.2774
18367TIP3    H176592   6.687   6.538  14.822 -1.2970 -0.0507 -0.5878
18367TIP3    H276593   6.633   6.541  14.964 -2.6568 -0.3768 -1.0827
18368TIP3   OH276594   6.289   5.402  11.056 -0.0941  0.0844  0.1819
18368TIP3    H176595   6.216   5.384  10.997  0.3437 -0.2482 -0.2693
18368TIP3    H276596   6.343   5.323  11.052  1.3258  1.0565 -1.0217
18369TIP3   OH276597   3.151   3.824  17.369  1.7057 -0.5132 -0.3081
18369TIP3    H176598   3.234   3.810  17.416  1.3571 -1.6526 -0.0202
18369TIP3    H276599   3.083   3.801  17.431  1.1458  0.4451 -0.5375
18370TIP3   OH276600   3.996   1.925   2.414 -0.0094 -0.1310 -0.4490
18370TIP3    H176601   3.961   1.940   2.502  0.3983 -0.5365 -0.2100
18370TIP3    H276602   4.089   1.910   2.428  0.4587  1.8285 -1.1674
18371TIP3   OH276603   6.495   4.218  15.912  0.2860 -0.2041 -0.0597
18371TIP3    H176604   6.485   4.196  16.004  3.2995 -2.2749 -0.0673
18371TIP3    H276605   6.469   4.138  15.866 -0.6718  0.6209 -0.9901
18372TIP3   OH276606   4.908   4.009  17.266  0.5170 -0.2943 -0.1987
18372TIP3    H176607   4.896   4.081  17.328  0.7011  0.0220 -0.5298
18372TIP3    H276608   4.983   4.034  17.212  1.8605 -1.6353  0.9594
18373TIP3   OH276609   0.187   1.224  14.502 -0.3036  0.0421  0.6141
18373TIP3    H176610   0.219   1.146  14.548 -1.2353 -0.0089  1.1984
18373TIP3    H276611   0.092   1.223  14.516 -0.3883  0.9935  0.1796
18374TIP3   OH276612   2.320   6.291  16.313 -0.3018 -0.1475 -0.4639
18374TIP3    H176613   2.272   6.354  16.368 -1.3014 -1.5446  0.3298
18374TIP3    H276614   2.400   6.273  16.361 -1.6190 -2.1248  1.1295
18375TIP3   OH276615   4.480   3.204   0.953 -0.1830  0.1090 -0.2351
18375TIP3    H176616   4.426   3.223   0.876  0.6841 -0.7448 -1.1000
18375TIP3    H276617   4.456   3.114   0.977  1.7375 -0.8366 -1.4947
18376TIP3   OH276618   1.767   0.920   6.462 -0.8023  0.0840  0.9107
18376TIP3    H176619   1.675   0.893   6.469 -1.7219  3.1069  1.7618
18376TIP3    H276620   1.792   0.944   6.551  1.0803 -1.1991  0.8058
18377TIP3   OH276621   2.047   5.813  14.702  0.0713 -0.0698 -0.4568
18377TIP3    H176622   1.987   5.739  14.691  1.7800 -1.3136 -1.9991
18377TIP3    H276623   2.011   5.863  14.775 -1.8038 -1.7543 -0.1561
18378TIP3   OH276624   2.832   3.024  12.922 -0.4278  0.8609  0.1962
18378TIP3    H176625   2.858   3.045  12.833  1.5693  1.2761  0.8227
18378TIP3    H276626   2.852   3.103  12.972 -0.6491  0.3137  1.1825
18379TIP3   OH276627   0.847   0.435   2.851  0.5734 -0.7130 -0.3242
18379TIP3    H176628   0.874   0.351   2.889  1.4713 -0.6034 -0.6902
18379TIP3    H276629   0.878   0.432   2.761  0.5699 -0.0112 -0.3565
18380TIP3   OH276630   1.369   5.146   0.133  0.4290  0.3365 -0.2949
18380TIP3    H176631   1.278   5.163   0.109 -0.0639 -2.7185 -0.9410
18380TIP3    H276632   1.417   5.155   0.051  0.6812  1.4843 -0.0420
18381TIP3   OH276633   5.719   6.578   1.545  0.1722  0.3249 -0.4889
18381TIP3    H176634   5.665   6.613   1.616  1.4869  2.3286 -0.4051
18381TIP3    H276635   5.679   6.493   1.524 -1.8165  0.8645  0.8439
18382TIP3   OH276636   3.042   5.105   4.599 -0.5904  0.4241 -0.6623
18382TIP3    H176637   3.097   5.036   4.561  0.6278  1.4083 -0.7478
18382TIP3    H276638   2.975   5.121   4.533  0.8197  1.2942 -1.9783
18383TIP3   OH276639   4.234   5.103  17.084  0.5783 -0.4684 -0.8211
18383TIP3    H176640   4.284   5.180  17.058  1.7432 -0.3107  1.5892
18383TIP3    H276641   4.294   5.054  17.141 -0.9058 -2.0080 -0.5080
18384TIP3   OH276642   6.155   5.569   6.500 -0.0896  0.8652  0.2218
18384TIP3    H176643   6.117   5.652   6.529  0.7162  1.6557 -0.8851
18384TIP3    H276644   6.217   5.594   6.431 -0.1665 -0.6935 -0.4563
18385TIP3   OH276645   2.463   4.051  13.850  0.2511 -0.5070  0.1174
18385TIP3    H176646   2.420   3.993  13.787 -1.0129  1.1114 -0.5682
18385TIP3    H276647   2.413   4.132  13.846  1.1004  0.1659  2.1015
18386TIP3   OH276648   5.904   5.098  12.637  0.4080 -1.0565 -0.2008
18386TIP3    H176649   5.851   5.103  12.558 -2.2140  1.0532  1.5190
18386TIP3    H276650   5.910   5.004  12.655  0.5289 -1.5467 -2.4908
18387TIP3   OH276651   3.520   5.611   0.666  0.4224  0.4661  0.0752
18387TIP3    H176652   3.477   5.647   0.744 -1.8684 -1.4423 -0.2125
18387TIP3    H276653   3.448   5.596   0.604  2.1678  1.9829 -2.4955
18388TIP3   OH276654   0.924   5.451   6.249  0.0064  0.0141 -0.0859
18388TIP3    H176655   0.989   5.476   6.183 -0.6338  0.9570 -0.3918
18388TIP3    H276656   0.840   5.468   6.206 -0.4212  0.3446  0.8576
18389TIP3   OH276657   4.698   2.345   2.196 -0.4374  0.8085 -0.0796
18389TIP3    H176658   4.619   2.383   2.158 -0.2329  0.3128 -1.0257
18389TIP3    H276659   4.757   2.333   2.121 -0.4681 -1.3164  0.1922
18390TIP3   OH276660   5.605   6.293   3.585  0.3279  0.3362 -0.2117
18390TIP3    H176661   5.567   6.318   3.669 -1.1209 -1.4748 -0.2683
18390TIP3    H276662   5.666   6.223   3.606 -0.6650 -0.7143 -0.7108
18391TIP3   OH276663   2.101   4.569  12.886 -0.0692 -0.3807 -0.5164
18391TIP3    H176664   2.141   4.622  12.817  1.5877 -1.4121 -0.3924
18391TIP3    H276665   2.123   4.615  12.967  0.9776 -0.9874 -0.4422
18392TIP3   OH276666   1.609   1.145   3.659 -0.2002  0.0938 -0.0576
18392TIP3    H176667   1.563   1.140   3.743 -0.9650 -0.1498 -0.4784
18392TIP3    H276668   1.678   1.209   3.674  0.1085 -0.4418  0.9581
18393TIP3   OH276669   4.021   3.886   4.534 -0.2657  0.4341  0.3905
18393TIP3    H176670   4.006   3.800   4.495  0.1831  0.6711 -0.3138
18393TIP3    H276671   4.008   3.872   4.628  1.0330 -0.6896  0.4258
18394TIP3   OH276672   1.488   6.369   5.653  0.0635  0.2562  0.3130
18394TIP3    H176673   1.462   6.282   5.683  1.7188 -0.0944  0.8584
18394TIP3    H276674   1.584   6.369   5.660  0.1686  1.7587 -0.6961
18395TIP3   OH276675   2.748   1.699  11.722  0.5559 -0.1528 -0.3620
18395TIP3    H176676   2.744   1.755  11.644 -0.4657  0.9667  0.4506
18395TIP3    H276677   2.791   1.753  11.788  1.1100 -0.9667 -0.0407
18396TIP3   OH276678   0.868   1.484   0.676 -0.1655 -0.1753  0.1423
18396TIP3    H176679   0.804   1.448   0.615 -1.2314  0.3665  0.9124
18396TIP3    H276680   0.829   1.565   0.708  1.6367  1.0459 -0.6039
18397TIP3   OH276681   6.558   2.216   0.543  0.0974 -0.0419  0.4940
18397TIP3    H176682   6.595   2.167   0.616  0.6904  0.3662  0.4735
18397TIP3    H276683   6.593   2.305   0.552 -0.6911  0.3009  0.3364
18398TIP3   OH276684   2.989   0.456   0.862  0.1493  0.0268  0.0684
18398TIP3    H176685   2.950   0.485   0.944 -0.8228 -1.9374  0.3569
18398TIP3    H276686   3.069   0.410   0.888  0.4402  0.3869 -0.1814
18399TIP3   OH276687   1.301   1.292   3.130 -0.5395  0.5842  0.4257
18399TIP3    H176688   1.251   1.282   3.050 -1.7593  1.0200  1.1094
18399TIP3    H276689   1.288   1.209   3.177  0.9597 -0.0562 -0.2250
18400TIP3   OH276690   3.882   3.604  12.768  0.2520 -0.0724  0.6643
18400TIP3    H176691   3.976   3.584  12.777  0.1054 -0.5224  1.2211
18400TIP3    H276692   3.872   3.690  12.809  0.9732  1.4668 -2.1698
18401TIP3   OH276693   6.716   1.624  12.521  0.3564 -0.0204  0.1477
18401TIP3    H176694   6.758   1.635  12.435  1.0256 -2.7249  0.0451
18401TIP3    H276695   6.743   1.537  12.550 -1.6218 -0.0536  2.1424
18402TIP3   OH276696   6.342   0.438   3.364 -0.6183  0.1028  0.4278
18402TIP3    H176697   6.397   0.387   3.423 -1.3106  0.5331  1.4640
18402TIP3    H276698   6.308   0.375   3.301  1.1223 -0.1686 -0.3241
18403TIP3   OH276699   5.059   4.617  11.701  0.1227  0.7695  0.8968
18403TIP3    H176700   5.074   4.534  11.656  0.2878 -1.2733  4.3979
18403TIP3    H276701   4.971   4.644  11.674  0.9171  0.7760 -2.0543
18404TIP3   OH276702   5.745   1.429  14.548 -0.8380 -0.1168  0.1903
18404TIP3    H176703   5.808   1.439  14.619 -0.9005 -1.6703  0.5017
18404TIP3    H276704   5.788   1.468  14.472 -0.9560  2.0017  1.1368
18405TIP3   OH276705   4.673   1.119  12.436 -0.0049  0.6569 -0.0868
18405TIP3    H176706   4.721   1.064  12.373  0.0773  3.0772 -2.3463
18405TIP3    H276707   4.582   1.089  12.430  0.4434 -0.9889  0.8212
18406TIP3   OH276708   3.501   3.519   4.141  0.0496  0.3491  0.2308
18406TIP3    H176709   3.519   3.439   4.191  1.3157 -0.1444 -0.9538
18406TIP3    H276710   3.422   3.499   4.091 -1.3327  0.9074  2.0883
18407TIP3   OH276711   2.594   0.446  11.245  0.6741 -0.2916  0.3084
18407TIP3    H176712   2.537   0.513  11.208  1.5258 -1.1401 -2.8521
18407TIP3    H276713   2.545   0.411  11.319 -1.3476  1.3520 -0.1693
18408TIP3   OH276714   3.936   4.467   6.148  0.2887 -0.0024  0.1361
18408TIP3    H176715   3.979   4.383   6.164 -1.4310 -0.7693  1.0497
18408TIP3    H276716   3.962   4.522   6.222 -1.8691 -1.1663  1.8964
18409TIP3   OH276717   3.899   6.152  16.106  0.1821  0.0256  0.2072
18409TIP3    H176718   3.938   6.214  16.044  0.3898  1.1355  1.3987
18409TIP3    H276719   3.876   6.206  16.181 -1.8510 -0.9429  0.3374
18410TIP3   OH276720   4.927   5.889  15.877  0.6088 -0.6859  0.6272
18410TIP3    H176721   4.930   5.923  15.966 -0.7617 -2.5473  1.4611
18410TIP3    H276722   4.879   5.955  15.827 -0.4606 -0.5615  1.7683
18411TIP3   OH276723   1.877   6.566   3.368  0.0797 -0.8673  0.0861
18411TIP3    H176724   1.964   6.593   3.398 -0.4611  0.6947  0.3642
18411TIP3    H276725   1.885   6.562   3.273  0.0063  1.2248 -0.0666
18412TIP3   OH276726   0.368   0.960   3.229  0.0763  0.4739 -0.2832
18412TIP3    H176727   0.397   1.049   3.246 -0.8952  0.6978  0.2977
18412TIP3    H276728   0.284   0.953   3.275  1.1938 -1.4761  1.6698
18413TIP3   OH276729   2.635   6.622   5.261 -0.5582  0.1493 -0.0857
18413TIP3    H176730   2.563   6.607   5.322 -1.0671  0.1577 -0.6758
18413TIP3    H276731   2.626   6.714   5.236 -1.8330 -0.4602 -2.0290
18414TIP3   OH276732   5.814   2.002  11.598 -0.0641 -0.4837 -0.3687
18414TIP3    H176733   5.829   1.917  11.639 -0.1405  0.1392  1.0310
18414TIP3    H276734   5.827   2.065  11.669 -0.3231  0.6536 -1.2977
18415TIP3   OH276735   6.275   4.215   5.545 -0.1581 -0.1297 -0.4931
18415TIP3    H176736   6.316   4.131   5.523  0.0234  0.2670 -1.7508
18415TIP3    H276737   6.333   4.253   5.612  1.7388  0.5369 -2.4123
18416TIP3   OH276738   5.159   3.206   6.013 -0.4279 -0.5316  0.1911
18416TIP3    H176739   5.185   3.174   6.100 -1.3465 -0.9137  0.3348
18416TIP3    H276740   5.063   3.206   6.015 -0.5535  3.1928  0.5529
18417TIP3   OH276741   3.908   6.002   2.488  0.0999  0.3410 -0.1932
18417TIP3    H176742   3.985   6.037   2.533 -0.3443 -0.0069  0.8640
18417TIP3    H276743   3.934   5.998   2.396  1.8678 -1.0897  0.3123
18418TIP3   OH276744   2.799   0.685   4.098  0.1449 -0.0086 -0.0164
18418TIP3    H176745   2.706   0.661   4.090  0.6293 -1.3334 -4.5404
18418TIP3    H276746   2.805   0.770   4.055  0.9828  0.3533  0.7924
18419TIP3   OH276747   3.869   6.245   4.745  0.1516 -0.0214 -0.6536
18419TIP3    H176748   3.927   6.170   4.761 -0.2610 -0.1624  0.1940
18419TIP3    H276749   3.861   6.288   4.830  0.1236  0.8044 -1.0659
18420TIP3   OH276750   1.696   1.481  12.192  0.3934  0.1947 -0.4842
18420TIP3    H176751   1.640   1.533  12.135 -0.0346 -0.6445 -0.8509
18420TIP3    H276752   1.784   1.491  12.155  0.0163 -0.9155 -1.7507
18421TIP3   OH276753   4.312   5.731   6.424  0.0994  0.2514 -0.0499
18421TIP3    H176754   4.318   5.653   6.478  0.8522  0.3026 -0.0594
18421TIP3    H276755   4.341   5.802   6.481 -0.4208  0.5046 -0.0934
18422TIP3   OH276756   1.835   3.672   2.190 -0.1704  0.1632 -0.1354
18422TIP3    H176757   1.770   3.715   2.134 -1.0269 -0.8495  0.0441
18422TIP3    H276758   1.808   3.695   2.279  0.4806  0.7828 -0.0915
18423TIP3   OH276759   0.323   5.463   1.557 -0.0768  0.5302  0.2285
18423TIP3    H176760   0.399   5.437   1.608 -0.3544  0.2639  0.5051
18423TIP3    H276761   0.250   5.413   1.594 -0.5291  1.3547  0.4725
18424TIP3   OH276762   2.631   3.171   6.506 -0.1342  0.0152  0.0759
18424TIP3    H176763   2.680   3.101   6.549 -0.3378 -1.3787 -1.8158
18424TIP3    H276764   2.544   3.168   6.545  0.6565  1.1871  2.0479
18425TIP3   OH276765   6.741   5.286   0.557 -0.2438  0.6906  0.0119
18425TIP3    H176766   6.797   5.360   0.580  0.2117  0.1704  0.6027
18425TIP3    H276767   6.772   5.214   0.612 -1.6961  0.4749  0.5976
18426TIP3   OH276768   5.783   2.062  17.169  0.1501 -0.2859  0.4769
18426TIP3    H176769   5.776   1.976  17.210 -1.0827 -0.6010 -0.3503
18426TIP3    H276770   5.694   2.084  17.142  0.7422  0.3904 -1.0559
18427TIP3   OH276771   3.731   3.303  16.464 -0.0756 -0.0681 -0.2405
18427TIP3    H176772   3.801   3.340  16.410  1.4127 -0.9821  0.9712
18427TIP3    H276773   3.727   3.361  16.540  2.1967 -2.0767  1.6223
18428TIP3   OH276774   1.518   3.086   2.532 -0.3150  0.4286  0.6686
18428TIP3    H176775   1.463   3.130   2.468 -0.5552 -0.9041 -0.0854
18428TIP3    H276776   1.606   3.088   2.493 -0.4873 -0.5107  0.1982
18429TIP3   OH276777   3.129   1.856   4.173 -0.1664 -0.2458 -0.1771
18429TIP3    H176778   3.136   1.800   4.095  0.5971  2.0818 -1.9008
18429TIP3    H276779   3.206   1.913   4.168 -1.0996  1.2092  1.2658
18430TIP3   OH276780   5.032   3.019   2.710 -0.0709 -0.1982  0.5662
18430TIP3    H176781   5.110   3.070   2.731  0.9898 -1.5983  0.1972
18430TIP3    H276782   5.012   2.972   2.791 -0.3650 -0.0712  0.5705
18431TIP3   OH276783   3.149   0.557  11.664 -0.1974 -0.4312 -0.0846
18431TIP3    H176784   3.158   0.504  11.744 -2.7983  0.8951  1.2261
18431TIP3    H276785   3.055   0.555  11.645 -0.1347  2.1201 -1.0565
18432TIP3   OH276786   4.727   6.334   0.062  0.2366  0.2900 -0.3927
18432TIP3    H176787   4.632   6.345   0.068  0.0547 -1.6406  1.0233
18432TIP3    H276788   4.762   6.421   0.077 -1.2987  1.1808 -1.6214
18433TIP3   OH276789   5.136   4.091  14.531 -0.0069  0.0021  0.5742
18433TIP3    H176790   5.102   4.174  14.564  0.3834  0.3704  0.0727
18433TIP3    H276791   5.085   4.024  14.577 -0.1107  0.5115  1.2229
18434TIP3   OH276792   6.218   0.993   3.664 -0.3257 -0.0610 -0.4920
18434TIP3    H176793   6.257   1.079   3.684 -1.7674  0.4018  0.4976
18434TIP3    H276794   6.182   1.003   3.576  0.8164 -0.1588 -0.9912
18435TIP3   OH276795   1.000   5.316   4.949 -0.1709 -0.0227  0.1537
18435TIP3    H176796   0.950   5.272   4.880  1.9975 -1.6676 -0.4751
18435TIP3    H276797   1.002   5.252   5.021 -0.0387  0.5263  0.6415
18436TIP3   OH276798   6.050   1.186  11.056 -0.1124  0.3375  0.2233
18436TIP3    H176799   5.978   1.237  11.095  1.2747  1.9363  0.8317
18436TIP3    H276800   6.124   1.201  11.115  1.1051 -0.0858 -1.1402
18437TIP3   OH276801   1.676   0.113   3.984  0.5702  0.1328 -0.3017
18437TIP3    H176802   1.588   0.146   3.963  0.3749 -1.0392 -1.5209
18437TIP3    H276803   1.735   0.178   3.946  0.2537  1.0344  0.6993
18438TIP3   OH276804   0.824   1.052   1.502 -0.1054 -0.3813 -0.3417
18438TIP3    H176805   0.740   1.030   1.461 -1.2669  1.2211  1.0069
18438TIP3    H276806   0.831   0.991   1.576 -1.7636  1.4686  1.4880
18439TIP3   OH276807   0.825   2.174  15.070  0.2973 -0.1544 -0.1075
18439TIP3    H176808   0.776   2.099  15.036  0.2297  0.1345 -0.6498
18439TIP3    H276809   0.842   2.229  14.994 -0.3598  0.7903  0.3948
18440TIP3   OH276810   5.986   5.928  15.108  0.0352 -0.4774 -0.1690
18440TIP3    H176811   5.951   6.016  15.094  0.3825 -0.1685  0.8732
18440TIP3    H276812   5.994   5.892  15.019 -0.8336  0.2474 -0.5596
18441TIP3   OH276813   5.491   6.444   4.785 -0.2946  0.2080  0.1178
18441TIP3    H176814   5.419   6.505   4.795  0.3796  1.0359  0.0690
18441TIP3    H276815   5.555   6.491   4.732  0.8421  0.0097  1.2554
18442TIP3   OH276816   2.730   5.530  14.441  0.8925 -0.0696  0.0900
18442TIP3    H176817   2.811   5.534  14.390  0.1996 -0.1125 -1.0411
18442TIP3    H276818   2.700   5.621  14.445 -0.0507 -0.2960 -1.2554
18443TIP3   OH276819   6.587   6.480  15.917 -0.1333 -0.3870 -0.5131
18443TIP3    H176820   6.513   6.423  15.941 -1.8199  1.9577  0.1884
18443TIP3    H276821   6.642   6.481  15.995 -0.9490  0.1913  0.0723
18444TIP3   OH276822   4.795   4.637  15.874  0.1452  0.3804 -1.0274
18444TIP3    H176823   4.791   4.572  15.804 -2.5508  2.0139 -2.6150
18444TIP3    H276824   4.717   4.621  15.927  0.3461  1.2465 -0.4329
18445TIP3   OH276825   4.935   6.209  12.343  0.4991  0.6388  0.1839
18445TIP3    H176826   4.891   6.140  12.293  0.6457 -1.4622  2.6980
18445TIP3    H276827   5.026   6.206  12.313  0.4760 -0.2037  0.1720
18446TIP3   OH276828   3.702   1.449   6.253  0.5545  0.1415 -0.2140
18446TIP3    H176829   3.780   1.504   6.257  0.2066  0.5863  1.2667
18446TIP3    H276830   3.661   1.460   6.339 -0.4799 -1.0456 -0.5231
18447TIP3   OH276831   2.697   6.731   6.281  0.2631  0.1247 -0.5749
18447TIP3    H176832   2.612   6.759   6.318  0.7843 -0.2121  0.9535
18447TIP3    H276833   2.758   6.799   6.310  0.6298  0.0687 -1.2033
18448TIP3   OH276834   4.582   2.793   0.931  0.2258 -0.3389  0.1261
18448TIP3    H176835   4.629   2.876   0.923 -0.6222  0.0493 -1.1838
18448TIP3    H276836   4.504   2.805   0.877 -0.0459 -1.8989  0.1329
18449TIP3   OH276837   1.542   6.499   2.199  0.2811 -0.0632 -0.0992
18449TIP3    H176838   1.495   6.486   2.281  0.2742  1.5076  0.1791
18449TIP3    H276839   1.485   6.557   2.148  0.3206 -0.9433 -1.2072
18450TIP3   OH276840   3.348   5.407   2.682  0.2892  0.1274 -0.0814
18450TIP3    H176841   3.340   5.334   2.620 -0.7083  0.0316  0.1451
18450TIP3    H276842   3.400   5.372   2.754  1.8300  0.3655 -1.0331
18451TIP3   OH276843   1.073   4.066   3.563 -0.5915 -0.3180  0.1630
18451TIP3    H176844   1.062   4.046   3.470 -3.1328 -1.4559  0.6162
18451TIP3    H276845   0.989   4.105   3.589  0.6984  1.7068  1.6302
18452TIP3   OH276846   0.871   2.767   6.252  0.1750  0.7304 -0.4451
18452TIP3    H176847   0.802   2.731   6.196  0.7379  1.9169 -1.9898
18452TIP3    H276848   0.830   2.843   6.294  0.1597  0.6836 -0.3767
18453TIP3   OH276849   1.999   0.937  14.520  0.1796  0.2989  0.0907
18453TIP3    H176850   1.951   0.926  14.438  0.5996 -1.7150  0.0627
18453TIP3    H276851   1.947   0.889  14.585 -0.1205  1.8115  1.0495
18454TIP3   OH276852   5.694   6.172   2.920 -0.1743 -0.8983  0.2657
18454TIP3    H176853   5.657   6.248   2.964  0.1392 -0.4166 -0.2802
18454TIP3    H276854   5.781   6.201   2.893 -0.1709 -1.3507 -0.2167
18455TIP3   OH276855   4.216   5.307   6.085  0.0671  0.4232 -0.3602
18455TIP3    H176856   4.230   5.400   6.065  2.3016  0.2716  0.1869
18455TIP3    H276857   4.184   5.306   6.175 -0.7448  0.6920 -0.6423
18456TIP3   OH276858   3.982   4.225  14.938 -0.2159  0.4789 -0.0718
18456TIP3    H176859   4.065   4.189  14.969 -0.9297 -0.6230  0.6277
18456TIP3    H276860   3.942   4.155  14.886 -0.1703  1.4318 -1.4667
18457TIP3   OH276861   4.128   1.242   0.344  0.5555 -0.5077  0.5716
18457TIP3    H176862   4.208   1.189   0.349 -0.2163 -1.6429  1.6265
18457TIP3    H276863   4.066   1.197   0.401 -1.6723 -1.1017 -2.0892
18458TIP3   OH276864   5.850   1.133   5.663  0.1197 -0.7737 -0.7267
18458TIP3    H176865   5.896   1.208   5.627 -0.8803  0.8785  1.1922
18458TIP3    H276866   5.766   1.168   5.693  0.3556 -2.2011  1.9329
18459TIP3   OH276867   3.769   0.935  11.252 -0.7356 -0.1807 -0.6528
18459TIP3    H176868   3.778   0.961  11.161 -1.6377 -0.5941 -0.8758
18459TIP3    H276869   3.847   0.968  11.295 -0.8931  1.1106 -1.3266
18460TIP3   OH276870   6.600   3.443   6.727  0.1117  0.0468  0.4117
18460TIP3    H176871   6.571   3.400   6.808 -1.6161 -1.3039 -0.8528
18460TIP3    H276872   6.555   3.527   6.727  2.7729  1.6109  2.4403
18461TIP3   OH276873   6.234   2.557   0.493 -0.0490 -0.2385 -0.3514
18461TIP3    H176874   6.247   2.481   0.549 -2.0051 -0.4252 -0.0862
18461TIP3    H276875   6.218   2.520   0.406  0.5558 -0.0464 -0.5509
18462TIP3   OH276876   5.325   1.733  15.607 -0.9688 -0.0706  0.1704
18462TIP3    H176877   5.380   1.753  15.683 -1.2032  2.4804 -0.2440
18462TIP3    H276878   5.247   1.692  15.645  0.1980 -1.6397  0.9731
18463TIP3   OH276879   4.584   1.576   2.679 -0.1585 -0.5473  0.4375
18463TIP3    H176880   4.592   1.635   2.603 -0.1389  0.0219  0.8722
18463TIP3    H276881   4.633   1.621   2.748 -2.9418  0.6487  1.8047
18464TIP3   OH276882   4.776   5.041   2.307  0.4241  0.0447  0.3435
18464TIP3    H176883   4.787   5.076   2.395  0.8820  2.8163 -0.6996
18464TIP3    H276884   4.801   5.113   2.250 -3.0040 -0.4789 -2.1105
18465TIP3   OH276885   4.798   0.296  12.896 -0.5099 -0.5093 -0.1422
18465TIP3    H176886   4.783   0.322  12.805 -2.0622 -0.1345  0.1785
18465TIP3    H276887   4.729   0.343  12.945  0.9849  0.2055  1.3744
18466TIP3   OH276888   0.492   6.225  15.290  0.1962 -0.3448 -1.2587
18466TIP3    H176889   0.574   6.185  15.259  0.6908 -0.6049  0.2854
18466TIP3    H276890   0.426   6.157  15.276  0.9008 -1.4974  0.6737
18467TIP3   OH276891   0.505   0.596   4.125  0.0909 -0.1240 -0.2028
18467TIP3    H176892   0.555   0.550   4.058  0.3942 -2.0915  1.2800
18467TIP3    H276893   0.414   0.578   4.104  0.1365  0.1184 -0.6300
18468TIP3   OH276894   5.292   3.360   1.026 -0.1029 -0.0833  0.4083
18468TIP3    H176895   5.349   3.284   1.032 -1.1582 -0.8812  0.7806
18468TIP3    H276896   5.205   3.323   1.011 -0.4924  1.1032 -0.3885
18469TIP3   OH276897   0.804   1.696   0.388  0.2158  0.4299  0.1791
18469TIP3    H176898   0.802   1.686   0.483  3.4803  2.7167  0.6506
18469TIP3    H276899   0.744   1.768   0.370 -2.6462 -1.8011 -0.0119
18470TIP3   OH276900   3.636   5.263  13.796  0.0918 -0.1459  0.0206
18470TIP3    H176901   3.592   5.273  13.881  2.7981  1.3889  1.3888
18470TIP3    H276902   3.693   5.187  13.808  0.9564  0.4584 -0.1436
18471TIP3   OH276903   5.277   4.023  10.962 -0.5034 -0.2214 -0.0954
18471TIP3    H176904   5.299   4.070  11.042 -1.4769  2.3073 -1.1987
18471TIP3    H276905   5.185   4.000  10.972  0.2199 -3.0589  0.8964
18472TIP3   OH276906   6.029   2.560  12.373 -0.4178  0.6212  0.3313
18472TIP3    H176907   6.098   2.540  12.437 -2.0487  0.0889  1.9948
18472TIP3    H276908   6.076   2.570  12.290  1.4475 -2.1746  0.8883
18473TIP3   OH276909   4.847   5.641   1.681  0.6450  0.0315  0.0586
18473TIP3    H176910   4.769   5.656   1.734  1.5327 -1.0201  1.7416
18473TIP3    H276911   4.860   5.546   1.683  1.8814  0.1722 -0.2899
18474TIP3   OH276912   1.454   0.392  16.616 -0.4989  0.1387 -0.0944
18474TIP3    H176913   1.513   0.351  16.680  0.8292 -1.4529 -2.2050
18474TIP3    H276914   1.394   0.445  16.669  0.7302 -0.8171  2.4122
18475TIP3   OH276915   3.313   0.680  14.174  0.2730  0.0812 -0.1264
18475TIP3    H176916   3.236   0.720  14.133  0.4145  1.0868  0.5618
18475TIP3    H276917   3.387   0.711  14.123  0.6745  3.1206  2.0652
18476TIP3   OH276918   1.943   0.029  14.993  0.2140  0.6597  0.9277
18476TIP3    H176919   1.940   0.122  14.973 -0.9681  0.0505 -2.4104
18476TIP3    H276920   2.020  -0.003  14.947  0.8318  0.0233  2.3681
18477TIP3   OH276921   5.475   2.943   4.432 -0.4372  0.1131  0.3064
18477TIP3    H176922   5.425   3.020   4.404  0.3953  0.7627  0.5850
18477TIP3    H276923   5.420   2.902   4.499 -0.1483  1.4144  1.3784
18478TIP3   OH276924   2.467   4.882  16.114  0.2757 -0.3116  0.1284
18478TIP3    H176925   2.509   4.917  16.192  0.6409 -2.5129  0.9783
18478TIP3    H276926   2.538   4.868  16.052  0.1071  0.5764 -0.2757
18479TIP3   OH276927   0.124   6.376  15.017  0.5217  0.5597  0.1705
18479TIP3    H176928   0.183   6.403  15.087 -0.7806  2.3305  0.6605
18479TIP3    H276929   0.059   6.320  15.060 -0.0866  1.3795  0.3505
18480TIP3   OH276930   6.637   0.257  15.274 -0.0115  0.2926 -0.0174
18480TIP3    H176931   6.688   0.276  15.195  2.0104 -0.0362  1.1314
18480TIP3    H276932   6.673   0.174  15.305  0.8067  1.4683  2.4250
18481TIP3   OH276933   4.808   0.627   1.429  0.9867  0.3047 -0.3818
18481TIP3    H176934   4.799   0.649   1.336 -1.1997 -0.1310 -0.3379
18481TIP3    H276935   4.751   0.691   1.473  1.9516  0.4658  0.6565
18482TIP3   OH276936   3.129   0.950  15.041 -0.1633 -0.2746 -0.0007
18482TIP3    H176937   3.110   1.027  14.989 -0.7168  0.4340  1.2042
18482TIP3    H276938   3.224   0.938  15.034  0.1052  1.2412  0.7655
18483TIP3   OH276939   0.335   0.938   5.109 -0.5449  0.6994  0.0322
18483TIP3    H176940   0.371   0.923   5.022  1.6611  1.5554  0.7060
18483TIP3    H276941   0.269   1.006   5.097 -0.8843  0.2064 -1.0595
18484TIP3   OH276942   6.753   0.908   3.967  0.3375 -0.1492  0.1566
18484TIP3    H176943   6.681   0.880   4.024  0.8313  0.0284  0.8897
18484TIP3    H276944   6.799   0.975   4.019 -0.0851  1.1219 -1.0497
18485TIP3   OH276945   1.133   3.102  12.521  0.1840  0.4726 -0.0659
18485TIP3    H176946   1.096   3.092  12.609 -0.2173  1.3214 -0.1310
18485TIP3    H276947   1.061   3.135  12.468  0.5776  0.5039 -0.5874
18486TIP3   OH276948   1.684   4.148  17.023  0.1323 -0.2372  0.0914
18486TIP3    H176949   1.709   4.188  16.940  1.2858 -0.1323  0.4670
18486TIP3    H276950   1.674   4.222  17.083  3.8949 -0.4248  1.2282
18487TIP3   OH276951   1.954   6.768   1.863 -0.0291  0.5793 -0.0689
18487TIP3    H176952   1.937   6.738   1.952 -1.0156  0.3390 -0.3228
18487TIP3    H276953   1.884   6.728   1.811  1.6514 -0.9191 -1.3035
18488TIP3   OH276954   4.696   5.182   6.410 -0.4434 -0.0996 -0.3775
18488TIP3    H176955   4.722   5.244   6.479  0.4877 -2.2890  1.3675
18488TIP3    H276956   4.648   5.114   6.457 -0.9067 -1.0263 -2.1397
18489TIP3   OH276957   0.609   6.666   3.324 -0.3452  0.0543 -0.0201
18489TIP3    H176958   0.565   6.733   3.377 -0.8096  0.5298 -0.9673
18489TIP3    H276959   0.702   6.689   3.330 -0.5305  1.0945 -0.6926
18490TIP3   OH276960   0.184   5.350   2.575  0.1776 -0.1928  0.2431
18490TIP3    H176961   0.111   5.328   2.632 -2.5494 -0.2140 -2.9262
18490TIP3    H276962   0.221   5.431   2.612 -3.7294  1.8116  0.2371
18491TIP3   OH276963   5.694   0.037  12.250 -0.0267 -0.9595 -0.1344
18491TIP3    H176964   5.706   0.124  12.211 -1.0423 -0.9280 -0.3988
18491TIP3    H276965   5.757  -0.019  12.205  1.0871 -0.2450  0.4733
18492TIP3   OH276966   2.617   4.399   4.281 -0.0600 -0.6706 -0.2640
18492TIP3    H176967   2.605   4.331   4.348 -0.6083  0.3573  0.7110
18492TIP3    H276968   2.705   4.384   4.248  0.6229 -0.5990  1.4146
18493TIP3   OH276969   5.858   6.009  11.268 -0.0805  0.2533 -0.0476
18493TIP3    H176970   5.800   5.966  11.205  0.0924  0.7175 -0.5232
18493TIP3    H276971   5.825   6.098  11.274  0.3430  0.4113 -0.0208
18494TIP3   OH276972   0.056   3.295  12.254  0.4239  0.3742  0.0182
18494TIP3    H176973  -0.029   3.290  12.297  0.5000  1.9681  0.3792
18494TIP3    H276974   0.100   3.369  12.295  1.4933  0.3575 -1.0516
18495TIP3   OH276975   5.404   2.175   5.752 -0.2253  0.0322 -0.0648
18495TIP3    H176976   5.327   2.122   5.730  0.5195 -0.6854 -1.0179
18495TIP3    H276977   5.456   2.118   5.809  0.8807 -0.5272 -1.5983
18496TIP3   OH276978   2.600   2.356   6.686 -0.1631  0.3378  0.0815
18496TIP3    H176979   2.676   2.313   6.725 -0.4680  0.2236  0.5584
18496TIP3    H276980   2.559   2.403   6.759  0.0811  1.3153 -0.3941
18497TIP3   OH276981   3.105   0.097   4.029 -0.3486 -0.1677  0.4447
18497TIP3    H176982   3.200   0.091   4.040 -0.1576 -1.4888 -1.4547
18497TIP3    H276983   3.085   0.034   3.960 -2.7310 -0.4846  1.3428
18498TIP3   OH276984   4.659   5.305  17.245 -0.4585  0.3101  0.3307
18498TIP3    H176985   4.754   5.307  17.236 -0.3475 -1.8557  0.5741
18498TIP3    H276986   4.643   5.244  17.317 -2.0175  1.3452  0.9112
18499TIP3   OH276987   2.757   4.731  14.690 -0.7366  0.0752  0.0059
18499TIP3    H176988   2.815   4.802  14.662 -1.1856  0.4214 -0.0633
18499TIP3    H276989   2.736   4.684  14.609  2.9486 -2.8387  0.4511
18500TIP3   OH276990   1.492   4.219  15.596  0.3102 -0.3167  0.0936
18500TIP3    H176991   1.559   4.259  15.652  1.8658 -1.0550 -1.1717
18500TIP3    H276992   1.502   4.125  15.611 -1.5438 -0.3991  1.0639
18501TIP3   OH276993   0.105   4.559  15.974 -0.2141 -0.6618  0.8985
18501TIP3    H176994   0.028   4.503  15.985 -1.3085  0.5443 -0.2831
18501TIP3    H276995   0.138   4.536  15.887 -0.2410  0.0036  0.7120
18502TIP3   OH276996   1.081   3.865   3.754  0.2782 -0.2424  0.0242
18502TIP3    H176997   1.070   3.934   3.689  0.0810  0.0945  0.4114
18502TIP3    H276998   1.101   3.912   3.835 -0.8634 -0.5739  0.5193
18503TIP3   OH276999   4.684   0.421   2.232  0.4883 -0.7102 -0.4582
18503TIP3    H177000   4.690   0.338   2.280 -1.2695 -0.6996 -0.1363
18503TIP3    H277001   4.773   0.457   2.234  0.6419 -1.0407  2.2260
18504TIP3   OH277002   6.277   4.377   1.081  0.5049 -0.0593  0.2834
18504TIP3    H177003   6.301   4.285   1.071  2.2237 -0.0635  3.2647
18504TIP3    H277004   6.331   4.408   1.153  0.5349  3.5361 -1.0819
18505TIP3   OH277005   4.541   0.380   6.191 -0.4229  0.3632  0.0643
18505TIP3    H177006   4.598   0.356   6.264 -0.5878 -1.0684 -0.2544
18505TIP3    H277007   4.485   0.304   6.178 -1.5101  1.2349 -0.4956
18506TIP3   OH277008   1.834   0.854  12.471 -0.0901  0.1215 -0.1569
18506TIP3    H177009   1.899   0.881  12.406  1.6292  0.5391  1.6520
18506TIP3    H277010   1.837   0.922  12.538  0.3781 -1.7285  1.8202
18507TIP3   OH277011   5.289   4.495  12.655  0.1004  0.3723 -0.2174
18507TIP3    H177012   5.299   4.557  12.727 -0.6306  1.3586 -0.9496
18507TIP3    H277013   5.196   4.473  12.654 -0.0337  0.9235 -1.3079
18508TIP3   OH277014   2.864   0.779   1.798 -0.4040 -0.5039  0.2057
18508TIP3    H177015   2.820   0.830   1.730 -0.4117 -0.0502  0.5438
18508TIP3    H277016   2.814   0.796   1.877  0.9258  0.8169  0.8147
18509TIP3   OH277017   1.876   5.151   3.129 -0.2385 -0.1638 -0.5603
18509TIP3    H177018   1.901   5.113   3.045 -0.3225 -0.5164 -0.4285
18509TIP3    H277019   1.932   5.106   3.193 -1.1723 -0.9549 -0.2621
18510TIP3   OH277020   2.933   0.759   2.228  0.0814  0.0652 -0.1365
18510TIP3    H177021   2.903   0.668   2.241 -2.0715  0.8856  1.2812
18510TIP3    H277022   2.896   0.785   2.144  0.3163 -0.2109 -0.3283
18511TIP3   OH277023   5.851   0.353   1.504 -0.0278  0.2591  0.3554
18511TIP3    H177024   5.820   0.442   1.520 -2.7744 -0.7316  1.1879
18511TIP3    H277025   5.805   0.325   1.425  0.9537 -0.3828 -0.0108
18512TIP3   OH277026   3.153   4.076  16.240 -0.6428  0.1924 -0.2665
18512TIP3    H177027   3.060   4.077  16.218 -1.0219  0.5189  1.2379
18512TIP3    H277028   3.175   4.168  16.255 -0.5091 -0.0143  0.9680
18513TIP3   OH277029   3.956   4.715   5.707  0.0720 -0.3676  0.2705
18513TIP3    H177030   4.017   4.678   5.643 -2.2689  0.3627 -2.5917
18513TIP3    H277031   3.928   4.798   5.668 -2.0293 -0.2311  1.9144
18514TIP3   OH277032   1.728   5.371   3.783 -0.2725 -0.2878 -0.0479
18514TIP3    H177033   1.742   5.282   3.815 -1.0544  0.5889  3.0914
18514TIP3    H277034   1.653   5.364   3.724 -0.1955 -1.6932 -0.0175
18515TIP3   OH277035   1.099   5.644  14.684  0.1403  0.0896 -0.7638
18515TIP3    H177036   1.147   5.622  14.605  1.0822  0.9696 -0.4646
18515TIP3    H277037   1.167   5.671  14.746 -0.3867 -2.1829  0.9377
18516TIP3   OH277038   1.051   3.074   5.475  0.0155 -0.3600 -0.2047
18516TIP3    H177039   1.082   3.112   5.393 -1.8902  0.8260 -0.4230
18516TIP3    H277040   1.128   3.032   5.512  1.4615  1.0104 -1.5103
18517TIP3   OH277041   4.633   0.617  13.440 -0.2009 -0.2741  0.0359
18517TIP3    H177042   4.540   0.592  13.434  0.6115 -4.1135  0.7614
18517TIP3    H277043   4.664   0.614  13.349 -0.5188 -0.3344 -0.0733
18518TIP3   OH277044   3.721   0.075   5.394  0.1596  1.1187  0.2344
18518TIP3    H177045   3.675   0.126   5.461  1.9156  2.8007  0.2200
18518TIP3    H277046   3.811   0.068   5.426  0.4188 -0.3523 -0.7135
18519TIP3   OH277047   4.264   3.001   0.904  0.3686  0.2724  0.2113
18519TIP3    H177048   4.327   3.012   0.834 -0.1978  0.7928 -0.2273
18519TIP3    H277049   4.204   2.934   0.873 -0.3551  1.0723 -0.1617
18520TIP3   OH277050   5.434   1.847   1.573  0.0786  0.2637 -0.5277
18520TIP3    H177051   5.395   1.891   1.497 -0.7599  0.8320  0.2046
18520TIP3    H277052   5.527   1.840   1.552  0.1561  1.9474 -0.8992
18521TIP3   OH277053   1.272   2.992   1.425  0.1057  0.0586 -0.4591
18521TIP3    H177054   1.305   2.950   1.346  1.0136 -0.5458  0.2302
18521TIP3    H277055   1.349   3.004   1.480 -0.3934  1.1587  0.0340
18522TIP3   OH277056   6.540   0.583   3.987 -0.1331  0.1109  0.0750
18522TIP3    H177057   6.556   0.645   4.058 -0.9372 -1.0761  1.3558
18522TIP3    H277058   6.472   0.623   3.934  2.1427  2.1341 -1.5280
18523TIP3   OH277059   0.361   3.600  12.466 -0.4495  0.4671  0.6642
18523TIP3    H177060   0.357   3.511  12.431  2.5278  0.0578  1.1193
18523TIP3    H277061   0.326   3.593  12.555 -3.1090  0.4726 -0.2762
18524TIP3   OH277062   5.766   6.325  10.904 -0.3015  0.3898 -0.0942
18524TIP3    H177063   5.748   6.362  10.818  1.9374  0.5969 -0.5233
18524TIP3    H277064   5.709   6.374  10.963 -0.0405  2.0240 -1.1316
18525TIP3   OH277065   2.723   0.146   3.051 -0.6179  0.5313  0.3135
18525TIP3    H177066   2.774   0.185   2.981 -0.9739 -0.6638 -0.6413
18525TIP3    H277067   2.762   0.180   3.131 -0.8560  2.7538 -0.4372
18526TIP3   OH277068   0.260   1.168   1.007 -0.1360 -0.3058 -0.2512
18526TIP3    H177069   0.338   1.160   0.953 -1.3138 -0.9785 -1.9268
18526TIP3    H277070   0.208   1.237   0.965  0.1396  1.1533  1.6566
18527TIP3   OH277071   5.928   6.146   0.987 -0.3322  0.0745 -0.3426
18527TIP3    H177072   6.012   6.106   1.010 -1.3638 -0.9892  1.9075
18527TIP3    H277073   5.918   6.218   1.049 -0.1955  1.5542 -1.9556
18528TIP3   OH277074   1.056   2.208  16.355 -0.7687  0.6051 -0.2339
18528TIP3    H177075   0.994   2.273  16.321 -0.7435  0.7649  0.0252
18528TIP3    H277076   1.014   2.174  16.433 -1.6509 -1.0591 -1.3819
18529TIP3   OH277077   4.268   4.005   6.139 -0.2375 -0.4303  0.7822
18529TIP3    H177078   4.208   3.943   6.097  1.9788 -0.8874 -2.0737
18529TIP3    H277079   4.320   3.951   6.199  0.0164 -0.8786  0.1754
18530TIP3   OH277080   1.929   0.865  16.484 -0.0464 -0.3524 -0.2613
18530TIP3    H177081   1.959   0.954  16.466 -0.5313 -0.2898 -0.7990
18530TIP3    H277082   2.006   0.810  16.472  0.7530  0.1732  1.9303
18531TIP3   OH277083   2.489   4.949  13.952  0.1997  0.3360 -0.0103
18531TIP3    H177084   2.494   4.914  14.041 -0.4452 -2.1076 -0.8677
18531TIP3    H277085   2.559   4.906  13.904  0.7676  1.8853 -0.6588
18532TIP3   OH277086   4.636   0.382  16.782 -0.3066  0.2086  0.0424
18532TIP3    H177087   4.702   0.322  16.816  0.1085  0.7218  0.1673
18532TIP3    H277088   4.594   0.334  16.710 -0.9405 -0.7331  1.0259
18533TIP3   OH277089   0.133   3.886   4.904 -0.2522  0.3744 -0.0083
18533TIP3    H177090   0.077   3.926   4.838  0.1769 -0.3082 -0.8122
18533TIP3    H277091   0.137   3.950   4.975 -1.1177  0.9105 -0.4287
18534TIP3   OH277092   1.534   6.615   1.203  0.2227 -0.3893 -0.2275
18534TIP3    H177093   1.540   6.606   1.108 -1.8677 -0.7054 -0.3745
18534TIP3    H277094   1.585   6.542   1.238  0.0209 -0.9739 -1.1265
18535TIP3   OH277095   3.925   2.865  11.476  0.1297 -0.3696  0.3748
18535TIP3    H177096   3.978   2.929  11.428  1.4758 -0.9475  1.0372
18535TIP3    H277097   3.904   2.909  11.559 -1.7541  0.4283 -0.4558
18536TIP3   OH277098   3.807   3.539  13.492  0.0442  0.6598  0.4349
18536TIP3    H177099   3.840   3.621  13.456  1.7358 -0.0342  0.2694
18536TIP3    H277100   3.782   3.560  13.582  0.1063  1.4237  0.2799
18537TIP3   OH277101   2.784   3.621   5.436  0.0983  0.6209 -0.1844
18537TIP3    H177102   2.870   3.661   5.424  0.2600  0.2803 -0.1794
18537TIP3    H277103   2.756   3.652   5.522  0.6113  0.0236  0.2071
18538TIP3   OH277104   2.905   3.031  14.391 -0.2710 -1.2525  0.5888
18538TIP3    H177105   2.925   3.092  14.320  2.1418  0.2541  2.3944
18538TIP3    H277106   2.831   3.071  14.437  0.5039 -0.2849  1.0324
18539TIP3   OH277107   2.282   4.372  15.250 -0.1348  0.3936  0.0849
18539TIP3    H177108   2.189   4.397  15.250 -0.1593  0.4276  2.0006
18539TIP3    H277109   2.280   4.276  15.245 -0.2950  0.3756  0.4328
18540TIP3   OH277110   6.543   0.005   1.980  0.4189 -0.1191 -0.3689
18540TIP3    H177111   6.569   0.032   1.892 -0.1432 -1.2479 -0.9033
18540TIP3    H277112   6.625  -0.013   2.026  0.7682  1.5221 -0.2821
18541TIP3   OH277113   0.182   2.525   1.577 -0.0105  0.6175  0.5210
18541TIP3    H177114   0.093   2.508   1.547  0.5891 -1.4734 -0.2838
18541TIP3    H277115   0.175   2.532   1.672 -0.8634 -1.1512  0.6332
18542TIP3   OH277116   5.390   1.727   1.249 -0.7087  0.3459  0.3252
18542TIP3    H177117   5.362   1.814   1.277 -0.5333  1.3476 -2.3566
18542TIP3    H277118   5.342   1.666   1.306  1.1368  2.0782  4.1495
18543TIP3   OH277119   3.831   0.682  16.462  0.1881 -0.3439 -0.3730
18543TIP3    H177120   3.836   0.606  16.404  0.2402  0.2188 -1.1176
18543TIP3    H277121   3.765   0.658  16.527  0.6843 -1.2903 -0.1986
18544TIP3   OH277122   1.044   0.255  16.138  0.4879  0.7585 -0.3426
18544TIP3    H177123   1.065   0.186  16.076 -0.4040 -0.7085  0.9137
18544TIP3    H277124   0.951   0.273  16.124  0.6362  1.5076 -0.4413
18545TIP3   OH277125   2.878   2.799  15.622 -0.2241  0.0609 -0.3628
18545TIP3    H177126   2.870   2.811  15.528 -1.6214  1.4620 -0.0990
18545TIP3    H277127   2.965   2.835  15.643  0.0487 -0.1592 -1.0957
18546TIP3   OH277128   2.750   5.876   0.472 -0.0448  0.6232 -0.4626
18546TIP3    H177129   2.710   5.864   0.558  0.2431  0.2125 -0.3844
18546TIP3    H277130   2.680   5.915   0.418 -0.3934  0.3727 -0.1925
18547TIP3   OH277131   2.012   2.192   3.560 -0.1920  0.0410  0.0360
18547TIP3    H177132   2.050   2.189   3.472 -0.5180 -0.1810 -0.1012
18547TIP3    H277133   2.059   2.262   3.604  0.9979 -0.8198  0.1729
18548TIP3   OH277134   2.781   1.993   5.364  0.4284  0.2831 -0.0373
18548TIP3    H177135   2.768   1.904   5.333 -0.1143 -0.2543  1.6394
18548TIP3    H277136   2.716   2.005   5.433 -0.0439  2.2584 -0.7496
18549TIP3   OH277137   6.142   5.523   3.921  0.1068  0.5033 -0.6191
18549TIP3    H177138   6.232   5.515   3.890 -0.0347  2.3482 -1.6460
18549TIP3    H277139   6.104   5.594   3.869 -1.7610  0.1983  0.2190
18550TIP3   OH277140   2.149   1.868   2.647 -0.0369 -0.1489 -0.0173
18550TIP3    H177141   2.184   1.945   2.691 -3.7883  1.4585  0.5185
18550TIP3    H277142   2.159   1.798   2.711 -0.0390  0.7992  1.0544
18551TIP3   OH277143   2.696   2.882  13.156  0.5280  0.1763 -0.4266
18551TIP3    H177144   2.614   2.924  13.180  0.0531 -0.2733 -1.2096
18551TIP3    H277145   2.715   2.915  13.068  1.3386  0.4984 -0.1439
18552TIP3   OH277146   6.162   5.093   4.857 -0.5658  0.1796 -0.1230
18552TIP3    H177147   6.176   5.171   4.804  0.2178  0.8906  1.0675
18552TIP3    H277148   6.250   5.057   4.869 -0.7555 -0.0867  0.5018
18553TIP3   OH277149   4.234   5.979  13.054  0.7897 -0.1563 -0.2892
18553TIP3    H177150   4.320   6.018  13.036 -0.4421  3.4437  0.8777
18553TIP3    H277151   4.212   6.009  13.142 -1.3007 -1.8161 -0.1540
18554TIP3   OH277152   4.908   6.463   3.516 -0.6818 -0.0995 -0.1163
18554TIP3    H177153   4.925   6.489   3.426  0.7006 -0.0165  0.1337
18554TIP3    H277154   4.824   6.418   3.514 -0.6760 -0.0687 -1.4342
18555TIP3   OH277155   6.352   0.900  16.123  0.4984  0.1235  0.4424
18555TIP3    H177156   6.259   0.892  16.100  0.5541 -0.8116  0.5177
18555TIP3    H277157   6.384   0.969  16.065  0.0828 -0.5543 -0.6224
18556TIP3   OH277158   2.630   5.214   2.642  0.4031  0.6062  0.6674
18556TIP3    H177159   2.674   5.299   2.640 -0.4614  1.1420 -3.1705
18556TIP3    H277160   2.701   5.150   2.633  0.8184  1.1164  0.2644
18557TIP3   OH277161   2.602   1.109  12.721 -0.1792  0.2405 -0.3910
18557TIP3    H177162   2.517   1.067  12.710 -0.2874  0.5195 -0.6414
18557TIP3    H277163   2.581   1.196  12.756  0.0612 -0.0313  0.4533
18558TIP3   OH277164   2.315   3.121  12.156 -0.4814 -0.0461 -0.5095
18558TIP3    H177165   2.241   3.166  12.116  0.0981  0.3565 -1.1491
18558TIP3    H277166   2.279   3.038  12.187 -1.3624  0.4649 -0.1336
18559TIP3   OH277167   1.570   2.260  12.193 -0.3864  0.2549 -0.3968
18559TIP3    H177168   1.591   2.189  12.133 -1.3998 -1.9526  1.7090
18559TIP3    H277169   1.494   2.303  12.155  1.1975  1.3861 -2.5300
18560TIP3   OH277170   5.364   0.664  15.107  0.2095 -0.1394  0.3213
18560TIP3    H177171   5.459   0.676  15.120  0.2638 -0.6652  0.4305
18560TIP3    H277172   5.355   0.572  15.085 -0.0420  0.3550 -1.8570
18561TIP3   OH277173   5.242   0.788  13.685  0.0450 -0.8725 -0.0843
18561TIP3    H177174   5.182   0.856  13.716  0.4997 -1.7733  3.1520
18561TIP3    H277175   5.188   0.731  13.631 -1.1684  0.1452 -0.0119
18562TIP3   OH277176   2.576   5.467   0.181 -0.1077  0.3136 -0.3456
18562TIP3    H177177   2.667   5.452   0.207 -1.0720 -2.4354  1.8332
18562TIP3    H277178   2.555   5.393   0.123 -1.0469  0.8084 -0.6637
18563TIP3   OH277179   3.634   0.173   1.198  0.0838 -0.2473  0.4521
18563TIP3    H177180   3.705   0.117   1.232  0.9346  1.4501  1.6031
18563TIP3    H277181   3.678   0.232   1.137 -0.6094 -0.0944  0.0904
18564TIP3   OH277182   0.094   0.736   4.429 -0.5222  0.1172 -0.4073
18564TIP3    H177183   0.014   0.760   4.476  0.0663  0.4985  0.4233
18564TIP3    H277184   0.113   0.812   4.374  0.9452  1.3768  1.6932
18565TIP3   OH277185   3.464   0.435  12.097 -0.3525  0.3708 -0.2249
18565TIP3    H177186   3.377   0.397  12.089  0.0657 -0.8250  0.6574
18565TIP3    H277187   3.517   0.391  12.031 -0.1541  0.2934 -0.0173
18566TIP3   OH277188   2.952   6.555  13.334 -0.1064 -0.5881  0.1495
18566TIP3    H177189   3.027   6.614  13.343 -0.5957  0.3968 -1.5409
18566TIP3    H277190   2.910   6.583  13.252 -1.2955 -2.2694  0.1269
18567TIP3   OH277191   0.227   4.760   2.421 -0.1389  0.1368 -0.0958
18567TIP3    H177192   0.177   4.713   2.487  0.1250  1.2887  0.9630
18567TIP3    H277193   0.313   4.717   2.422 -0.5505 -0.7212 -0.6752
18568TIP3   OH277194   6.508   1.362  11.414 -0.4246  0.0142  0.3547
18568TIP3    H177195   6.545   1.274  11.411 -0.6016 -0.0798  0.8857
18568TIP3    H277196   6.479   1.373  11.504  0.3783  0.9407  0.5272
18569TIP3   OH277197   1.959   2.511   5.243 -0.0960 -0.5378 -0.2251
18569TIP3    H177198   1.987   2.421   5.255 -0.5814 -0.8656 -1.3575
18569TIP3    H277199   1.865   2.509   5.262 -0.1826 -0.3578 -0.6238
18570TIP3   OH277200   3.548   3.846  16.642  0.1663 -0.0290 -0.3702
18570TIP3    H177201   3.543   3.751  16.642  1.3078 -0.1074  0.7723
18570TIP3    H277202   3.593   3.868  16.560 -0.8465 -0.4128 -1.0372
18571TIP3   OH277203   2.103   2.818   4.691  0.3249  0.0253 -0.0102
18571TIP3    H177204   2.179   2.829   4.749 -0.5202 -0.7553  1.2998
18571TIP3    H277205   2.115   2.884   4.623  0.2684  2.5323  2.2375
18572TIP3   OH277206   1.047   3.544  12.235 -0.0665 -0.6610  0.2807
18572TIP3    H177207   1.049   3.517  12.144 -0.6037  0.1034  0.0333
18572TIP3    H277208   1.081   3.633  12.234 -0.0160 -0.6707  0.8396
18573TIP3   OH277209   3.915   4.752  14.269 -0.7905  0.3675 -0.1193
18573TIP3    H177210   3.940   4.670  14.228 -2.4577 -0.1374 -0.1587
18573TIP3    H277211   3.956   4.749  14.356 -1.5426 -0.8842  0.2011
18574TIP3   OH277212   1.510   2.409  16.488  0.1889 -0.0982  0.4315
18574TIP3    H177213   1.425   2.405  16.444  0.0801  1.2920  0.4689
18574TIP3    H277214   1.490   2.389  16.580  0.1578 -1.3526  0.1592
18575TIP3   OH277215   0.988   1.942  11.451 -0.1716  0.1683  0.0988
18575TIP3    H177216   0.914   1.882  11.442 -1.6330  2.0989 -2.1462
18575TIP3    H277217   1.064   1.890  11.427 -1.1941 -1.1555 -0.4156
18576TIP3   OH277218   1.680   0.439   0.889 -0.2925 -0.0864 -0.4699
18576TIP3    H177219   1.697   0.502   0.959  2.3180  0.7703 -1.7381
18576TIP3    H277220   1.611   0.382   0.924 -2.2407  2.9334  1.0567
18577TIP3   OH277221   4.188   1.352  12.240 -0.2190 -0.3540 -0.4397
18577TIP3    H177222   4.233   1.275  12.275 -0.6382 -0.0926  0.7068
18577TIP3    H277223   4.250   1.390  12.178 -0.4413 -2.2446 -1.9025
18578TIP3   OH277224   1.828   3.685  12.102 -0.6014  0.8980  0.4090
18578TIP3    H177225   1.919   3.663  12.121 -0.5794 -0.2587 -0.8875
18578TIP3    H277226   1.833   3.760  12.043 -0.4541  0.5600 -0.0181
18579TIP3   OH277227   0.236   0.525  12.541  0.0823 -0.7229  0.5426
18579TIP3    H177228   0.284   0.607  12.535 -0.0815 -0.6469  0.2326
18579TIP3    H277229   0.236   0.490  12.452 -0.7032 -0.5623  0.4686
18580TIP3   OH277230   3.961   1.567   2.622 -0.0551  0.3726 -0.0600
18580TIP3    H177231   4.026   1.609   2.566 -0.7186  2.3914  0.5890
18580TIP3    H277232   4.012   1.530   2.694  0.5813 -0.3190 -0.8369
18581TIP3   OH277233   4.431   3.344   4.922  0.6042  0.1706 -0.0830
18581TIP3    H177234   4.435   3.384   5.009 -1.3001 -1.0576  0.6156
18581TIP3    H277235   4.340   3.353   4.894  0.5826 -1.7240 -0.8169
18582TIP3   OH277236   4.993   5.811  12.782  0.1061  0.3660  0.4017
18582TIP3    H177237   4.927   5.807  12.851  2.1234 -1.1679  2.3756
18582TIP3    H277238   5.018   5.904  12.778 -0.6499  0.6121  1.1096
18583TIP3   OH277239   2.217   1.522  14.753  0.1542  0.1160  0.3326
18583TIP3    H177240   2.289   1.526  14.690 -0.6708 -0.1913 -0.6608
18583TIP3    H277241   2.160   1.453  14.719  0.7883 -1.6378  2.6318
18584TIP3   OH277242   5.404   6.208   1.279  0.3977 -0.2678  0.3788
18584TIP3    H177243   5.398   6.215   1.184 -2.7944 -0.9282  0.4009
18584TIP3    H277244   5.434   6.294   1.308  2.1342 -0.2828 -1.2079
18585TIP3   OH277245   3.679   4.261  10.468  0.3337  0.4122  0.0055
18585TIP3    H177246   3.594   4.252  10.426  0.3948  0.7452 -0.1899
18585TIP3    H277247   3.665   4.326  10.537  0.4298  0.4721 -0.0309
18586TIP3   OH277248   4.979   4.812   6.002  0.0331 -0.0555  0.3565
18586TIP3    H177249   4.933   4.808   6.086 -0.7154  0.5334 -0.0116
18586TIP3    H277250   4.942   4.889   5.958  1.4783  0.5297  0.1042
18587TIP3   OH277251   0.446   6.305  13.872  0.5833 -0.4680 -0.1408
18587TIP3    H177252   0.421   6.220  13.836 -1.4364  0.0005  0.0171
18587TIP3    H277253   0.398   6.311  13.954 -1.4002  1.8149 -1.3401
18588TIP3   OH277254   2.713   0.941   2.274  0.2983  0.2565 -0.0337
18588TIP3    H177255   2.787   1.002   2.283  1.5349 -1.2078  0.1823
18588TIP3    H277256   2.750   0.856   2.296 -0.8658 -0.9091 -2.2991
18589TIP3   OH277257   0.616   6.465  14.046 -0.4900  0.5438  0.1862
18589TIP3    H177258   0.550   6.473  13.977  0.7647  1.8548 -0.9476
18589TIP3    H277259   0.622   6.553  14.083  0.1924  0.2998  0.6730
18590TIP3   OH277260   1.608   6.393  12.014 -0.2537 -0.5932 -0.6138
18590TIP3    H177261   1.579   6.302  12.008 -1.0017 -0.3128 -1.4052
18590TIP3    H277262   1.539   6.443  11.971 -0.7812  0.5654  1.5024
18591TIP3   OH277263   2.220   0.925   5.670 -0.2741 -0.0401 -0.2478
18591TIP3    H177264   2.153   0.861   5.694  1.5859 -1.0681  2.6648
18591TIP3    H277265   2.187   1.008   5.704 -0.5318 -0.3419  0.2531
18592TIP3   OH277266   6.529   0.447   1.133 -0.0166 -0.1911 -0.2528
18592TIP3    H177267   6.460   0.503   1.098 -1.8007 -1.5771  0.8680
18592TIP3    H277268   6.556   0.490   1.214 -1.2440 -0.8004  0.5052
18593TIP3   OH277269   2.246   0.720   5.458  0.2877  0.8535  0.5646
18593TIP3    H177270   2.284   0.674   5.533  0.2383  2.4042  1.5878
18593TIP3    H277271   2.152   0.704   5.465  0.2993  0.8590  0.7311
18594TIP3   OH277272   0.178   2.188  16.038  0.3404  0.2594 -0.0195
18594TIP3    H177273   0.116   2.133  16.085 -2.4001  0.8520 -2.6130
18594TIP3    H277274   0.192   2.263  16.096 -2.4416  0.7073  0.2286
18595TIP3   OH277275   5.473   0.707   5.950 -0.0371  0.0712 -0.2139
18595TIP3    H177276   5.451   0.617   5.926 -0.5311 -0.1703  1.0491
18595TIP3    H277277   5.388   0.752   5.956  0.1784  0.5205 -0.4358
18596TIP3   OH277278   0.346   0.340  13.646  0.5188 -0.1627 -0.1578
18596TIP3    H177279   0.425   0.355  13.699  0.7342  0.2991 -0.5988
18596TIP3    H277280   0.377   0.343  13.556 -0.1790  1.1238 -0.3709
18597TIP3   OH277281   3.569   6.240   0.126 -0.3427 -0.4281  0.2802
18597TIP3    H177282   3.511   6.231   0.201 -0.0128  1.0219  0.7294
18597TIP3    H277283   3.583   6.334   0.116  0.7934 -0.6621 -0.6977
18598TIP3   OH277284   4.271   5.383  11.808  0.6451  0.0145  0.5649
18598TIP3    H177285   4.208   5.422  11.748  1.0701 -1.1959 -0.7337
18598TIP3    H277286   4.252   5.422  11.893 -0.4499  1.2406 -0.2191
18599TIP3   OH277287   2.528   1.226  13.984  0.0560 -0.1567  0.4253
18599TIP3    H177288   2.509   1.134  14.001 -1.0166  0.3431  2.2642
18599TIP3    H277289   2.450   1.259  13.939  0.7899 -0.3133 -0.9975
18600TIP3   OH277290   2.980   4.105  15.899 -0.7634  0.0811  1.1851
18600TIP3    H177291   2.958   4.070  15.813  1.7228 -1.2955  1.0169
18600TIP3    H277292   2.947   4.040  15.961  1.0648 -1.0946  1.0104
18601TIP3   OH277293   0.820   2.452  12.051  0.1699 -0.3364  1.1487
18601TIP3    H177294   0.747   2.407  12.094  2.1543 -2.0552  2.9883
18601TIP3    H277295   0.824   2.538  12.092  0.4078 -0.9996  2.5601
18602TIP3   OH277296   0.798   0.770   3.769 -0.3992  0.2217 -0.1058
18602TIP3    H177297   0.726   0.820   3.729 -1.9847 -2.2295 -0.5446
18602TIP3    H277298   0.847   0.735   3.695  1.0163  1.4576  0.1993
18603TIP3   OH277299   4.996   0.229   6.276  0.1753  0.1148  0.1965
18603TIP3    H177300   5.019   0.207   6.367 -1.4854 -2.9965  0.0034
18603TIP3    H277301   4.908   0.266   6.282  0.6275  1.2798 -0.0653
18604TIP3   OH277302   1.760   1.683  16.678  0.2759  0.2529  0.1596
18604TIP3    H177303   1.737   1.617  16.613  2.1168  0.8010 -1.1253
18604TIP3    H277304   1.821   1.639  16.737  1.8332  0.8637 -0.9429
18605TIP3   OH277305   0.550   1.525  10.830  0.1964 -0.5213 -0.2496
18605TIP3    H177306   0.645   1.538  10.819  0.4883 -1.0320  1.4958
18605TIP3    H277307   0.520   1.605  10.873 -0.0688 -0.6448 -0.2050
18606TIP3   OH277308   2.805   3.025   1.217 -0.6540 -0.3544  0.0819
18606TIP3    H177309   2.842   3.110   1.192 -0.1867 -0.4490  0.4215
18606TIP3    H277310   2.793   2.978   1.135  0.2733 -0.4315 -0.0206
18607TIP3   OH277311   0.411   3.887   2.980 -0.0642 -0.2669  0.8050
18607TIP3    H177312   0.386   3.924   3.064 -0.8898  0.5586  0.2068
18607TIP3    H277313   0.506   3.878   2.985 -0.0008  0.7065  1.4499
18608TIP3   OH277314   3.477   3.461  11.728  0.1786 -0.2787  0.5507
18608TIP3    H177315   3.451   3.504  11.647  2.3584 -0.3427 -0.2456
18608TIP3    H277316   3.453   3.369  11.715 -0.2312 -0.1390  0.3229
18609TIP3   OH277317   6.582   2.747   0.587 -0.2020  0.5141  0.5251
18609TIP3    H177318   6.649   2.808   0.556  0.2800  0.1676  0.8679
18609TIP3    H277319   6.499   2.788   0.563  0.0238  2.2446  2.4277
18610TIP3   OH277320   6.592   0.392  11.897  0.0856 -0.2741 -0.0402
18610TIP3    H177321   6.531   0.465  11.909 -0.2657 -0.6604  0.5734
18610TIP3    H277322   6.629   0.406  11.810  0.2849  0.8334  0.2071
18611TIP3   OH277323   6.355   0.100  15.537 -0.1560  0.0080 -0.3363
18611TIP3    H177324   6.442   0.089  15.576 -0.3038 -2.5155 -0.5555
18611TIP3    H277325   6.368   0.165  15.468  1.5865 -0.4006 -0.4507
18612TIP3   OH277326   0.938   1.157   3.378 -0.2520 -0.2345 -0.3306
18612TIP3    H177327   0.939   1.067   3.347 -1.3356 -0.3196 -0.1844
18612TIP3    H277328   0.852   1.191   3.350 -0.3614  0.3622  0.6675
18613TIP3   OH277329   0.651   1.918   0.263  0.2323  0.2679  0.8767
18613TIP3    H177330   0.571   1.866   0.262 -1.1178  2.2220 -1.4310
18613TIP3    H277331   0.647   1.967   0.345 -1.8047  1.5013  0.1084
18614TIP3   OH277332   5.281   4.375   2.616  0.2824 -0.5960 -0.4321
18614TIP3    H177333   5.272   4.443   2.683 -0.5514  1.0188 -2.0954
18614TIP3    H277334   5.336   4.415   2.549 -0.4789 -1.4387 -1.5863
18615TIP3   OH277335   3.473   3.623  17.143 -0.4575  0.6455 -0.2475
18615TIP3    H177336   3.453   3.631  17.236 -1.3515  1.5333 -0.5040
18615TIP3    H277337   3.546   3.561  17.140 -1.3727 -0.5453  0.9226
18616TIP3   OH277338   6.025   3.909   2.936 -0.0892 -0.1867  0.4599
18616TIP3    H177339   5.943   3.862   2.916  0.0318 -0.5028  0.7000
18616TIP3    H277340   5.998   3.984   2.988 -0.1101 -0.9359  1.5536
18617TIP3   OH277341   1.326   6.289  15.944  0.2192  0.5754 -0.2016
18617TIP3    H177342   1.380   6.210  15.937  3.0759  2.4849 -1.8098
18617TIP3    H277343   1.274   6.290  15.864 -0.2080  0.1040  0.0624
18618TIP3   OH277344   2.003   0.672   0.060 -0.3913  0.3350  0.0925
18618TIP3    H177345   1.977   0.689  -0.031  0.5586 -2.9655 -0.9332
18618TIP3    H277346   1.937   0.611   0.092  2.1968 -3.0212 -0.4068
18619TIP3   OH277347   4.796   2.345  16.747 -0.1045  0.2493  0.1415
18619TIP3    H177348   4.890   2.337  16.732  0.0606 -0.5698  1.4238
18619TIP3    H277349   4.788   2.359  16.842 -1.2565  0.7564 -0.0028
18620TIP3   OH277350   6.381   3.723  12.278  0.0003 -0.2245  0.2942
18620TIP3    H177351   6.358   3.691  12.191  0.0254  1.3673 -0.3143
18620TIP3    H277352   6.298   3.755  12.314  0.4785  1.7892 -0.3114
18621TIP3   OH277353   5.942   3.867   5.932 -0.0450  0.0437 -0.1451
18621TIP3    H177354   5.982   3.802   5.990  1.5229  0.4652 -0.6868
18621TIP3    H277355   6.010   3.934   5.921 -1.0318  0.9540 -0.8864
18622TIP3   OH277356   2.072   6.294  16.179 -0.4579 -0.7637  0.1384
18622TIP3    H177357   2.150   6.283  16.234 -0.1218  1.9075  0.3244
18622TIP3    H277358   2.089   6.240  16.102  0.8747 -1.4113  0.8473
18623TIP3   OH277359   5.026   6.347   3.772  0.1025 -0.0726  0.5160
18623TIP3    H177360   5.031   6.390   3.687 -0.9029 -0.2740  0.3373
18623TIP3    H277361   4.953   6.390   3.816 -1.0949 -1.7342  0.2404
18624TIP3   OH277362   6.002   3.350   3.066  0.3554  0.0251  0.3775
18624TIP3    H177363   5.936   3.296   3.024  0.9509  0.4299 -1.1458
18624TIP3    H277364   5.977   3.352   3.159 -0.7085 -1.3111  0.1368
18625TIP3   OH277365   1.149   6.263   4.407  0.6512  0.5833 -0.0551
18625TIP3    H177366   1.178   6.257   4.316 -1.7004 -1.3330 -0.7912
18625TIP3    H277367   1.072   6.206   4.412  0.8549  0.3753  3.2304
18626TIP3   OH277368   5.573   6.729   1.725 -0.0920  0.2457 -1.0572
18626TIP3    H177369   5.500   6.699   1.671 -0.3333  0.6369 -0.9438
18626TIP3    H277370   5.538   6.731   1.814  0.0476  0.4717 -1.0084
18627TIP3   OH277371   3.690   3.012   6.856  0.3068 -0.6313 -0.2168
18627TIP3    H177372   3.761   2.973   6.906  0.3637 -0.6870 -0.3401
18627TIP3    H277373   3.672   2.948   6.787  0.7614 -0.1963 -0.7467
18628TIP3   OH277374   6.588   0.109   5.733  0.2216  0.3600 -0.1226
18628TIP3    H177375   6.665   0.069   5.693  0.5087 -0.8696  1.5839
18628TIP3    H277376   6.624   0.173   5.795 -0.1833  0.7625 -0.2933
18629TIP3   OH277377   4.418   0.663  16.227 -0.4196  0.2678  0.0671
18629TIP3    H177378   4.341   0.655  16.283 -0.1066 -0.1590  0.4442
18629TIP3    H277379   4.404   0.597  16.158 -0.7750  0.7502 -0.3311
18630TIP3   OH277380   0.172   4.489   1.698 -0.3004  0.0015  0.7061
18630TIP3    H177381   0.129   4.545   1.763 -0.1616  0.4510  0.4160
18630TIP3    H277382   0.176   4.543   1.619  0.6718 -0.0750  0.6903
18631TIP3   OH277383   3.083   4.340  11.824  0.0490 -0.1633 -0.2765
18631TIP3    H177384   3.060   4.426  11.788 -3.6181 -0.8782 -0.0314
18631TIP3    H277385   3.042   4.339  11.910  0.6277 -1.9267  0.0121
18632TIP3   OH277386   5.679   4.542   1.142  0.2172 -0.0297 -0.4235
18632TIP3    H177387   5.726   4.511   1.065 -0.2502 -0.1747 -0.6546
18632TIP3    H277388   5.712   4.630   1.157  1.3883 -0.5331  0.0937
18633TIP3   OH277389   4.409   0.267  14.954  0.3952  0.4339  0.4849
18633TIP3    H177390   4.465   0.283  15.030 -0.5530  4.3483  0.6047
18633TIP3    H277391   4.320   0.266  14.990  0.0004  1.3939 -0.4171
18634TIP3   OH277392   0.903   0.623   3.034 -0.3185  0.1920  0.0785
18634TIP3    H177393   0.921   0.692   2.971  2.4308 -0.5735 -0.1167
18634TIP3    H277394   0.884   0.546   2.981 -0.6590  0.1629  0.2402
18635TIP3   OH277395   4.663   6.713   2.735  0.2425 -0.1384  0.6240
18635TIP3    H177396   4.576   6.674   2.727  1.4054 -3.2589  1.4725
18635TIP3    H277397   4.721   6.651   2.691  1.9551  2.7225 -1.5256
18636TIP3   OH277398   0.149   5.038  11.189 -0.2708  0.1240  0.2648
18636TIP3    H177399   0.140   5.059  11.282 -0.6563  1.9635 -0.1672
18636TIP3    H277400   0.097   4.958  11.178  2.3749 -2.0992  2.2155
18637TIP3   OH277401   0.418   6.001  14.114  0.0603  0.1395 -0.1000
18637TIP3    H177402   0.460   5.951  14.045  3.1816  0.9980  1.0009
18637TIP3    H277403   0.423   5.944  14.191  1.5746  1.1615  0.6147
18638TIP3   OH277404   6.147   5.442   1.056  0.1699 -0.1008  0.4428
18638TIP3    H177405   6.203   5.420   1.131  1.7476 -2.2963 -1.2506
18638TIP3    H277406   6.142   5.361   1.006 -2.8914  0.6180 -0.6024
18639TIP3   OH277407   2.764   5.571  11.265 -0.0219  0.3773  0.4543
18639TIP3    H177408   2.814   5.583  11.184 -1.3555 -1.2638 -0.6954
18639TIP3    H277409   2.756   5.659  11.301 -0.6658  1.4475 -2.0380
18640TIP3   OH277410   6.058   0.924  12.966 -0.0592 -0.0414 -0.0024
18640TIP3    H177411   6.093   0.989  13.027 -0.6428  0.1504  0.1337
18640TIP3    H277412   5.989   0.971  12.919 -0.2359 -0.4616 -0.1597
18641TIP3   OH277413   4.203   0.100   3.893 -0.0510  0.1157  0.1000
18641TIP3    H177414   4.115   0.078   3.923 -0.5949  1.8240 -0.0934
18641TIP3    H277415   4.207   0.068   3.803 -0.1840 -0.6810  0.3768
18642TIP3   OH277416   5.404   0.768  17.113 -0.7885 -0.1497 -0.3029
18642TIP3    H177417   5.345   0.843  17.109  0.6937  1.2327  1.5822
18642TIP3    H277418   5.421   0.756  17.207  1.0678 -1.1503 -0.7175
18643TIP3   OH277419   1.371   0.335   0.006  0.3024  0.2266 -0.3589
18643TIP3    H177420   1.322   0.413  -0.018 -0.6711 -0.4074 -0.4717
18643TIP3    H277421   1.307   0.277   0.047  0.7499 -0.9649 -1.2579
18644TIP3   OH277422   0.872   2.832  13.331 -0.7652 -0.1029  0.3404
18644TIP3    H177423   0.876   2.737  13.326 -3.4090 -0.3660  1.5105
18644TIP3    H277424   0.840   2.859  13.245 -0.4084 -0.2986  0.1435
18645TIP3   OH277425   1.842   5.633  14.441 -0.4118  0.0066  0.1581
18645TIP3    H177426   1.920   5.683  14.418 -0.5088  0.7851  1.4338
18645TIP3    H277427   1.857   5.546  14.404 -0.6669  1.1652 -2.9939
18646TIP3   OH277428   5.769   0.054   2.656 -0.0080 -0.3825 -0.3410
18646TIP3    H177429   5.826   0.028   2.729 -0.2883 -0.6452 -0.2137
18646TIP3    H277430   5.713  -0.022   2.641 -1.1888  0.3162  0.3712
18647TIP3   OH277431   3.378   3.547  15.368  0.8459  0.1481  0.2824
18647TIP3    H177432   3.392   3.477  15.303  1.6875 -0.6018  1.2414
18647TIP3    H277433   3.466   3.577  15.390  0.5449  0.6755  0.7915
18648TIP3   OH277434   1.605   0.377  17.057  0.2251 -0.1269 -0.6665
18648TIP3    H177435   1.651   0.389  17.140 -0.9178 -1.4093  0.1904
18648TIP3    H277436   1.516   0.408  17.075 -0.2841 -1.2790 -1.1105
18649TIP3   OH277437   5.870   5.114   2.775 -0.2439 -0.5727  0.5171
18649TIP3    H177438   5.821   5.032   2.769 -3.6231  1.3427 -3.3321
18649TIP3    H277439   5.919   5.119   2.693  1.8381  0.2782  1.7358
18650TIP3   OH277440   5.669   2.786   3.487  0.7766  0.1480 -0.6343
18650TIP3    H177441   5.655   2.880   3.492 -0.2234  0.0170 -0.6114
18650TIP3    H277442   5.746   2.769   3.541  0.2343  0.8094  0.3852
18651TIP3   OH277443   4.659   0.883  14.005  0.4413 -0.3880 -0.1321
18651TIP3    H177444   4.638   0.791  13.988  0.4904 -0.3645 -0.3136
18651TIP3    H277445   4.603   0.906  14.079  0.8299 -0.7239  0.2753
18652TIP3   OH277446   0.939   4.264   1.664  0.1614  0.4068 -0.5374
18652TIP3    H177447   0.861   4.314   1.688  1.0371  1.8076 -0.4791
18652TIP3    H277448   1.012   4.325   1.678  1.4250 -1.3140  0.7954
18653TIP3   OH277449   3.944   1.185   0.111  0.1433  0.1598 -0.1895
18653TIP3    H177450   3.981   1.098   0.096 -1.1583 -0.1172 -2.2524
18653TIP3    H277451   3.991   1.219   0.187  1.2680 -1.9999  0.1451
18654TIP3   OH277452   0.669   5.028   3.989 -0.6303  0.1391  0.1145
18654TIP3    H177453   0.575   5.042   3.976 -1.0034 -1.5311  0.7515
18654TIP3    H277454   0.678   4.933   3.992  1.0081  0.2914  0.6637
18655TIP3   OH277455   4.501   1.104  13.420  0.0878 -0.0738 -0.3946
18655TIP3    H177456   4.438   1.141  13.358 -0.7927  1.6132  1.3799
18655TIP3    H277457   4.468   1.132  13.506  0.8215 -2.9314  0.9316
18656TIP3   OH277458   3.197   4.859   6.326 -0.9455 -0.2315 -0.3907
18656TIP3    H177459   3.180   4.798   6.398 -0.7576 -1.3926 -1.2884
18656TIP3    H277460   3.138   4.932   6.342 -0.3422 -0.0782  1.3681
18657TIP3   OH277461   5.232   4.451   3.801  0.4499  0.0427 -0.1401
18657TIP3    H177462   5.282   4.386   3.751  2.1489 -0.3858  1.9485
18657TIP3    H277463   5.177   4.399   3.859 -0.4373  0.5208 -0.5349
18658TIP3   OH277464   4.539   3.573  15.095 -0.9298 -0.0900  0.1763
18658TIP3    H177465   4.466   3.529  15.052 -0.8115 -0.4693  0.3592
18658TIP3    H277466   4.569   3.511  15.161  0.9283 -0.8508 -1.2865
18659TIP3   OH277467   6.386   5.145   6.982  0.7457  0.2311  0.2713
18659TIP3    H177468   6.477   5.119   6.999  0.4226 -0.3539  1.1630
18659TIP3    H277469   6.333   5.077   7.024 -0.1196  1.4316  1.1994
18660TIP3   OH277470   5.068   2.622   1.038 -0.7439  0.3668  0.0671
18660TIP3    H177471   5.088   2.699   1.091 -1.7599  0.5787  0.1572
18660TIP3    H277472   5.081   2.548   1.098  0.6218  0.4178 -0.1302
18661TIP3   OH277473   3.764   2.993  15.825  0.5819 -0.0987 -0.5274
18661TIP3    H177474   3.700   2.979  15.894  1.4455 -0.5623  0.2051
18661TIP3    H277475   3.723   3.056  15.766  0.3616  1.4561  1.1666
18662TIP3   OH277476   4.719   2.892  15.561  0.0865 -0.3000 -0.1111
18662TIP3    H177477   4.758   2.861  15.480 -0.2013  1.6560 -1.0482
18662TIP3    H277478   4.684   2.979  15.540 -0.9022 -0.1632  1.8338
18663TIP3   OH277479   5.308   3.052   3.137  0.5754 -0.4475 -0.2720
18663TIP3    H177480   5.342   3.137   3.166 -1.9230  0.0811  1.3474
18663TIP3    H277481   5.263   3.071   3.054 -1.5955  0.2571  1.0099
18664TIP3   OH277482   5.088   4.046  11.302  0.6702 -0.7897 -0.9096
18664TIP3    H177483   5.098   4.133  11.264 -0.2171 -1.8225 -3.7263
18664TIP3    H277484   4.995   4.041  11.327  1.0195 -0.4855  0.5169
18665TIP3   OH277485   5.154   0.665   1.758  1.0903  0.0189  0.2140
18665TIP3    H177486   5.091   0.627   1.698 -1.3766  3.8602  0.0279
18665TIP3    H277487   5.129   0.630   1.844  0.9989 -1.1607 -0.2761
18666TIP3   OH277488   0.903   1.755  11.802  0.3422 -0.1607 -0.3455
18666TIP3    H177489   0.860   1.818  11.860 -1.6299 -2.1462  0.5362
18666TIP3    H277490   0.832   1.721  11.748  1.5767 -0.7351 -1.6685
18667TIP3   OH277491   2.592   5.088  16.850  0.1733 -0.0009  0.0014
18667TIP3    H177492   2.527   5.128  16.792 -0.3914  0.3278  0.8345
18667TIP3    H277493   2.554   5.002  16.872  0.2964 -0.0491  0.0233
18668TIP3   OH277494   5.351   5.726  11.953 -0.2773 -0.1952  0.3512
18668TIP3    H177495   5.347   5.808  11.904 -1.2593 -1.0059 -1.0204
18668TIP3    H277496   5.259   5.699  11.960  0.1579 -2.6711 -1.9506
18669TIP3   OH277497   4.044   5.112   3.412  0.6013  0.3851 -0.3392
18669TIP3    H177498   3.997   5.064   3.344 -0.2650  1.2970 -0.4168
18669TIP3    H277499   4.090   5.044   3.462  0.2719 -0.4112 -1.0881
18670TIP3   OH277500   2.335   4.800  17.387 -0.0160 -0.0205 -0.3524
18670TIP3    H177501   2.369   4.756  17.465 -0.5456 -0.2371 -0.2395
18670TIP3    H277502   2.273   4.865  17.421  0.5006  0.5771 -0.5376
18671TIP3   OH277503   2.339   0.796  15.736 -0.4285 -0.2843  0.0547
18671TIP3    H177504   2.326   0.864  15.669  1.0441 -0.2258 -0.1941
18671TIP3    H277505   2.276   0.819  15.805 -2.0044 -0.3598 -1.2848
18672TIP3   OH277506   2.988   1.347  13.739 -0.6479  0.0681  0.3755
18672TIP3    H177507   3.030   1.400  13.671  0.7421 -2.3358 -0.7703
18672TIP3    H277508   2.897   1.339  13.709 -1.3286  2.8610  1.3391
18673TIP3   OH277509   0.165   1.438   2.631  0.5913  0.0005  0.2933
18673TIP3    H177510   0.235   1.381   2.664 -1.1148 -1.7361  1.1241
18673TIP3    H277511   0.151   1.502   2.701  2.2215  1.2657 -0.4615
18674TIP3   OH277512   3.588   5.127   3.666  0.4648  0.0425  0.2778
18674TIP3    H177513   3.590   5.112   3.572  0.1761  1.5407  0.0034
18674TIP3    H277514   3.674   5.097   3.697  1.3051  1.2471 -0.7695
18675TIP3   OH277515   1.244   4.206  14.037  0.4320  0.3227  0.1305
18675TIP3    H177516   1.261   4.296  14.066  1.2277 -0.1677  1.2529
18675TIP3    H277517   1.172   4.176  14.092 -0.2734  0.4765 -0.6923
18676TIP3   OH277518   1.010   4.948  12.097 -0.3181  0.3996  0.0262
18676TIP3    H177519   1.050   4.991  12.172 -0.9417  0.9797  0.0306
18676TIP3    H277520   1.085   4.918  12.044  0.1182  0.7837  0.4184
18677TIP3   OH277521   2.174   6.639   0.527  0.2303 -0.2097  0.3645
18677TIP3    H177522   2.165   6.617   0.620 -2.9504 -1.0527 -0.0032
18677TIP3    H277523   2.089   6.677   0.504  0.2254 -1.7387 -2.5965
18678TIP3   OH277524   5.964   0.496  12.390 -1.0560 -0.1899 -0.6053
18678TIP3    H177525   6.005   0.453  12.465 -3.2764 -1.3495  0.0094
18678TIP3    H277526   5.995   0.586  12.395 -2.2979  0.1955  2.6886
18679TIP3   OH277527   5.989   1.253   3.071  0.0003  0.2111  0.5020
18679TIP3    H177528   5.999   1.286   3.160 -4.7217 -0.5791  1.6142
18679TIP3    H277529   5.940   1.171   3.081  0.6143 -0.7091 -2.7941
18680TIP3   OH277530   0.936   4.951  14.155  0.8104  0.3089 -0.1557
18680TIP3    H177531   0.844   4.960  14.128  0.2715 -0.4026  1.3496
18680TIP3    H277532   0.943   5.008  14.231  1.1697 -0.8716  0.7192
18681TIP3   OH277533   3.400   5.578   4.145  0.0902 -0.4333  0.0972
18681TIP3    H177534   3.311   5.612   4.131  0.7354  0.9623 -0.7701
18681TIP3    H277535   3.386   5.494   4.189 -1.6925 -0.7206 -0.9098
18682TIP3   OH277536   3.881   0.692  11.354  0.2132  0.6841  0.0498
18682TIP3    H177537   3.827   0.670  11.278 -0.1361  2.9609 -0.4232
18682TIP3    H277538   3.960   0.732  11.317  1.2930 -0.6395  0.8207
18683TIP3   OH277539   3.477   5.912   3.372  0.2111  0.4861 -0.5395
18683TIP3    H177540   3.403   5.853   3.387  0.6176  0.6567  2.7788
18683TIP3    H277541   3.437   5.991   3.336 -1.2485  0.5031  0.9895
18684TIP3   OH277542   4.264   0.838  16.834 -0.6357 -0.0954  0.0716
18684TIP3    H177543   4.206   0.780  16.783 -0.5993  0.5658 -0.7483
18684TIP3    H277544   4.347   0.834  16.788 -0.8208  1.1289 -0.4085
18685TIP3   OH277545   5.412   1.787  15.848  0.0431 -0.0428  0.2688
18685TIP3    H177546   5.336   1.777  15.905 -1.0019  2.9325 -0.4187
18685TIP3    H277547   5.474   1.840  15.899  0.4746 -0.1057 -0.1762
18686TIP3   OH277548   3.444   3.352   3.189 -0.3504 -0.0235  0.0674
18686TIP3    H177549   3.409   3.407   3.258 -0.9928 -0.8251  0.3955
18686TIP3    H277550   3.414   3.392   3.108 -0.3151  0.4338  0.2762
18687TIP3   OH277551   4.845   5.385   2.403  0.0270  0.4100  0.6080
18687TIP3    H177552   4.808   5.467   2.435  1.0984  0.8359  0.7715
18687TIP3    H277553   4.901   5.411   2.330 -0.1094 -0.2529  0.2561
18688TIP3   OH277554   4.367   1.681  14.458  0.4918 -0.1474 -0.3691
18688TIP3    H177555   4.312   1.746  14.500  0.1131  0.2896 -1.5059
18688TIP3    H277556   4.382   1.715  14.369  1.2440 -1.0443 -0.6089
18689TIP3   OH277557   6.282   0.991   1.660  0.5204  0.0140 -0.3190
18689TIP3    H177558   6.341   0.977   1.734 -0.7705 -1.0869  0.5376
18689TIP3    H277559   6.268   0.904   1.623 -0.1809  0.3211 -0.8027
18690TIP3   OH277560   1.099   0.799  16.180  1.0273 -0.7867 -0.3492
18690TIP3    H177561   1.175   0.761  16.224  1.1197 -1.0024 -0.6902
18690TIP3    H277562   1.037   0.817  16.250  2.8181  2.9422  0.4899
18691TIP3   OH277563   3.817   2.446  15.711 -0.3527  0.4823 -0.1702
18691TIP3    H177564   3.860   2.514  15.763 -0.5787  0.4568  0.0531
18691TIP3    H277565   3.735   2.429  15.757  0.4381 -1.1269  0.7047
18692TIP3   OH277566   0.285   5.993   5.380 -0.0573 -0.3499 -0.0666
18692TIP3    H177567   0.332   6.074   5.399  0.7054 -0.5175 -1.1429
18692TIP3    H277568   0.328   5.959   5.301 -0.4470 -1.7326  0.2982
18693TIP3   OH277569   4.966   0.791   2.108  0.0145  0.2322  0.1723
18693TIP3    H177570   4.992   0.883   2.107 -1.0145  0.5568 -1.4580
18693TIP3    H277571   4.898   0.785   2.040 -0.3120 -1.6241  0.6088
18694TIP3   OH277572   3.312   5.128   1.617 -0.1282 -0.2479  0.3285
18694TIP3    H177573   3.256   5.180   1.559 -1.2177 -2.3795 -0.6274
18694TIP3    H277574   3.394   5.178   1.622 -0.6050  0.8398 -1.7024
18695TIP3   OH277575   3.961   5.489  11.874 -0.2669 -0.4663  0.5697
18695TIP3    H177576   3.935   5.475  11.965 -0.4639  1.4185  0.8513
18695TIP3    H277577   4.049   5.526  11.880 -0.4500  0.0650  0.0169
18696TIP3   OH277578   5.238   5.851   5.024  0.2366  0.4752 -0.2620
18696TIP3    H177579   5.237   5.771   5.076 -0.1555  0.7923  0.2309
18696TIP3    H277580   5.162   5.845   4.967  0.0784  0.5997 -0.0642
18697TIP3   OH277581   3.950   3.542   5.222 -0.4746 -0.3862 -0.0945
18697TIP3    H177582   4.006   3.492   5.282 -1.2840 -1.1181  0.0643
18697TIP3    H277583   3.941   3.627   5.264  1.2783  0.0702 -0.5772
18698TIP3   OH277584   0.371   6.445   6.317  0.4606  0.5640 -0.1838
18698TIP3    H177585   0.338   6.361   6.285 -1.4094  0.6268  1.4066
18698TIP3    H277586   0.452   6.460   6.267  0.5902 -1.9330 -0.8344
18699TIP3   OH277587   0.743   4.327  15.187  0.2792 -0.1338 -0.3390
18699TIP3    H177588   0.744   4.423  15.178 -0.6975 -0.0692  0.0996
18699TIP3    H277589   0.783   4.311  15.273 -0.5528 -0.0328  0.0825
18700TIP3   OH277590   5.473   5.492  16.206  0.3774  0.0067  0.0214
18700TIP3    H177591   5.532   5.421  16.229 -0.0076  0.0410  1.1743
18700TIP3    H277592   5.431   5.464  16.125  1.1097 -0.5315 -0.1777
18701TIP3   OH277593   0.819   1.435  13.326  0.2943 -0.1918 -0.3278
18701TIP3    H177594   0.771   1.366  13.281 -0.8165  1.0364 -1.1289
18701TIP3    H277595   0.896   1.392  13.362 -0.1061 -1.7299 -1.2225
18702TIP3   OH277596   3.110   3.568   0.311  0.0292 -0.2641 -0.3880
18702TIP3    H177597   3.185   3.560   0.371  1.0492 -1.4772 -1.7733
18702TIP3    H277598   3.092   3.479   0.283 -1.6571  0.0717 -0.4702
18703TIP3   OH277599   3.321   5.403  15.418  0.2036  0.5157 -0.6984
18703TIP3    H177600   3.405   5.436  15.386  0.1420 -0.5097 -2.0194
18703TIP3    H277601   3.269   5.391  15.338 -0.7393 -0.0884 -0.0071
18704TIP3   OH277602   3.627   1.972   5.523  0.1668  0.3612  0.2908
18704TIP3    H177603   3.715   1.943   5.547 -0.4130 -0.3580  1.6205
18704TIP3    H277604   3.633   2.068   5.521  0.4310  0.4655  2.7943
18705TIP3   OH277605   6.697   4.993  14.041 -0.6492  0.1451 -0.3470
18705TIP3    H177606   6.633   4.986  13.971 -1.4710  1.2415  0.2796
18705TIP3    H277607   6.777   4.955  14.004 -1.5004 -0.7794 -1.3059
18706TIP3   OH277608   4.764   0.677  11.929  0.1051 -0.0520 -0.0387
18706TIP3    H177609   4.752   0.735  11.854  1.2217 -1.1703 -1.1356
18706TIP3    H277610   4.853   0.693  11.959  0.5853 -1.4300 -0.6228
18707TIP3   OH277611   2.604   1.698   3.552  0.3163  0.3509 -0.3018
18707TIP3    H177612   2.648   1.614   3.567  0.4679  0.3243 -0.8593
18707TIP3    H277613   2.636   1.755   3.622  1.1717  0.3033 -0.6465
18708TIP3   OH277614   5.630   3.082   1.495  0.1268 -0.1356  0.2892
18708TIP3    H177615   5.690   3.032   1.551  0.1026  0.2101  0.6221
18708TIP3    H277616   5.682   3.155   1.462 -0.0076 -0.0389  0.2884
18709TIP3   OH277617   3.121   6.123   2.129 -0.4920  0.3690 -0.2718
18709TIP3    H177618   3.068   6.105   2.206 -2.5851  1.6797 -1.3063
18709TIP3    H277619   3.130   6.219   2.128  0.8656  0.2575 -0.8092
18710TIP3   OH277620   1.965   5.717  15.391  0.0263 -0.0850 -0.1875
18710TIP3    H177621   1.949   5.626  15.367  0.7592 -0.6255  1.2410
18710TIP3    H277622   1.983   5.761  15.308 -0.6170 -1.1709 -0.9250
18711TIP3   OH277623   1.838   1.521   5.683  0.0806  0.3227 -0.5763
18711TIP3    H177624   1.802   1.484   5.764 -2.0923  1.9074 -0.7250
18711TIP3    H277625   1.907   1.460   5.657 -0.3185 -1.1425  1.5391
18712TIP3   OH277626   2.623   5.951   2.964  0.0173 -0.1482 -0.1756
18712TIP3    H177627   2.542   6.000   2.946  1.0626  0.7432 -2.9324
18712TIP3    H277628   2.596   5.859   2.961 -1.1863  0.1524  0.6738
18713TIP3   OH277629   1.335   2.207   0.205  0.4123  0.0543 -0.3315
18713TIP3    H177630   1.365   2.297   0.214  0.9810 -0.2351  0.8735
18713TIP3    H277631   1.373   2.177   0.123 -0.5122  1.1723 -1.1979
18714TIP3   OH277632   0.949   1.877   3.823 -0.4050 -0.2771  0.6747
18714TIP3    H177633   0.866   1.925   3.815  1.0077  2.3013  0.5849
18714TIP3    H277634   1.011   1.942   3.854  1.8081 -1.9207 -0.0830
18715TIP3   OH277635   6.195   6.666  15.377  0.2903 -0.0580  0.1541
18715TIP3    H177636   6.194   6.613  15.456  0.9480  1.6325  1.3580
18715TIP3    H277637   6.269   6.725  15.388 -1.0698  1.9013 -0.5495
18716TIP3   OH277638   5.970   3.344  15.311 -0.0374 -0.0439  0.0833
18716TIP3    H177639   5.964   3.300  15.226 -1.0309  1.4765 -0.6825
18716TIP3    H277640   6.004   3.431  15.291  0.0133  0.2304  1.2947
18717TIP3   OH277641   5.816   1.137  14.245 -0.4249  0.0208  0.0475
18717TIP3    H177642   5.909   1.116  14.249  0.0935  2.1604  0.3162
18717TIP3    H277643   5.796   1.173  14.332 -1.7570 -1.2404  0.3161
18718TIP3   OH277644   2.566   4.334   3.396  0.1061 -0.2980 -0.0330
18718TIP3    H177645   2.565   4.429   3.389 -0.1306 -0.1660  1.5512
18718TIP3    H277646   2.512   4.304   3.323 -0.6666  0.8219  0.0558
18719TIP3   OH277647   6.626   6.537   2.905  0.0276 -0.2689 -0.1341
18719TIP3    H177648   6.690   6.519   2.975  0.6200  0.6520 -0.4055
18719TIP3    H277649   6.541   6.519   2.945  0.3217  0.7062  1.0098
18720TIP3   OH277650   0.563   1.129   1.697 -0.0082 -0.1779 -0.0403
18720TIP3    H177651   0.565   1.161   1.606 -3.4121  0.7986  0.0879
18720TIP3    H277652   0.598   1.040   1.692  0.1933 -0.0331 -2.2697
18721TIP3   OH277653   4.015   0.496  15.153  0.6018  0.2133  0.2113
18721TIP3    H177654   4.094   0.539  15.121  0.1006  0.2948 -0.9619
18721TIP3    H277655   3.992   0.433  15.084  0.2005 -0.5249  0.9955
18722TIP3   OH277656   4.548   0.884  16.417  0.4092  0.4002  0.2165
18722TIP3    H177657   4.520   0.829  16.345  0.3318  2.2886 -1.2753
18722TIP3    H277658   4.466   0.917  16.455  0.4333 -0.9261  1.4951
18723TIP3   OH277659   6.256   6.102  12.357 -0.1730 -0.0304  0.7304
18723TIP3    H177660   6.279   6.025  12.305  2.8921 -0.3755  2.3592
18723TIP3    H277661   6.341   6.140  12.381 -1.5244  1.8097  2.9622
18724TIP3   OH277662   2.284   2.929  15.016  0.5287 -0.1250  0.1045
18724TIP3    H177663   2.241   2.986  14.953  0.6339 -0.7600 -0.5553
18724TIP3    H277664   2.219   2.917  15.085  0.1964  0.1047 -0.1634
18725TIP3   OH277665   3.640   2.724  17.204  0.5107 -0.2097  0.3572
18725TIP3    H177666   3.680   2.671  17.135 -1.8579  1.0436 -2.1555
18725TIP3    H277667   3.547   2.705  17.199  0.0378  1.3681  1.9191
18726TIP3   OH277668   6.747   4.788   5.955 -0.2157 -0.2336 -0.0844
18726TIP3    H177669   6.708   4.870   5.986 -0.3961 -0.6657  0.8652
18726TIP3    H277670   6.841   4.802   5.964 -0.1063  0.6457 -1.9616
18727TIP3   OH277671   4.829   0.023  15.583 -0.6001  0.1123  0.3121
18727TIP3    H177672   4.814  -0.069  15.607 -0.5511  0.2895  1.0188
18727TIP3    H277673   4.891   0.018  15.510 -1.6760 -0.4781 -0.6097
18728TIP3   OH277674   4.469   6.057   3.162  0.1894 -0.3906  0.4857
18728TIP3    H177675   4.396   6.092   3.213  0.7676  1.0532  0.3668
18728TIP3    H277676   4.539   6.046   3.226 -0.4451 -2.9695  0.8569
18729TIP3   OH277677   1.363   0.677  14.509 -0.5239  0.0034 -0.0865
18729TIP3    H177678   1.444   0.727  14.511 -0.8673  0.5394  1.2802
18729TIP3    H277679   1.299   0.738  14.471 -0.0396 -0.8803 -2.5142
18730TIP3   OH277680   4.851   3.666   5.579 -0.6786  0.7220 -0.3250
18730TIP3    H177681   4.905   3.649   5.656  2.0392  0.1568 -2.1845
18730TIP3    H277682   4.889   3.745   5.540 -0.6862 -0.0837 -2.0853
18731TIP3   OH277683   1.286   2.553   4.789 -0.1322 -0.1431 -0.1413
18731TIP3    H177684   1.299   2.627   4.730  1.8178  0.0906  0.4997
18731TIP3    H277685   1.227   2.586   4.857  0.9515  0.9491  0.2999
18732TIP3   OH277686   1.282   1.935  14.141  0.1509  0.2351 -0.5300
18732TIP3    H177687   1.190   1.929  14.118  0.4549 -1.9263 -1.4164
18732TIP3    H277688   1.317   2.005  14.085 -0.6382 -0.0062 -1.3414
18733TIP3   OH277689   6.199   2.178  14.335  0.2585 -0.2065  0.7662
18733TIP3    H177690   6.194   2.141  14.247 -0.7974  1.3864  0.0965
18733TIP3    H277691   6.248   2.114  14.386  0.4500 -1.4063 -0.8540
18734TIP3   OH277692   5.007   3.673   3.558 -0.9455 -0.8884  0.1729
18734TIP3    H177693   5.096   3.651   3.585 -1.1206 -1.2780  0.4360
18734TIP3    H277694   5.010   3.768   3.542 -0.2697 -1.0403 -0.6674
18735TIP3   OH277695   4.071   6.378  14.009  0.3829  0.0589  0.4559
18735TIP3    H177696   4.160   6.398  13.982  0.1150  1.6202  0.6058
18735TIP3    H277697   4.061   6.284  13.995  1.3183  0.2360 -1.7139
18736TIP3   OH277698   2.588   6.682  12.309 -0.2969 -0.6315 -0.1315
18736TIP3    H177699   2.665   6.633  12.339 -0.2371 -0.1925  0.4365
18736TIP3    H277700   2.590   6.763  12.359 -0.9557 -0.4776 -0.3470
18737TIP3   OH277701   2.503   1.898  12.407 -0.0569  0.4704 -0.0757
18737TIP3    H177702   2.573   1.834  12.393 -0.1398  0.4386 -0.3569
18737TIP3    H277703   2.549   1.981  12.416  0.0229  0.4385 -0.1832
18738TIP3   OH277704   5.624   5.938  16.527 -0.4035 -0.2505  0.3995
18738TIP3    H177705   5.715   5.940  16.498  0.1330 -2.3825  1.7113
18738TIP3    H277706   5.622   5.992  16.606 -0.4665  0.3787 -0.0232
18739TIP3   OH277707   1.543   5.678  13.475  0.2218  1.1596  0.6252
18739TIP3    H177708   1.619   5.732  13.496 -1.3589  3.7757 -0.0035
18739TIP3    H277709   1.471   5.740  13.464 -1.6695 -1.0667 -0.4681
18740TIP3   OH277710   0.037   3.449   1.189 -0.3605  0.0851 -0.5519
18740TIP3    H177711   0.102   3.517   1.173 -0.7228  0.3613 -0.8645
18740TIP3    H277712   0.086   3.367   1.183  0.3849  0.3662  1.3526
18741TIP3   OH277713   1.282   1.540   2.255  0.3013  0.4926  0.2375
18741TIP3    H177714   1.327   1.558   2.338  0.5275  0.0839  0.2047
18741TIP3    H277715   1.330   1.466   2.217  0.9496  1.4188 -0.8186
18742TIP3   OH277716   1.689   5.767  10.711  0.6616 -0.3840  0.1897
18742TIP3    H177717   1.764   5.788  10.656  0.5742  0.0333  0.2270
18742TIP3    H277718   1.677   5.673  10.700 -0.5870 -0.0245 -2.0583
18743TIP3   OH277719   1.617   0.400  15.769  0.2598 -0.3836 -0.3368
18743TIP3    H177720   1.544   0.401  15.831  0.4687  0.9922 -0.0809
18743TIP3    H277721   1.694   0.417  15.823  0.2587  2.7244 -1.1437
18744TIP3   OH277722   3.375   0.670   1.966 -1.3710  0.2476  0.4110
18744TIP3    H177723   3.310   0.656   2.035 -1.1602  2.2017  1.0513
18744TIP3    H277724   3.338   0.740   1.912  0.0466  1.2147  0.6393
18745TIP3   OH277725   2.234   6.241  11.954  0.9044  0.3144  0.4443
18745TIP3    H177726   2.161   6.181  11.936  0.7180  0.2845  1.2481
18745TIP3    H277727   2.306   6.207  11.901  0.1542  0.7626 -0.9282
18746TIP3   OH277728   0.536   3.877   4.115 -0.3361  0.0188  0.1759
18746TIP3    H177729   0.585   3.911   4.041  0.1827  2.4072  1.5234
18746TIP3    H277730   0.598   3.820   4.161  0.2450  0.7365  0.2866
18747TIP3   OH277731   4.498   6.657   4.806 -0.4809 -0.5003  0.4952
18747TIP3    H177732   4.444   6.582   4.831 -1.8324  0.0276 -0.6879
18747TIP3    H277733   4.448   6.699   4.735  1.9142 -0.5371 -1.3451
18748TIP3   OH277734   5.318   1.842   0.973  0.4057 -0.1145  0.3621
18748TIP3    H177735   5.269   1.766   0.942 -1.9977  1.3454  0.3447
18748TIP3    H277736   5.337   1.823   1.065 -2.4516  0.2561  1.1110
18749TIP3   OH277737   5.645   0.424   0.071 -0.4780  0.1917 -0.4924
18749TIP3    H177738   5.713   0.388   0.014  0.6397  0.5515  0.5678
18749TIP3    H277739   5.568   0.371   0.052  0.4267 -1.0694 -0.8307
18750TIP3   OH277740   6.572   4.746  12.356  0.3419  0.3690  0.2588
18750TIP3    H177741   6.593   4.809  12.425  0.9091  0.1114  0.3275
18750TIP3    H277742   6.510   4.685  12.398  1.4007 -0.3328  0.8444
18751TIP3   OH277743   1.082   6.759   1.962 -0.0418 -0.2883 -0.4290
18751TIP3    H177744   1.134   6.694   1.914  1.1566 -0.2876  0.8002
18751TIP3    H277745   1.006   6.711   1.993  0.4012 -0.8963 -0.2660
18752TIP3   OH277746   4.180   6.084  15.298  0.2702 -0.1583  0.3887
18752TIP3    H177747   4.223   6.164  15.266 -1.0426 -0.1783 -1.6632
18752TIP3    H277748   4.244   6.044  15.356  1.8232  1.2821 -0.2302
18753TIP3   OH277749   4.593   6.552  12.058  0.1983  0.1890  0.0975
18753TIP3    H177750   4.686   6.529  12.067  0.5719  1.0301 -1.1667
18753TIP3    H277751   4.548   6.501  12.125  1.5976 -0.1265  0.8335
18754TIP3   OH277752   1.831   0.671  14.238  0.1111  0.7393 -0.1546
18754TIP3    H177753   1.802   0.762  14.239 -0.8359  0.4498  0.1350
18754TIP3    H277754   1.784   0.632  14.164  0.3449  0.4342 -0.1457
18755TIP3   OH277755   6.324   4.258  11.618 -0.0924 -0.5429 -0.3258
18755TIP3    H177756   6.237   4.297  11.620 -0.6261 -1.6443  1.4100
18755TIP3    H277757   6.309   4.167  11.591  0.0741 -1.4788  2.3669
18756TIP3   OH277758   6.470   1.369   1.410  0.2115 -0.1685 -0.0238
18756TIP3    H177759   6.544   1.429   1.399  0.0494  0.2090  0.8237
18756TIP3    H277760   6.432   1.362   1.322 -0.0961  1.4260 -0.0620
18757TIP3   OH277761   0.312   2.248  16.763  0.4862  0.1885 -0.1005
18757TIP3    H177762   0.350   2.334  16.747 -0.1251  0.2471 -1.3822
18757TIP3    H277763   0.286   2.216  16.676  0.2091 -1.0548  0.4103
18758TIP3   OH277764   2.391   0.540  14.186  0.6201 -0.0124 -0.1752
18758TIP3    H177765   2.461   0.520  14.123 -0.0030  0.9505 -1.2153
18758TIP3    H277766   2.346   0.616  14.148 -0.8060 -0.4249  0.6193
18759TIP3   OH277767   3.116   5.185   3.463 -0.1954  0.4709 -0.2390
18759TIP3    H177768   3.165   5.170   3.544 -1.5630 -0.5109  0.4317
18759TIP3    H277769   3.170   5.145   3.395 -0.5536 -1.5946  0.6357
18760TIP3   OH277770   3.678   0.870   0.127 -0.1492  0.8263  0.6908
18760TIP3    H177771   3.699   0.928   0.201  2.8882  0.5336  0.2052
18760TIP3    H277772   3.706   0.919   0.050  2.0607 -0.9652  0.2336
18761TIP3   OH277773   0.953   0.327   4.261  0.7088  0.0460  0.5384
18761TIP3    H177774   1.024   0.263   4.245 -0.1661 -0.6355 -0.7670
18761TIP3    H277775   0.897   0.284   4.326  0.2212 -0.4693 -0.2019
18762TIP3   OH277776   1.408   1.241   2.359  0.0294 -0.1275 -0.0057
18762TIP3    H177777   1.334   1.298   2.338  0.9288  1.1843  0.2609
18762TIP3    H277778   1.431   1.265   2.449  0.2999 -1.0635  0.1793
18763TIP3   OH277779   0.860   3.058   3.518 -0.0683 -0.5263  0.3866
18763TIP3    H177780   0.955   3.070   3.517 -0.2082  0.8245 -0.5605
18763TIP3    H277781   0.841   3.010   3.437 -0.0773 -2.2268  1.3488
18764TIP3   OH277782   2.601   4.537   1.066 -0.0978 -0.9975 -0.1885
18764TIP3    H177783   2.524   4.501   1.111  1.1669 -1.5260  1.6499
18764TIP3    H277784   2.643   4.592   1.131 -0.4904  1.7845 -2.1006
18765TIP3   OH277785   6.341   3.553  12.029 -0.3248 -0.2439 -0.6530
18765TIP3    H177786   6.392   3.473  12.019  0.6287  0.2266  0.2851
18765TIP3    H277787   6.369   3.608  11.956  0.0662 -0.2245 -0.4912
18766TIP3   OH277788   0.769   6.416  11.729  0.2471  0.3289 -0.4646
18766TIP3    H177789   0.748   6.346  11.666 -1.2997  1.3609 -1.1536
18766TIP3    H277790   0.731   6.495  11.690  4.5189  2.2781 -1.2813
18767TIP3   OH277791   3.115   6.744   1.148 -0.1582  0.2009 -0.6269
18767TIP3    H177792   3.100   6.815   1.210  0.7614 -0.0032 -0.1586
18767TIP3    H277793   3.184   6.776   1.091 -0.5003  0.1031 -1.1036
18768TIP3   OH277794   4.228   2.763  11.973  0.2378 -0.1290  0.0576
18768TIP3    H177795   4.158   2.802  11.921 -0.2944 -0.0450  0.8335
18768TIP3    H277796   4.187   2.740  12.056  1.1888  0.1718  0.6237
18769TIP3   OH277797   5.068   4.354  14.602  0.0794 -0.4411  0.3172
18769TIP3    H177798   5.015   4.414  14.654  0.6499  0.2622  0.1054
18769TIP3    H277799   5.081   4.400  14.518  1.4142 -0.3748  0.5313
18770TIP3   OH277800   0.669   6.469  11.319 -0.1527  0.1444 -0.2953
18770TIP3    H177801   0.740   6.427  11.369  0.2926  1.6059  0.3585
18770TIP3    H277802   0.711   6.546  11.279 -1.1727  0.5406 -0.6213
18771TIP3   OH277803   4.538   2.562   5.873 -0.3587  0.5330  0.1623
18771TIP3    H177804   4.606   2.522   5.818  0.3917  0.4835  1.0981
18771TIP3    H277805   4.583   2.632   5.920 -0.0575 -1.5197  3.2466
18772TIP3   OH277806   6.281   0.949   4.282  0.5589 -0.2057  0.1690
18772TIP3    H177807   6.208   0.889   4.269  0.2534  0.4275 -1.2087
18772TIP3    H277808   6.242   1.025   4.325  0.0136  0.8385 -2.0496
18773TIP3   OH277809   1.303   1.870   2.455  0.0757 -0.2780 -0.0274
18773TIP3    H177810   1.320   1.778   2.476 -1.4887 -0.6037 -0.1127
18773TIP3    H277811   1.208   1.878   2.457  0.1722  1.2220 -0.5542
18774TIP3   OH277812   3.867   5.964   0.594 -0.3331 -0.5395  0.2084
18774TIP3    H177813   3.782   5.939   0.632 -0.6991 -1.9550 -1.4233
18774TIP3    H277814   3.863   6.059   0.588 -0.6869 -0.3328  2.6225
18775TIP3   OH277815   1.435   3.055   4.434 -0.7911 -0.6786 -0.1783
18775TIP3    H177816   1.393   3.043   4.519 -0.3426 -1.0739 -0.0040
18775TIP3    H277817   1.491   3.132   4.446 -1.1948 -0.3585 -0.3085
18776TIP3   OH277818   6.374   2.138   5.809 -0.3305  0.1579  0.2453
18776TIP3    H177819   6.402   2.160   5.720 -2.3008  0.2344 -0.4062
18776TIP3    H277820   6.280   2.158   5.810 -0.3698  0.0791  2.3287
18777TIP3   OH277821   0.055   1.676   3.675 -0.4283 -0.5678 -0.6645
18777TIP3    H177822   0.090   1.602   3.725 -0.1318  0.4294  0.6608
18777TIP3    H277823   0.074   1.753   3.729 -0.7814  0.4826 -1.9781
18778TIP3   OH277824   3.789   4.316  12.310 -0.0088 -0.1873 -0.7468
18778TIP3    H177825   3.791   4.411  12.318  0.2474 -0.1267 -1.4439
18778TIP3    H277826   3.734   4.300  12.233 -0.9585 -0.6489  0.0067
18779TIP3   OH277827   5.217   1.879   3.502  0.5970 -0.5839 -0.6461
18779TIP3    H177828   5.166   1.801   3.481 -0.1446 -0.7597  1.5148
18779TIP3    H277829   5.307   1.848   3.509  0.3580 -1.2031 -0.1860
18780TIP3   OH277830   4.326   5.159  10.857  0.3347  0.0341 -0.3695
18780TIP3    H177831   4.405   5.169  10.804 -0.2048 -1.5713 -1.5552
18780TIP3    H277832   4.266   5.109  10.802 -0.7331 -0.5984  1.2806
18781TIP3   OH277833   1.250   6.182  17.514  0.4308 -0.6911 -0.3680
18781TIP3    H177834   1.253   6.275  17.492 -0.8964 -0.6021 -0.2562
18781TIP3    H277835   1.310   6.141  17.452 -0.0831  0.0704 -1.3992
18782TIP3   OH277836   1.206   4.809   4.766  0.9086 -0.2075  0.0126
18782TIP3    H177837   1.280   4.839   4.818  1.7272 -1.7400 -0.1942
18782TIP3    H277838   1.239   4.807   4.676  0.1374  0.5047 -0.2995
18783TIP3   OH277839   0.781   1.826   3.112  0.6522  0.1192 -0.2573
18783TIP3    H177840   0.774   1.893   3.180 -1.8911  0.8856 -1.1493
18783TIP3    H277841   0.765   1.743   3.157  2.8878  0.1176  0.6858
18784TIP3   OH277842   3.533   2.631   2.030 -0.5445  0.7604 -0.5306
18784TIP3    H177843   3.615   2.682   2.027  0.2768 -0.3882  1.0527
18784TIP3    H277844   3.467   2.690   1.994  0.7524  2.1760 -0.6904
18785TIP3   OH277845   4.999   0.031  13.789  0.2326  0.5390 -0.2770
18785TIP3    H177846   5.067   0.009  13.725  1.4077 -1.3030  1.4881
18785TIP3    H277847   5.045   0.077  13.859 -0.5225  0.2250  0.4428
18786TIP3   OH277848   0.820   2.991   3.819  0.3827  0.2798 -0.0917
18786TIP3    H177849   0.847   2.976   3.729 -0.0467 -1.2314  0.0072
18786TIP3    H277850   0.886   2.946   3.872 -0.4509 -0.5766  0.2572
18787TIP3   OH277851   0.655   1.016   3.977  0.3710  0.3529  0.4181
18787TIP3    H177852   0.585   1.067   3.936  0.1839  0.6588  1.0983
18787TIP3    H277853   0.735   1.050   3.936  0.0314 -2.5451 -3.1697
18788TIP3   OH277854   5.382   0.476   3.479 -0.1826 -0.1252  0.1953
18788TIP3    H177855   5.316   0.522   3.531  0.7716  0.2178  1.1521
18788TIP3    H277856   5.424   0.545   3.428  1.4520  0.1894  1.8528
18789TIP3   OH277857   1.929   0.053   2.868 -0.0860 -0.5655  0.5590
18789TIP3    H177858   1.917   0.034   2.775 -1.0090 -2.1585  0.9602
18789TIP3    H277859   2.022   0.040   2.884  0.8151  2.9669 -0.7477
18790TIP3   OH277860   6.457   4.565   3.772 -0.4214  0.1148 -0.2807
18790TIP3    H177861   6.525   4.529   3.829 -1.0868 -2.3739 -0.9490
18790TIP3    H277862   6.375   4.546   3.818 -1.0387 -2.6300 -2.2294
18791TIP3   OH277863   1.649   5.774  11.407 -0.0567 -0.0417  0.3284
18791TIP3    H177864   1.554   5.768  11.413  0.0032 -1.4686  0.2408
18791TIP3    H277865   1.680   5.687  11.435  1.3006  0.9433  2.1267
18792TIP3   OH277866   2.345   3.242   3.302 -0.3180  0.0728  0.0241
18792TIP3    H177867   2.300   3.264   3.384 -1.8235 -0.8604 -0.5366
18792TIP3    H277868   2.432   3.281   3.313 -0.7474  0.6614  1.7327
18793TIP3   OH277869   1.196   4.953   1.627 -0.2213  0.0544  0.0984
18793TIP3    H177870   1.186   5.014   1.701  1.6434 -0.8975  1.2238
18793TIP3    H277871   1.289   4.931   1.627 -0.1962 -0.0827 -2.5052
18794TIP3   OH277872   0.050   0.037   3.304 -0.5038 -0.2237 -0.4535
18794TIP3    H177873   0.060   0.098   3.231  2.3032  0.7771  0.6518
18794TIP3    H277874   0.133  -0.011   3.307 -2.0194 -3.0983 -0.2826
18795TIP3   OH277875   2.915   4.122  16.852  0.0016 -0.5515 -0.5555
18795TIP3    H177876   2.934   4.210  16.821  0.9267 -0.3728  0.4461
18795TIP3    H277877   2.980   4.066  16.810 -0.3756 -0.7077 -0.9346
18796TIP3   OH277878   3.635   4.529   0.468  0.1715  0.4335  0.3811
18796TIP3    H177879   3.611   4.537   0.376 -1.7125 -0.1287  0.7768
18796TIP3    H277880   3.718   4.480   0.467 -1.3172 -2.3046 -0.9555
18797TIP3   OH277881   4.080   5.850   0.724  0.4444  0.1896  0.5842
18797TIP3    H177882   4.053   5.758   0.727  1.0311  0.0116  0.5376
18797TIP3    H277883   4.004   5.896   0.688  0.3435 -0.3523  0.0802
18798TIP3   OH277884   5.685   2.024   3.533 -0.2306  0.6068 -0.7668
18798TIP3    H177885   5.610   1.968   3.515 -0.7634  0.9211  0.3647
18798TIP3    H277886   5.670   2.056   3.622  1.3254  0.5626 -0.4636
18799TIP3   OH277887   6.118   6.230   4.293 -0.0432 -0.5281  0.3849
18799TIP3    H177888   6.193   6.178   4.324  0.2881  0.2272  0.8656
18799TIP3    H277889   6.047   6.166   4.284  1.0750 -1.5946 -1.6964
18800TIP3   OH277890   6.340   0.399  15.919  0.0207  0.0906  0.1993
18800TIP3    H177891   6.425   0.442  15.932  0.6777 -0.5294 -1.7624
18800TIP3    H277892   6.291   0.460  15.864 -0.4272 -0.0482  0.4365
18801TIP3   OH277893   4.682   2.447  14.523  0.3603 -0.2334 -0.5446
18801TIP3    H177894   4.697   2.534  14.487  1.3747 -0.5069 -0.7991
18801TIP3    H277895   4.623   2.462  14.598  1.0188  0.7390 -0.2048
18802TIP3   OH277896   4.562   6.212  14.524 -0.2191  0.0987 -0.2562
18802TIP3    H177897   4.604   6.289  14.486 -1.1351  0.1961 -1.1432
18802TIP3    H277898   4.592   6.209  14.614 -0.6050  1.8211 -0.0416
18803TIP3   OH277899   4.592   2.617   4.806 -0.4449  0.5457 -0.4024
18803TIP3    H177900   4.652   2.603   4.879 -2.1283 -0.9972  0.7826
18803TIP3    H277901   4.624   2.558   4.738 -1.4653 -1.5565  0.8217
18804TIP3   OH277902   4.731   1.557   0.292  0.0215  0.4229 -0.0924
18804TIP3    H177903   4.703   1.646   0.312  1.0790  0.4638  1.3545
18804TIP3    H277904   4.650   1.511   0.268 -0.7775  1.3604  0.7234
18805TIP3   OH277905   0.190   5.588   0.147  0.2861 -0.2055 -0.1830
18805TIP3    H177906   0.121   5.654   0.140 -1.1557 -1.3800  1.8458
18805TIP3    H277907   0.171   5.526   0.076 -0.2635 -0.0726 -0.1586
18806TIP3   OH277908   0.763   6.659   1.286 -0.1252 -0.3310  0.3571
18806TIP3    H177909   0.823   6.638   1.215  0.0467 -0.8879  0.6536
18806TIP3    H277910   0.783   6.593   1.354  0.3670  0.7672  1.3096
18807TIP3   OH277911   4.138   4.625  11.167 -0.2501 -0.0585  0.7097
18807TIP3    H177912   4.055   4.648  11.209 -0.4860  0.0174  0.2111
18807TIP3    H277913   4.153   4.696  11.105  0.7468  0.5011  1.5708
18808TIP3   OH277914   3.354   4.597   6.285 -0.3408 -0.3664 -0.6155
18808TIP3    H177915   3.296   4.648   6.342  0.5420  1.2385 -1.1011
18808TIP3    H277916   3.335   4.629   6.197 -0.7274 -1.8720 -1.1072
18809TIP3   OH277917   1.372   0.159  12.813 -0.5267 -0.5279  0.4465
18809TIP3    H177918   1.295   0.174  12.868  0.4884  0.4333  1.6342
18809TIP3    H277919   1.372   0.233  12.752 -0.9876 -0.9753 -0.1180
18810TIP3   OH277920   1.448   1.774  12.791 -0.5004  0.2360  0.3756
18810TIP3    H177921   1.537   1.792  12.759  0.1639  0.0673  2.0366
18810TIP3    H277922   1.415   1.859  12.817 -1.0340  0.3684 -0.6620
18811TIP3   OH277923   2.892   0.531  15.601  0.4247  0.0796  0.2540
18811TIP3    H177924   2.956   0.474  15.558  0.6106  0.1999  0.3679
18811TIP3    H277925   2.944   0.604  15.635  0.5518 -0.8552  2.1989
18812TIP3   OH277926   1.955   1.641   3.691 -0.3197  0.0829 -0.3124
18812TIP3    H177927   1.933   1.589   3.614 -2.0387  2.4003 -1.4930
18812TIP3    H277928   1.908   1.723   3.680  0.7607  1.2064  2.3848
18813TIP3   OH277929   0.624   0.890   4.628  0.1091  0.1621  0.3603
18813TIP3    H177930   0.554   0.890   4.563  0.0579  0.6428  0.4126
18813TIP3    H277931   0.637   0.798   4.650 -0.6831  0.0879  0.5369
18814TIP3   OH277932   4.297   3.901  17.495  0.0545 -0.3668  0.3073
18814TIP3    H177933   4.347   3.911  17.414 -0.5018  4.2907  0.2643
18814TIP3    H277934   4.223   3.845  17.471  1.3844 -1.4416 -1.5504
18815TIP3   OH277935   2.229   6.460   2.185  0.5125  0.1625 -0.1065
18815TIP3    H177936   2.164   6.440   2.254 -0.6657  1.4013 -0.8110
18815TIP3    H277937   2.230   6.381   2.130  0.9944 -0.5882  0.9357
18816TIP3   OH277938   5.702   0.721   2.169  0.3351 -0.4914 -0.2785
18816TIP3    H177939   5.687   0.654   2.102  0.2821 -1.3879  0.5873
18816TIP3    H277940   5.770   0.683   2.225 -1.2291 -0.8498  1.5067
18817TIP3   OH277941   5.798   4.365  14.839 -0.1865  0.0724 -0.5325
18817TIP3    H177942   5.707   4.338  14.822 -0.2399 -0.5053  0.6239
18817TIP3    H277943   5.831   4.302  14.902  1.1067  0.1561 -1.0901
18818TIP3   OH277944   6.444   1.025  14.747 -0.0082 -0.0233 -0.4917
18818TIP3    H177945   6.379   1.075  14.796 -2.0211 -1.9526 -1.0141
18818TIP3    H277946   6.525   1.033  14.798 -1.3115  0.2913  1.6202
18819TIP3   OH277947   2.264   0.600  13.676 -0.1679  0.2309 -0.4285
18819TIP3    H177948   2.178   0.584  13.716  0.1288 -2.8038 -0.7555
18819TIP3    H277949   2.243   0.619  13.584 -0.5384 -0.3586 -0.4768
18820TIP3   OH277950   2.795   6.000   2.054 -0.1798 -0.0668 -0.0516
18820TIP3    H177951   2.877   6.021   2.010  0.7529  1.1226  2.0864
18820TIP3    H277952   2.758   6.085   2.079 -1.8144 -0.6084 -0.5162
18821TIP3   OH277953   2.515   5.962  16.991 -0.0207  0.5220  0.3368
18821TIP3    H177954   2.451   6.012  16.939 -1.7111 -1.7016  0.1206
18821TIP3    H277955   2.548   5.896  16.930 -0.4930 -0.8390  1.5249
18822TIP3   OH277956   2.961   3.894   4.366  0.5375 -0.2740  0.0954
18822TIP3    H177957   2.987   3.921   4.278  1.6912  0.2932  0.5814
18822TIP3    H277958   3.031   3.927   4.422 -1.2811  1.4103  1.5226
18823TIP3   OH277959   4.901   6.073   1.026 -0.2093 -0.1707  0.1524
18823TIP3    H177960   4.855   6.068   0.943 -0.5778  0.2203  0.3235
18823TIP3    H277961   4.977   6.016   1.016 -1.3274 -1.7156  0.2512
18824TIP3   OH277962   3.751   5.010   4.709  0.1189  0.0831 -0.0137
18824TIP3    H177963   3.818   5.028   4.775  0.2294  0.6253 -0.2762
18824TIP3    H277964   3.762   4.917   4.689  2.0292  0.5591 -1.4176
18825TIP3   OH277965   1.805   5.120   3.835 -0.3319 -0.0312 -0.2501
18825TIP3    H177966   1.878   5.075   3.876  0.4731  0.6580 -0.8946
18825TIP3    H277967   1.745   5.050   3.810 -0.2331 -0.5520  0.9030
18826TIP3   OH277968   2.505   4.054   1.584  0.5515 -0.0031  0.2872
18826TIP3    H177969   2.453   3.973   1.581  0.3583  0.1364 -0.4835
18826TIP3    H277970   2.524   4.067   1.676  2.0524 -1.8713  0.3174
18827TIP3   OH277971   1.959   0.011  16.346 -0.1096 -0.1894 -0.6086
18827TIP3    H177972   1.979   0.014  16.440  0.2426 -2.0310 -0.5848
18827TIP3    H277973   1.907   0.090  16.330 -0.6984 -0.1429  1.2583
18828TIP3   OH277974   2.374   6.158  12.656  0.0899  0.4135 -0.0995
18828TIP3    H177975   2.372   6.253  12.644 -1.4219  0.4645  0.4078
18828TIP3    H277976   2.302   6.139  12.717  0.1609 -1.0869 -0.4355
18829TIP3   OH277977   5.683   5.515  17.525  0.3116  0.8348 -0.2690
18829TIP3    H177978   5.603   5.555  17.560 -0.3026 -1.4672  1.2151
18829TIP3    H277979   5.652   5.436  17.479  1.7131 -0.4631  0.8971
18830TIP3   OH277980   6.062   1.434  12.074  0.8062 -0.3423 -0.3321
18830TIP3    H177981   6.091   1.507  12.019  0.9923 -1.1969 -1.4043
18830TIP3    H277982   5.981   1.465  12.114  2.8280  1.9751  2.4530
18831TIP3   OH277983   4.289   5.407   5.284 -0.4958 -0.1973 -0.1674
18831TIP3    H177984   4.226   5.476   5.300 -0.2618  0.0491 -0.2959
18831TIP3    H277985   4.239   5.326   5.293 -0.9407  0.0049 -0.7234
18832TIP3   OH277986   1.088   3.209  12.937 -0.2056  0.1172 -0.7200
18832TIP3    H177987   1.137   3.179  13.014  1.1512  0.2604 -1.4893
18832TIP3    H277988   1.079   3.130  12.883 -2.6468 -0.3793  0.2943
18833TIP3   OH277989   2.574   4.341  12.277  0.4841 -0.4904  0.0280
18833TIP3    H177990   2.623   4.380  12.349  0.4039 -0.0837 -0.1366
18833TIP3    H277991   2.516   4.278  12.318  0.5526 -0.3739  0.3033
18834TIP3   OH277992   2.265   5.833  14.134  0.3420  0.0219 -0.1050
18834TIP3    H177993   2.314   5.857  14.055  0.3224  1.2130  0.2291
18834TIP3    H277994   2.174   5.825  14.104  0.0080  2.3608  0.1063
18835TIP3   OH277995   6.301   3.811   4.405 -0.1774  0.1854 -0.0568
18835TIP3    H177996   6.258   3.734   4.443  3.3523 -0.7643  2.5709
18835TIP3    H277997   6.362   3.775   4.341  0.8941  0.8093  0.5812
18836TIP3   OH277998   2.332   5.250  17.397  0.1145 -0.1874  0.1811
18836TIP3    H177999   2.263   5.287  17.452  0.3644 -1.7651  1.6300
18836TIP3    H278000   2.295   5.168  17.363  0.9896 -0.6748  0.3643
18837TIP3   OH278001   3.376   5.676  13.016 -0.7165  0.5914 -0.0623
18837TIP3    H178002   3.342   5.604  13.069 -0.4475 -0.4977 -1.3217
18837TIP3    H278003   3.369   5.753  13.073 -3.0622  0.0015  0.5671
18838TIP3   OH278004   0.065   4.977  12.197  0.0251 -0.5037  0.4183
18838TIP3    H178005   0.113   5.057  12.218 -0.6426 -0.6557  2.7447
18838TIP3    H278006  -0.024   4.994  12.228 -0.4068 -1.7674 -0.0587
18839TIP3   OH278007   5.082   3.274   2.926 -0.1200  0.7076  0.7832
18839TIP3    H178008   5.149   3.230   2.872 -0.0790  0.6823  0.8537
18839TIP3    H278009   5.048   3.344   2.869  0.1115  0.8506  0.8184
18840TIP3   OH278010   5.669   4.699   3.298 -0.0045  0.0793  0.4238
18840TIP3    H178011   5.688   4.728   3.387 -1.5560 -0.4552  0.9517
18840TIP3    H278012   5.722   4.620   3.286  0.8352  0.6091  0.5549
18841TIP3   OH278013   4.376   4.247  17.346  0.0373  0.0829  0.0912
18841TIP3    H178014   4.428   4.166  17.346  0.1806  0.1571  1.2411
18841TIP3    H278015   4.361   4.266  17.253  0.8632 -0.7098 -0.2202
18842TIP3   OH278016   2.490   4.270   4.547 -0.1621  0.1466  0.4438
18842TIP3    H178017   2.562   4.248   4.605 -1.3839 -0.7626  1.6981
18842TIP3    H278018   2.421   4.301   4.606 -1.3465 -0.5252 -0.5372
18843TIP3   OH278019   4.356   4.204  13.008  0.6638 -0.0956 -0.2507
18843TIP3    H178020   4.284   4.159  12.965  1.0993  0.2556 -1.3894
18843TIP3    H278021   4.328   4.213  13.099 -0.6288 -0.1546 -0.6252
18844TIP3   OH278022   1.093   2.565  11.615  0.1489  0.0051 -0.2597
18844TIP3    H178023   1.051   2.532  11.535  0.1659  0.0187 -0.2738
18844TIP3    H278024   1.025   2.557  11.682  0.1288  0.0101 -0.2791
18845TIP3   OH278025   4.814   3.618   1.175  0.0112  0.0141 -0.7052
18845TIP3    H178026   4.771   3.567   1.106 -0.7669 -2.3126  1.3411
18845TIP3    H278027   4.901   3.581   1.182  0.6664  1.3292 -1.4414
18846TIP3   OH278028   1.605   3.141  13.011 -0.4653  0.3273  0.3518
18846TIP3    H178029   1.680   3.188  13.046  0.5682 -0.3226 -0.8812
18846TIP3    H278030   1.565   3.202  12.949  1.4889 -0.6343 -2.0384
18847TIP3   OH278031   3.636   0.408  16.373 -0.4525  0.3095  0.3070
18847TIP3    H178032   3.587   0.411  16.455 -1.6673  3.0035 -0.3931
18847TIP3    H278033   3.572   0.431  16.305  1.4563  2.9681 -0.7751
18848TIP3   OH278034   6.672   3.747  17.511 -0.0248 -0.4831 -0.2340
18848TIP3    H178035   6.583   3.739  17.545 -0.4824  1.8495 -0.6684
18848TIP3    H278036   6.716   3.806  17.571  0.2014  0.9506 -1.7344
18849TIP3   OH278037   1.990   5.796   5.225  0.7164  0.2391  0.1403
18849TIP3    H178038   2.026   5.765   5.308 -1.3214  0.7517  1.2980
18849TIP3    H278039   2.062   5.790   5.163  1.5445 -2.9597  1.2206
18850TIP3   OH278040   1.031   4.422   6.008  0.1364 -0.1609 -0.0751
18850TIP3    H178041   0.962   4.361   6.033  0.6275 -0.6533  0.1018
18850TIP3    H278042   0.991   4.509   6.017 -0.1668 -0.3952  0.9485
18851TIP3   OH278043   1.089   0.760  16.801  1.0025 -0.2668 -0.0028
18851TIP3    H178044   1.146   0.833  16.826  1.4404 -0.6833  0.2320
18851TIP3    H278045   1.003   0.786  16.832  0.3065  1.9175 -3.2787
18852TIP3   OH278046   1.701   4.526   0.323  0.2013  0.5627  0.3018
18852TIP3    H178047   1.699   4.601   0.264  1.4182 -0.6180 -1.3262
18852TIP3    H278048   1.790   4.524   0.357  0.6320 -0.8754 -0.7678
18853TIP3   OH278049   5.324   4.064  15.576  0.4735 -0.0369 -0.2758
18853TIP3    H178050   5.303   3.975  15.549  0.7776 -0.3731  0.5712
18853TIP3    H278051   5.239   4.110  15.578  0.3011 -0.3422 -0.5769
18854TIP3   OH278052   1.196   5.207  12.094  0.3881  0.2651  0.5643
18854TIP3    H178053   1.108   5.196  12.058  0.0996  1.6209  0.8011
18854TIP3    H278054   1.216   5.300  12.081  2.9228 -0.4936 -2.0009
18855TIP3   OH278055   2.455   3.248   6.066  0.2591 -0.2882 -0.0002
18855TIP3    H178056   2.509   3.196   6.125 -2.1908 -0.3685  2.3856
18855TIP3    H278057   2.384   3.189   6.040 -1.7977  1.3131  1.6222
18856TIP3   OH278058   0.086   6.068  15.616 -0.0868 -0.7745 -0.0191
18856TIP3    H178059   0.103   6.031  15.703 -0.0609 -1.5716 -0.3569
18856TIP3    H278060  -0.009   6.082  15.615 -0.0654 -0.5912  0.1961
18857TIP3   OH278061   2.963   1.460   3.796 -0.0122 -0.1650 -0.2823
18857TIP3    H178062   3.058   1.453   3.790  0.1231  1.7802 -1.1532
18857TIP3    H278063   2.945   1.468   3.889  0.6984 -0.4328 -0.1179
18858TIP3   OH278064   5.619   0.569  15.106 -0.1004 -0.2412 -0.2085
18858TIP3    H178065   5.611   0.549  15.199 -0.4741 -2.5079 -0.6775
18858TIP3    H278066   5.676   0.501  15.072  0.0151  0.5494 -1.6653
18859TIP3   OH278067   3.161   1.439   3.069  0.1117  0.7374  0.5289
18859TIP3    H178068   3.222   1.436   3.142  0.4622 -0.1908  0.2167
18859TIP3    H278069   3.216   1.428   2.991 -0.4348 -0.1417  0.2460
18860TIP3   OH278070   2.784   4.372   6.331  0.4837 -0.0502  0.1912
18860TIP3    H178071   2.824   4.333   6.253 -0.0922 -0.4943  0.1049
18860TIP3    H278072   2.847   4.438   6.361  0.8277 -0.0613 -0.4952
18861TIP3   OH278073   6.525   5.045  16.300  0.2324  0.0873  0.4227
18861TIP3    H178074   6.610   5.051  16.344 -1.3193 -1.3336  4.0105
18861TIP3    H278075   6.488   4.962  16.331 -3.4449  1.7600  1.0207
18862TIP3   OH278076   0.903   4.171  17.374 -0.4073 -0.6853 -0.3070
18862TIP3    H178077   0.855   4.103  17.328 -1.2508  0.1842 -0.7535
18862TIP3    H278078   0.835   4.226  17.413  0.2568 -0.2249  0.2316
18863TIP3   OH278079   1.244   0.437  11.534  0.9630 -0.5260  0.0112
18863TIP3    H178080   1.154   0.428  11.565 -0.4097  0.2685 -3.2414
18863TIP3    H278081   1.266   0.529  11.548  0.9746 -0.5492  0.1406
18864TIP3   OH278082   0.859   0.374   1.497 -0.5175 -0.0892  0.3184
18864TIP3    H178083   0.836   0.420   1.577 -0.8765  0.4679 -0.0961
18864TIP3    H278084   0.812   0.421   1.428 -3.5918 -2.9413  0.1756
18865TIP3   OH278085   2.397   5.100   0.311  0.1219  0.6496  0.2098
18865TIP3    H178086   2.383   5.060   0.397 -0.2025  0.3797  0.0354
18865TIP3    H278087   2.345   5.180   0.313 -1.0140 -0.0447 -0.2184
18866TIP3   OH278088   2.270   0.956  11.902 -0.8349 -0.4098 -0.0914
18866TIP3    H178089   2.359   0.982  11.878 -0.5140 -1.1991  0.2090
18866TIP3    H278090   2.280   0.901  11.980 -1.5058 -1.1496 -0.5019
18867TIP3   OH278091   4.348   0.680  12.301  0.0681 -0.1193 -0.2216
18867TIP3    H178092   4.432   0.660  12.261  1.1087  1.0316  1.2733
18867TIP3    H278093   4.311   0.748  12.245  2.2279  2.6368  1.4528
18868TIP3   OH278094   0.021   6.762  14.550  0.3711  0.5028 -0.2566
18868TIP3    H178095  -0.063   6.788  14.588  0.0824 -0.8146  0.0532
18868TIP3    H278096   0.070   6.844  14.541 -0.8880  1.2738 -0.3149
18869TIP3   OH278097   1.695   2.408   5.254 -0.0680  0.7818 -0.4250
18869TIP3    H178098   1.751   2.376   5.183 -0.7606 -1.3501 -0.0616
18869TIP3    H278099   1.608   2.374   5.234 -0.5352  1.1838  0.8128
18870TIP3   OH278100   2.631   6.027   3.699  0.3524 -0.4412 -0.2140
18870TIP3    H178101   2.543   6.060   3.718  1.2987  1.1146  1.9721
18870TIP3    H278102   2.639   5.947   3.751  0.5510 -0.0297  0.3979
18871TIP3   OH278103   5.660   3.146   4.656  0.7887 -0.4600  0.3848
18871TIP3    H178104   5.574   3.134   4.617  0.3346 -0.9320  1.4946
18871TIP3    H278105   5.698   3.058   4.657  0.0603 -0.8005  2.6209
18872TIP3   OH278106   5.602   1.892  11.438 -0.4421 -0.3863 -0.0206
18872TIP3    H178107   5.587   1.947  11.361  1.0030  0.3482  0.1909
18872TIP3    H278108   5.689   1.916  11.469 -0.7098 -1.1598  1.4530
18873TIP3   OH278109   1.776   6.650   1.682  0.4327  0.1625 -0.3649
18873TIP3    H178110   1.777   6.604   1.598  0.0652 -1.3003  0.4025
18873TIP3    H278111   1.759   6.582   1.747 -0.1252  1.3865  0.8294
18874TIP3   OH278112   5.963   2.314   0.714  0.1696  0.1415  0.6423
18874TIP3    H178113   6.016   2.304   0.635 -0.2308  3.0650 -0.1125
18874TIP3    H278114   5.956   2.225   0.750  1.9966 -0.9702 -1.5134
18875TIP3   OH278115   6.286   5.344  16.541  0.2889  0.3223  0.3982
18875TIP3    H178116   6.196   5.316  16.522  0.0591  0.8456  0.6702
18875TIP3    H278117   6.322   5.370  16.457 -0.9865  3.4166  0.6570
18876TIP3   OH278118   4.412   5.792   3.430  0.6022  0.3054 -0.1447
18876TIP3    H178119   4.448   5.881   3.425  0.3827  0.5401  1.6600
18876TIP3    H278120   4.321   5.805   3.455  1.0612 -0.4161  2.1739
18877TIP3   OH278121   6.746   5.264  15.508  0.1039 -0.1578  0.2666
18877TIP3    H178122   6.739   5.359  15.502  0.1094 -0.1408  0.5119
18877TIP3    H278123   6.659   5.235  15.535  0.0572 -0.2360  0.0313
18878TIP3   OH278124   0.004   0.217  11.553 -0.1079 -0.5637  0.4551
18878TIP3    H178125   0.009   0.174  11.468  0.1690  0.2570  0.0457
18878TIP3    H278126  -0.090   0.230  11.568 -0.0995  0.9999 -0.6206
18879TIP3   OH278127   6.694   2.958   0.453 -0.0627  0.1891  0.1567
18879TIP3    H178128   6.669   3.048   0.433 -2.3245 -0.9103 -2.6661
18879TIP3    H278129   6.746   2.930   0.378  0.1111 -1.0461  0.7107
18880TIP3   OH278130   3.443   3.152   2.654 -0.5687  0.0525  0.2405
18880TIP3    H178131   3.481   3.213   2.717  2.9549  0.4678 -1.9886
18880TIP3    H278132   3.461   3.065   2.690  1.1725  0.2870  0.0119
18881TIP3   OH278133   0.645   0.399   0.256  0.3808  0.2034  0.8386
18881TIP3    H178134   0.632   0.448   0.338  1.9075 -1.5425  2.2075
18881TIP3    H278135   0.675   0.313   0.284 -0.3155 -0.8907 -1.5599
18882TIP3   OH278136   6.254   5.001  14.533 -0.0537 -0.3887 -0.3474
18882TIP3    H178137   6.217   4.914  14.520  0.9775 -0.6640 -1.5950
18882TIP3    H278138   6.304   5.018  14.453 -1.4781  2.0047 -0.8070
18883TIP3   OH278139   1.451   0.801  16.917  0.5846  0.7092  0.3183
18883TIP3    H178140   1.386   0.867  16.894 -0.1551 -0.3211 -0.6943
18883TIP3    H278141   1.422   0.722  16.871  1.4140 -0.3367  1.5162
18884TIP3   OH278142   5.662   5.866  17.286 -0.7693 -0.1404 -0.1009
18884TIP3    H178143   5.652   5.900  17.197  0.2174 -0.8789 -0.5262
18884TIP3    H278144   5.649   5.771  17.276 -0.8167 -0.2057  0.5705
18885TIP3   OH278145   3.443   3.533  14.934 -0.2175  0.7635 -0.3194
18885TIP3    H178146   3.510   3.504  14.872 -0.0246 -1.2926  0.7550
18885TIP3    H278147   3.480   3.613  14.973  2.3477 -0.9793  1.1973
18886TIP3   OH278148   2.344   6.028  11.228 -0.2083 -0.7399 -0.2679
18886TIP3    H178149   2.323   5.939  11.256 -1.5033 -0.1324  0.8227
18886TIP3    H278150   2.316   6.032  11.137  1.4895 -1.9437 -0.8695
18887TIP3   OH278151   0.789   1.347   2.894 -0.1961  0.1062 -0.1532
18887TIP3    H178152   0.707   1.329   2.941 -0.8535  1.5739 -0.7056
18887TIP3    H278153   0.857   1.335   2.961 -1.1120  2.2627  1.2954
18888TIP3   OH278154   3.898   6.654   6.502 -0.3925  0.2772  0.0681
18888TIP3    H178155   3.988   6.624   6.517  0.2183  1.5515 -0.7841
18888TIP3    H278156   3.849   6.575   6.480  0.7216 -0.3331 -0.2802
18889TIP3   OH278157   1.871   4.242  15.777  0.3129 -0.6590  0.1263
18889TIP3    H178158   1.856   4.148  15.764 -0.0823 -0.3043 -2.5973
18889TIP3    H278159   1.966   4.250  15.787  0.4842 -1.2662 -0.8709
18890TIP3   OH278160   0.154   1.747   3.402 -0.3524  0.4416 -0.3973
18890TIP3    H178161   0.244   1.745   3.435 -0.6777  3.9154  1.0663
18890TIP3    H278162   0.102   1.708   3.472 -0.5459  4.0073  1.6787
18891TIP3   OH278163   6.531   2.317   5.321 -0.0653  0.0549 -0.1560
18891TIP3    H178164   6.542   2.403   5.362 -0.2204 -0.3565  0.7796
18891TIP3    H278165   6.608   2.307   5.265 -0.4171  1.1083 -0.8487
18892TIP3   OH278166   2.520   3.434   2.867  0.4190  0.5212 -0.2998
18892TIP3    H178167   2.445   3.413   2.923  1.8808 -0.6346  1.3475
18892TIP3    H278168   2.490   3.413   2.779 -0.4803 -2.2728  0.5490
18893TIP3   OH278169   3.282   2.241  17.490 -0.1084 -0.5277 -0.0543
18893TIP3    H178170   3.219   2.176  17.521 -0.3180 -0.0414  0.5732
18893TIP3    H278171   3.231   2.299  17.433 -0.1218 -0.4199  0.0655
18894TIP3   OH278172   2.794   1.613   6.269  0.0993 -0.4590  0.6365
18894TIP3    H178173   2.854   1.688   6.273  0.1696 -0.5874  2.6951
18894TIP3    H278174   2.852   1.538   6.255  0.2130 -0.3639  0.5820
18895TIP3   OH278175   4.265   4.457   6.072  0.5382  0.2461 -0.5370
18895TIP3    H178176   4.184   4.483   6.116  0.3312  2.0330 -1.8597
18895TIP3    H278177   4.306   4.395   6.132 -0.2112  1.7690  1.6759
18896TIP3   OH278178   0.280   3.940  15.518  0.2146 -0.1908 -0.4810
18896TIP3    H178179   0.207   3.904  15.570 -0.0696  0.6936 -0.2443
18896TIP3    H278180   0.237   3.984  15.444  0.2631  2.6247  1.0161
18897TIP3   OH278181   3.381   0.086   4.119 -0.3151 -0.0102  0.0543
18897TIP3    H178182   3.430   0.166   4.101 -1.3872  0.7435  0.4052
18897TIP3    H278183   3.448   0.021   4.142  0.6660  0.4343 -1.4234
18898TIP3   OH278184   4.006   1.505  10.893  0.0019 -0.3011 -0.3701
18898TIP3    H178185   3.918   1.526  10.923 -0.9418 -1.7975 -1.9042
18898TIP3    H278186   4.034   1.582  10.843 -0.0425  0.5320  0.8410
18899TIP3   OH278187   1.255   2.401  16.406  0.1740 -0.0837  0.9221
18899TIP3    H178188   1.189   2.332  16.402  0.0313  0.0564  0.8486
18899TIP3    H278189   1.205   2.481  16.419  0.1983  0.2485 -0.8527
18900TIP3   OH278190   4.303   6.037   6.461 -0.0835 -0.2975  0.3569
18900TIP3    H178191   4.382   6.060   6.509  1.0536 -3.3474  0.1451
18900TIP3    H278192   4.233   6.047   6.526  0.4960  1.7515  0.7456
18901TIP3   OH278193   2.757   3.340  11.642 -0.1871  0.3571  0.4035
18901TIP3    H178194   2.672   3.380  11.660 -0.1890  0.8188 -0.5639
18901TIP3    H278195   2.802   3.339  11.727 -1.4054 -0.5374  1.0700
18902TIP3   OH278196   4.341   3.701  16.126  0.2345 -0.0955 -0.0836
18902TIP3    H178197   4.404   3.630  16.116  0.3865  0.0193  0.0761
18902TIP3    H278198   4.312   3.695  16.217 -1.4505 -1.3922 -0.6446
18903TIP3   OH278199   3.836   1.603   2.006 -0.3867 -0.0256 -0.3933
18903TIP3    H178200   3.813   1.513   2.030 -0.8544 -0.4040 -2.1038
18903TIP3    H278201   3.827   1.653   2.087 -2.2087 -1.1348  0.1455
18904TIP3   OH278202   6.264   1.863  16.889  0.4490 -0.2979 -0.6551
18904TIP3    H178203   6.175   1.831  16.874  0.8067 -1.2293 -0.8425
18904TIP3    H278204   6.276   1.856  16.984  0.1250  0.3934 -0.5558
18905TIP3   OH278205   5.764   3.423   5.926  0.5262 -0.1076 -0.6466
18905TIP3    H178206   5.770   3.483   6.000  2.6059  1.0715 -1.6828
18905TIP3    H278207   5.848   3.432   5.881 -1.0471  0.0882 -3.7919
18906TIP3   OH278208   0.400   6.584   4.495 -0.2669  0.0413  0.6979
18906TIP3    H178209   0.338   6.583   4.423  0.1807 -0.1970  0.3128
18906TIP3    H278210   0.384   6.667   4.540 -0.1612  0.4419 -0.0061
18907TIP3   OH278211   5.788   6.299  15.833 -0.7039  0.0993 -0.2581
18907TIP3    H178212   5.809   6.238  15.762 -1.4206 -1.1125  0.5521
18907TIP3    H278213   5.794   6.247  15.913 -0.9045  1.2024  0.4978
18908TIP3   OH278214   1.628   3.415  15.959  0.2312 -0.2953 -0.3872
18908TIP3    H178215   1.629   3.319  15.966  2.0361 -0.2898  0.0882
18908TIP3    H278216   1.708   3.436  15.910  1.1076  1.0603  1.5178
18909TIP3   OH278217   3.944   3.078  17.367 -0.2124 -0.8921 -0.0784
18909TIP3    H178218   3.946   3.128  17.286 -0.6171  0.8471  0.9328
18909TIP3    H278219   3.890   3.130  17.426  2.5140 -0.5006  2.2964
18910TIP3   OH278220   6.631   5.766  14.268 -0.2663 -0.1759  0.8348
18910TIP3    H178221   6.547   5.722  14.254  0.4024 -0.8155 -1.6353
18910TIP3    H278222   6.661   5.734  14.353 -2.2513 -0.3210  1.5485
18911TIP3   OH278223   0.862   0.695  13.169 -0.3248 -0.5367 -0.0398
18911TIP3    H178224   0.792   0.715  13.107 -0.1836 -0.7442 -0.2695
18911TIP3    H278225   0.817   0.667  13.249 -0.5986  2.2053  0.8779
18912TIP3   OH278226   2.249   6.230   5.914 -0.0412  0.0770 -0.1715
18912TIP3    H178227   2.344   6.231   5.918 -0.0375  0.0007  4.1363
18912TIP3    H278228   2.223   6.321   5.931 -0.8301  0.3984 -2.7246
18913TIP3   OH278229   3.312   2.320   1.521 -0.2680  0.6651  0.1274
18913TIP3    H178230   3.237   2.266   1.496 -0.2344  0.4582  0.4763
18913TIP3    H278231   3.316   2.314   1.616  0.7733 -0.1185  0.0568
18914TIP3   OH278232   2.931   3.140   3.773  0.4741  0.4639  0.0142
18914TIP3    H178233   2.848   3.172   3.736 -0.1213 -1.9617 -0.9430
18914TIP3    H278234   2.992   3.140   3.699  1.7044  3.0915  0.9023
18915TIP3   OH278235   1.107   5.259  15.391  0.5840  0.0769  0.1988
18915TIP3    H178236   1.023   5.213  15.395  1.0520 -0.8273  0.0415
18915TIP3    H278237   1.107   5.302  15.306 -1.1075  2.9052  1.4972
18916TIP3   OH278238   6.054   5.708   3.712 -0.5600  0.1766  0.2788
18916TIP3    H178239   6.098   5.644   3.657 -1.5502 -0.0010 -0.3430
18916TIP3    H278240   6.118   5.777   3.726  0.4834 -0.8816  0.8655
18917TIP3   OH278241   2.708   6.606   3.585  0.0622  0.4895 -0.1203
18917TIP3    H178242   2.682   6.530   3.533 -0.5025  0.1582  0.6126
18917TIP3    H278243   2.726   6.570   3.672  0.9592  1.0304 -0.0674
18918TIP3   OH278244   6.600   1.105   3.676 -0.3525  0.5677  0.2714
18918TIP3    H178245   6.595   1.143   3.763  1.6996 -1.1320  1.2343
18918TIP3    H278246   6.618   1.012   3.691  0.8838  0.3658 -1.9247
18919TIP3   OH278247   4.570   0.756  15.702 -0.1541  0.4665 -0.0045
18919TIP3    H178248   4.651   0.788  15.662 -0.4187  0.4413 -0.5693
18919TIP3    H278249   4.502   0.813  15.668 -0.3611  0.5782  0.5821
18920TIP3   OH278250   3.764   3.511   2.317 -0.5740  0.1150 -0.1147
18920TIP3    H178251   3.697   3.572   2.287  0.2653  1.6311  0.9418
18920TIP3    H278252   3.721   3.458   2.383 -0.7551  1.1182  0.5993
18921TIP3   OH278253   3.339   6.074   0.003  0.0408  0.4332  0.3708
18921TIP3    H178254   3.417   6.047   0.052 -0.3833 -0.9496  0.3083
18921TIP3    H278255   3.334   6.169   0.018  1.6807  0.5473  0.4342
18922TIP3   OH278256   0.984   4.147   2.084 -0.1365  0.5823  0.1443
18922TIP3    H178257   0.938   4.093   2.019  1.0476  1.1091 -1.1814
18922TIP3    H278258   0.961   4.237   2.060  1.0977  0.8285 -0.1982
18923TIP3   OH278259   5.113   3.150   0.728  0.2250 -0.4575  0.0653
18923TIP3    H178260   5.109   3.078   0.791 -0.0549  0.8183  1.5885
18923TIP3    H278261   5.203   3.150   0.696  0.3893 -1.1010  0.5120
18924TIP3   OH278262   5.961   0.985   0.365  0.2760  0.1980 -0.2049
18924TIP3    H178263   5.919   1.062   0.403  0.3201  0.4171 -0.5932
18924TIP3    H278264   6.015   0.949   0.435 -1.6623 -0.9329  0.8015
18925TIP3   OH278265   5.189   3.354  16.606 -0.5359  0.0212  0.3899
18925TIP3    H178266   5.120   3.406  16.566 -0.1201 -0.3895 -0.9002
18925TIP3    H278267   5.186   3.270  16.561  1.0545  0.1281  0.0171
18926TIP3   OH278268   3.258   5.658   2.789  0.7727  0.0435  0.1754
18926TIP3    H178269   3.341   5.702   2.811  0.3927  0.3281  1.1140
18926TIP3    H278270   3.284   5.574   2.753  1.5190  0.9026 -1.3990
18927TIP3   OH278271   0.528   2.360  16.254 -0.2176  0.1655 -0.5847
18927TIP3    H178272   0.529   2.343  16.160  0.8508  0.4066 -0.6233
18927TIP3    H278273   0.563   2.280  16.294  1.8246  1.0034 -0.5757
18928TIP3   OH278274   6.375   6.056  16.282  0.3594 -0.8204  0.5119
18928TIP3    H178275   6.380   5.962  16.266  1.9529 -0.5320 -1.0022
18928TIP3    H278276   6.428   6.071  16.360  0.4046 -1.1316  0.5399
18929TIP3   OH278277   3.258   4.271  14.876  0.0971 -0.2297 -0.4751
18929TIP3    H178278   3.349   4.287  14.849 -0.2463  0.9548 -1.0045
18929TIP3    H278279   3.206   4.329  14.820 -1.1936 -2.4924 -1.7197
18930TIP3   OH278280   1.374   5.566  17.446  1.3309  0.2581  0.4481
18930TIP3    H178281   1.467   5.585  17.441  1.3793  0.6859  2.2468
18930TIP3    H278282   1.332   5.644  17.408  1.6793 -0.4086 -1.4112
18931TIP3   OH278283   5.343   0.448  15.921 -0.5400  0.3641  0.0573
18931TIP3    H178284   5.257   0.488  15.924 -0.3573  0.8323 -0.5824
18931TIP3    H278285   5.333   0.364  15.966 -0.9966  0.9960  1.1707
18932TIP3   OH278286   4.669   4.250   6.336  0.0830 -0.7114  0.0504
18932TIP3    H178287   4.657   4.322   6.274 -1.1741 -1.4325 -0.5964
18932TIP3    H278288   4.739   4.279   6.394  0.1748  0.6698 -0.7100
18933TIP3   OH278289   0.012   4.610  11.780  0.4553  0.0372  0.5708
18933TIP3    H178290  -0.079   4.590  11.804  0.5706 -1.0368  0.1535
18933TIP3    H278291   0.034   4.686  11.834 -0.0741 -0.8286  2.0786
18934TIP3   OH278292   0.707   5.659   4.114  0.1993 -0.4007 -0.0993
18934TIP3    H178293   0.625   5.676   4.068  0.3528 -0.2974 -0.3364
18934TIP3    H278294   0.693   5.695   4.202  0.4343  0.7645 -0.5227
18935TIP3   OH278295   1.241   5.381   2.525 -0.0759 -0.1013 -0.4144
18935TIP3    H178296   1.239   5.286   2.533 -1.1486  0.0390  1.7546
18935TIP3    H278297   1.236   5.397   2.431  1.9476 -2.1623 -0.9709
18936TIP3   OH278298   5.817   5.172  14.596  0.4660  0.7053 -0.1765
18936TIP3    H178299   5.906   5.193  14.566  0.3079 -0.3892 -1.5304
18936TIP3    H278300   5.830   5.134  14.683  1.1975  1.6407  0.1432
18937TIP3   OH278301   4.162   2.503   1.011  0.0108  0.0704 -0.5071
18937TIP3    H178302   4.147   2.429   0.951 -0.5404 -0.1412 -0.1162
18937TIP3    H278303   4.085   2.558   1.000  0.5385  0.7235 -0.9806
18938TIP3   OH278304   6.439   1.064   4.094 -0.5808  0.2746  0.4958
18938TIP3    H178305   6.376   1.013   4.145  0.2346  0.1070  1.3542
18938TIP3    H278306   6.435   1.025   4.007 -2.0225  0.5885  0.3972
18939TIP3   OH278307   4.502   5.094  15.995  0.7491  0.0601 -0.5743
18939TIP3    H178308   4.582   5.068  15.948  2.1651 -0.1155  1.7904
18939TIP3    H278309   4.477   5.016  16.044  0.4183  0.7761  0.4220
18940TIP3   OH278310   2.578   3.654   6.156  0.0781  0.2882 -1.2366
18940TIP3    H178311   2.527   3.728   6.191  0.2952 -0.0275 -0.2145
18940TIP3    H278312   2.602   3.603   6.233  0.5368 -0.4714 -1.8678
18941TIP3   OH278313   5.235   5.133  11.438  0.0993  0.0195  0.1233
18941TIP3    H178314   5.326   5.108  11.454 -0.3581 -3.4148 -1.6602
18941TIP3    H278315   5.223   5.121  11.344 -2.4468 -0.7861  0.4762
18942TIP3   OH278316   1.923   5.754  13.780 -0.2883 -0.2380  0.3666
18942TIP3    H178317   2.018   5.749  13.770 -0.3156  1.7073 -1.4712
18942TIP3    H278318   1.906   5.842  13.813 -1.4777 -0.4090  0.2769
18943TIP3   OH278319   2.878   3.686   5.020 -0.2142 -0.0575 -0.5429
18943TIP3    H178320   2.963   3.693   5.064  0.0505 -0.1019 -1.0347
18943TIP3    H278321   2.831   3.619   5.069 -0.5427  1.0154  0.6480
18944TIP3   OH278322   3.861   2.271   4.350  0.4335  0.6908 -0.3654
18944TIP3    H178323   3.913   2.213   4.294  2.0722  1.3714  0.3845
18944TIP3    H278324   3.864   2.356   4.306  0.3831  0.8456 -0.0716
18945TIP3   OH278325   3.503   3.223  12.125  0.6877 -0.9314  0.5934
18945TIP3    H178326   3.459   3.139  12.113 -1.4754  0.5332 -4.0577
18945TIP3    H278327   3.574   3.223  12.061  0.2253  0.9760  0.0178
18946TIP3   OH278328   0.542   0.781  13.262 -0.0277  0.1116 -0.3714
18946TIP3    H178329   0.460   0.769  13.311 -0.4559  0.1236 -1.0719
18946TIP3    H278330   0.611   0.764  13.326 -0.5866 -0.7889  0.0070
18947TIP3   OH278331   6.698   5.130  15.085  0.1621  0.3751  0.6292
18947TIP3    H178332   6.623   5.187  15.069 -0.9040 -0.8779  1.0650
18947TIP3    H278333   6.719   5.093  14.999 -0.6447 -0.3713  0.7420
18948TIP3   OH278334   0.208   5.109   1.521  0.4450  0.7114  0.0743
18948TIP3    H178335   0.143   5.170   1.555  0.6127  0.2673  1.2131
18948TIP3    H278336   0.211   5.039   1.585  2.7985  1.2066  0.5734
18949TIP3   OH278337   4.106   4.253   6.210  0.3716 -0.0873  0.2266
18949TIP3    H178338   4.049   4.178   6.194  0.1428 -0.1116  1.0789
18949TIP3    H278339   4.151   4.232   6.292  1.7971 -0.1741 -0.5479
18950TIP3   OH278340   0.322   4.540  16.184 -0.0165 -0.1092 -0.4214
18950TIP3    H178341   0.258   4.594  16.229 -1.2687 -1.7899 -0.0785
18950TIP3    H278342   0.285   4.525  16.097 -0.0661 -0.9949 -0.2636
18951TIP3   OH278343   4.014   5.026  15.731  0.1325  0.2102  0.0534
18951TIP3    H178344   4.066   4.946  15.731  1.1023  0.8145 -0.2569
18951TIP3    H278345   4.030   5.065  15.817 -0.5920 -0.0792  0.3255
18952TIP3   OH278346   0.102   5.889  14.216 -0.5720 -0.0062  0.7124
18952TIP3    H178347   0.120   5.822  14.151 -1.6765  1.5655 -1.3447
18952TIP3    H278348   0.018   5.863  14.255 -0.4514 -0.3881  0.7178
18953TIP3   OH278349   1.481   2.820   3.971  0.0473 -0.3353 -0.2008
18953TIP3    H178350   1.421   2.763   4.018  0.0944 -0.1026  0.1433
18953TIP3    H278351   1.483   2.901   4.022  1.5029 -0.7240  0.4150
18954TIP3   OH278352   2.736   6.116   5.589  0.0203 -0.1580  0.1124
18954TIP3    H178353   2.712   6.190   5.532  0.8334 -0.0962 -0.1631
18954TIP3    H278354   2.655   6.096   5.637 -0.0711  1.3197  0.6539
18955TIP3   OH278355   3.324   5.908   2.070 -0.7404  0.2116 -0.1746
18955TIP3    H178356   3.291   5.960   2.143  0.3503 -1.3420  1.5152
18955TIP3    H278357   3.417   5.894   2.090 -0.2281  0.2896 -2.2302
18956TIP3   OH278358   4.342   3.494  14.558  0.1949  0.2675 -0.0557
18956TIP3    H178359   4.290   3.528  14.630  0.2946 -0.3579  0.3164
18956TIP3    H278360   4.321   3.401  14.555  1.1427  0.0424 -0.0245
18957TIP3   OH278361   5.340   1.754   6.416  0.4264 -0.0265  0.2102
18957TIP3    H178362   5.290   1.779   6.339 -0.5748 -0.2346  0.7672
18957TIP3    H278363   5.430   1.746   6.385  0.4283  2.0724 -0.4441
18958TIP3   OH278364   1.625   5.603  11.968 -0.5049  0.5006  0.2132
18958TIP3    H178365   1.607   5.512  11.992  1.3870  0.3442  1.2555
18958TIP3    H278366   1.668   5.598  11.883  2.6970  0.0202  1.7217
18959TIP3   OH278367   5.996   6.158  14.079  0.4965 -0.2708 -0.1023
18959TIP3    H178368   5.962   6.186  14.164  0.2552 -0.4297 -0.1468
18959TIP3    H278369   6.047   6.233  14.048  0.3033 -0.0830  0.0293
18960TIP3   OH278370   5.773   6.462   0.302 -0.0390 -0.5389 -0.4209
18960TIP3    H178371   5.692   6.504   0.329  0.7766  0.8889 -0.1108
18960TIP3    H278372   5.813   6.433   0.384  0.5045  0.1685 -0.4309
18961TIP3   OH278373   6.138   4.046   4.407  0.4529 -0.0024  0.1108
18961TIP3    H178374   6.182   3.964   4.426 -0.1009 -0.4478 -0.4571
18961TIP3    H278375   6.056   4.042   4.456  0.2609  0.0489 -0.1989
18962TIP3   OH278376   5.615   3.166   2.743 -0.1330 -0.1609 -0.0048
18962TIP3    H178377   5.630   3.091   2.685  1.3078 -0.6366  0.9104
18962TIP3    H278378   5.606   3.240   2.684 -0.6933 -0.9236 -0.9045
18963TIP3   OH278379   3.130   4.097  17.300  0.0163  0.1585 -0.1097
18963TIP3    H178380   3.123   4.002  17.301 -0.3418  0.1750 -0.4371
18963TIP3    H278381   3.224   4.115  17.294  0.0292 -0.2655 -3.9080
18964TIP3   OH278382   3.899   3.227  13.233  0.0525 -0.0570 -0.0851
18964TIP3    H178383   3.811   3.252  13.205 -0.3972  0.2223  1.4555
18964TIP3    H278384   3.956   3.253  13.161 -0.9600  1.1341 -0.4853
18965TIP3   OH278385   0.759   6.714  14.766 -0.1230 -0.2773  0.3075
18965TIP3    H178386   0.681   6.769  14.775 -0.5220 -0.8790  0.5309
18965TIP3    H278387   0.824   6.756  14.823  0.6467  1.8324 -1.9278
18966TIP3   OH278388   2.791   5.608   4.698 -0.1000 -0.0000 -0.1640
18966TIP3    H178389   2.790   5.701   4.723  0.6483 -0.4639  1.7631
18966TIP3    H278390   2.741   5.564   4.767  3.7961 -1.5984  1.9818
18967TIP3   OH278391   4.326   2.526  11.770 -0.2304 -0.2238 -0.2550
18967TIP3    H178392   4.390   2.529  11.841 -0.4644 -1.9378  0.0617
18967TIP3    H278393   4.368   2.474  11.702 -2.1817 -3.7783  1.0130
18968TIP3   OH278394   0.392   3.729   0.136  0.2958  0.2869 -0.7697
18968TIP3    H178395   0.304   3.736   0.173  0.7319 -0.5574  0.4726
18968TIP3    H278396   0.403   3.810   0.086 -0.3649  1.4397  0.8712
18969TIP3   OH278397   3.709   2.161   5.894 -0.7397 -0.2178  0.7590
18969TIP3    H178398   3.717   2.066   5.897 -0.2598 -0.2636 -1.0456
18969TIP3    H278399   3.727   2.189   5.984  2.7258 -1.5882  0.6473
18970TIP3   OH278400   5.334   3.125  14.784  0.4039 -0.0199  0.7977
18970TIP3    H178401   5.299   3.085  14.704  0.4355  1.1689  0.1639
18970TIP3    H278402   5.387   3.056  14.824  1.2994 -0.3176 -0.8030
18971TIP3   OH278403   4.819   2.139  16.470 -0.1728  0.0531  0.3626
18971TIP3    H178404   4.801   2.172  16.558 -0.0142  4.0848 -0.8938
18971TIP3    H278405   4.737   2.101  16.440 -0.2733 -1.2216  2.0881
18972TIP3   OH278406   3.677   4.894   5.076 -0.4706 -0.5218 -0.0617
18972TIP3    H178407   3.593   4.876   5.034 -1.1744  0.8692  0.6541
18972TIP3    H278408   3.680   4.835   5.151 -1.4507  0.3227  0.6694
18973TIP3   OH278409   0.783   6.459   6.429 -0.0560  0.1260 -0.3871
18973TIP3    H178410   0.715   6.393   6.440 -0.6791  0.5198 -1.6811
18973TIP3    H278411   0.748   6.538   6.470  0.6906 -0.3118  1.1633
18974TIP3   OH278412   0.639   1.120  15.297  0.0213  0.1851 -0.3677
18974TIP3    H178413   0.715   1.155  15.344  0.8497 -1.5747 -0.3079
18974TIP3    H278414   0.566   1.174  15.327  0.6721 -0.2214  2.2584
18975TIP3   OH278415   1.732   3.028   1.015  0.0524 -0.0270  0.4075
18975TIP3    H178416   1.805   2.966   1.018  0.0782  0.0251  1.6901
18975TIP3    H278417   1.715   3.042   0.922 -1.8318 -4.1162 -0.0539
18976TIP3   OH278418   1.821   1.080   1.343  0.1661  0.1874  0.0271
18976TIP3    H178419   1.825   1.009   1.406 -0.5850 -0.7856 -0.9738
18976TIP3    H278420   1.727   1.089   1.322  0.3966  0.4372 -0.9809
18977TIP3   OH278421   2.348   3.084  16.175 -0.0740  0.6027  0.3861
18977TIP3    H178422   2.303   3.124  16.100 -1.2225 -1.5244 -0.1253
18977TIP3    H278423   2.278   3.057  16.234  0.8023  2.0302  2.2167
18978TIP3   OH278424   0.346   5.778   0.311  0.0318 -0.3904 -0.7231
18978TIP3    H178425   0.278   5.721   0.275 -0.2223 -0.2856 -0.4207
18978TIP3    H278426   0.361   5.844   0.243 -1.8168  0.9511  0.0776
18979TIP3   OH278427   5.291   5.415   5.062  0.1980  0.6637  0.0821
18979TIP3    H178428   5.381   5.438   5.039  0.5831  0.0148  0.8508
18979TIP3    H278429   5.298   5.381   5.152 -0.3611 -1.8871 -0.7468
18980TIP3   OH278430   3.316   2.676   1.306 -0.2130 -0.0403 -0.0842
18980TIP3    H178431   3.242   2.617   1.292 -0.9987  1.1448 -1.0605
18980TIP3    H278432   3.381   2.622   1.352 -2.4909 -0.5420  2.8772
18981TIP3   OH278433   2.060   6.767  11.660 -0.2003  0.1398  0.4892
18981TIP3    H178434   1.969   6.795  11.654 -0.1611  0.1971  0.1554
18981TIP3    H278435   2.093   6.772  11.570  0.6428  1.8811  0.8503
18982TIP3   OH278436   0.551   6.457   0.884  0.0114  0.0438  0.2884
18982TIP3    H178437   0.551   6.470   0.979  1.2568 -0.4017  0.3679
18982TIP3    H278438   0.459   6.441   0.862 -0.4722  1.2796  1.2446
18983TIP3   OH278439   6.727   5.611   0.469 -0.5349  0.4785  0.5704
18983TIP3    H178440   6.787   5.582   0.538 -1.5831 -0.2218  1.2112
18983TIP3    H278441   6.645   5.631   0.514 -0.9448  0.9564 -0.3504
18984TIP3   OH278442   6.731   1.788  13.835  0.2116  0.3076 -0.3915
18984TIP3    H178443   6.700   1.746  13.915  0.2501 -0.6572 -0.8664
18984TIP3    H278444   6.675   1.753  13.766  0.2747  1.0151 -0.8152
18985TIP3   OH278445   0.290   1.171  11.909 -0.2371 -0.0561 -0.2025
18985TIP3    H178446   0.218   1.176  11.971  0.2939 -0.8514  0.5089
18985TIP3    H278447   0.360   1.222  11.950 -0.5352  1.1076 -1.1065
18986TIP3   OH278448   3.147   5.826  13.410 -0.0640  0.2046 -0.1616
18986TIP3    H178449   3.192   5.904  13.443  2.6433 -1.1761 -0.3060
18986TIP3    H278450   3.078   5.860  13.354  0.3047  2.4956  0.6561
18987TIP3   OH278451   4.214   4.142   1.985 -0.3137 -0.6955  0.3558
18987TIP3    H178452   4.286   4.204   1.993  0.6224 -1.7409  0.2720
18987TIP3    H278453   4.217   4.090   2.065  0.5290 -2.2658 -0.6306
18988TIP3   OH278454   1.401   4.075   3.051 -0.0128  0.1741  0.0052
18988TIP3    H178455   1.378   3.993   3.095 -0.3366  0.6916  0.8249
18988TIP3    H278456   1.495   4.086   3.069 -0.2728  0.7057  1.1568
18989TIP3   OH278457   6.383   1.052  11.294  1.2627 -0.5721  0.6265
18989TIP3    H178458   6.364   1.146  11.299  0.3669 -0.7744  1.2501
18989TIP3    H278459   6.474   1.044  11.323  0.8081 -0.0714  2.2852
18990TIP3   OH278460   5.960   1.324   5.181  0.5351  0.1974 -0.2553
18990TIP3    H178461   5.905   1.391   5.223  0.6811 -0.6046  1.2829
18990TIP3    H278462   5.995   1.273   5.254  1.2739 -0.9055 -1.3524
18991TIP3   OH278463   0.417   2.862   3.733 -0.0970 -0.0952  0.2665
18991TIP3    H178464   0.355   2.831   3.799 -0.9156  0.0681 -0.3977
18991TIP3    H278465   0.412   2.958   3.739 -0.5873 -0.0720 -0.3900
18992TIP3   OH278466   2.765   1.487  14.646  0.4543 -0.2299  0.2437
18992TIP3    H178467   2.718   1.502  14.564  1.4839 -3.2636 -1.0174
18992TIP3    H278468   2.834   1.425  14.624  0.5842 -1.4231  3.4461
18993TIP3   OH278469   1.168   3.543  13.427 -0.0786 -0.1228 -0.1590
18993TIP3    H178470   1.259   3.524  13.404  0.0886 -0.1912  0.5397
18993TIP3    H278471   1.150   3.488  13.503  0.1166  1.7703  1.3413
18994TIP3   OH278472   0.884   5.937  10.994  0.5343 -0.4946  0.2214
18994TIP3    H178473   0.958   5.974  10.947  0.8398 -0.2656  0.8730
18994TIP3    H278474   0.814   6.001  10.985 -1.3752 -2.7248 -4.6451
18995TIP3   OH278475   6.085   1.131  13.594 -0.3163  0.3228 -0.1002
18995TIP3    H178476   6.179   1.121  13.587 -0.3158  0.4552 -0.2925
18995TIP3    H278477   6.073   1.215  13.640 -0.3263 -0.2939  1.0500
18996TIP3   OH278478   3.801   2.138  13.369 -0.0649 -0.2852 -0.1053
18996TIP3    H178479   3.746   2.194  13.423 -1.0824 -1.8261  0.5533
18996TIP3    H278480   3.750   2.125  13.289  1.3010  1.7388 -1.4016
18997TIP3   OH278481   4.439   6.296  13.477  0.0461  0.4845 -0.6372
18997TIP3    H178482   4.435   6.215  13.427 -1.4721  0.5495 -0.6703
18997TIP3    H278483   4.533   6.311  13.492  0.3598 -1.1461 -0.8192
18998TIP3   OH278484   4.550   2.632   3.822 -0.2695  1.1632 -0.6967
18998TIP3    H178485   4.471   2.613   3.872 -0.9951  0.8572 -1.9203
18998TIP3    H278486   4.590   2.707   3.866 -0.7362  0.7328  0.4785
18999TIP3   OH278487   4.119   4.263   3.879 -0.1838  1.0621  0.5005
18999TIP3    H178488   4.174   4.212   3.819 -0.5075 -0.1271  1.1897
18999TIP3    H278489   4.178   4.290   3.949 -0.7221 -1.6798  2.1579
19000TIP3   OH278490   6.262   2.924   6.348  0.4252 -0.1078  0.2819
19000TIP3    H178491   6.290   3.006   6.389 -0.3802 -0.2629  1.1766
19000TIP3    H278492   6.301   2.926   6.261  0.9894  0.9023  0.5462
19001TIP3   OH278493   1.609   0.383  16.177  0.6555 -0.0011  0.5110
19001TIP3    H178494   1.573   0.321  16.113  1.3701 -1.0248  1.0785
19001TIP3    H278495   1.677   0.334  16.222 -0.9981  0.0896  3.3389
19002TIP3   OH278496   4.399   5.806   3.736  0.8435 -0.5666 -0.3056
19002TIP3    H178497   4.426   5.721   3.772  0.7018 -1.1735 -1.5927
19002TIP3    H278498   4.311   5.790   3.701  0.7712  0.1416 -0.4518
19003TIP3   OH278499   5.721   4.915   1.676  0.3476  0.2050 -0.5505
19003TIP3    H178500   5.778   4.980   1.716  0.8780 -1.0962  0.9212
19003TIP3    H278501   5.648   4.966   1.639  0.0706  1.5522  1.6749
19004TIP3   OH278502   6.536   3.674   1.626 -0.2693  0.3413 -0.2003
19004TIP3    H178503   6.556   3.757   1.583  0.1801  0.5709  0.4283
19004TIP3    H278504   6.577   3.607   1.571 -0.7615  0.5192 -0.7884
19005TIP3   OH278505   2.508   1.759  11.279  0.2168  0.0299  0.6494
19005TIP3    H178506   2.545   1.778  11.193  0.5518 -1.3613  0.4597
19005TIP3    H278507   2.454   1.680  11.265  1.0779 -0.8221  1.8920
19006TIP3   OH278508   3.087   3.135   3.573 -0.3864  0.1414  0.4461
19006TIP3    H178509   3.097   3.195   3.499 -2.8558  0.0842 -0.0183
19006TIP3    H278510   3.122   3.052   3.541  1.5756  0.8663  0.5419
19007TIP3   OH278511   5.342   1.165  12.992  0.1578  0.5300  0.5055
19007TIP3    H178512   5.263   1.116  13.011  0.4968  0.2860  1.3576
19007TIP3    H278513   5.322   1.215  12.913 -0.5397 -0.1892  0.2233
19008TIP3   OH278514   6.081   4.265   2.808 -0.3841 -0.1970  0.0034
19008TIP3    H178515   6.012   4.243   2.872 -0.4058  1.8143  0.7418
19008TIP3    H278516   6.113   4.180   2.778 -1.6853 -1.2000  1.2727
19009TIP3   OH278517   0.304   3.297   0.665  0.4073 -0.1621 -0.5645
19009TIP3    H178518   0.371   3.235   0.634  0.9575  0.0122  0.2463
19009TIP3    H278519   0.344   3.340   0.741 -0.3218  0.5324 -0.5600
19010TIP3   OH278520   1.132   2.958  11.481 -0.1547 -0.1571  0.1937
19010TIP3    H178521   1.080   2.952  11.562 -0.0883  1.6946  0.3974
19010TIP3    H278522   1.179   3.040  11.488  0.9404 -0.6401 -1.1216
19011TIP3   OH278523   1.755   4.476  15.089 -0.0186  0.4594  0.1734
19011TIP3    H178524   1.843   4.438  15.091  0.5332  1.6399 -0.3629
19011TIP3    H278525   1.769   4.566  15.060 -1.3798  0.7704  0.4107
19012TIP3   OH278526   2.885   4.540   4.279  0.3689  0.0967 -0.2076
19012TIP3    H178527   2.861   4.618   4.229  0.1004 -0.0074 -0.2438
19012TIP3    H278528   2.826   4.541   4.354  0.0266 -0.3347 -0.4640
19013TIP3   OH278529   2.372   3.136  14.583 -0.1082 -0.0251 -0.0053
19013TIP3    H178530   2.343   3.218  14.545  0.4151  0.1245 -0.0854
19013TIP3    H278531   2.459   3.154  14.618 -0.3646 -0.2963  0.8059
19014TIP3   OH278532   0.367   6.317  16.759 -0.6464 -0.2697  0.7685
19014TIP3    H178533   0.418   6.381  16.809  0.0027  0.2697 -0.5497
19014TIP3    H278534   0.371   6.348  16.669 -0.0894 -2.3137  0.0510
19015TIP3   OH278535   2.128   5.507   6.640  0.0261  0.3476 -0.2691
19015TIP3    H178536   2.116   5.601   6.625  1.1621  1.0170  2.4413
19015TIP3    H278537   2.039   5.473   6.647 -0.4316  0.9594 -2.3456
19016TIP3   OH278538   6.504   6.223  12.463  0.4380  0.5673 -0.2527
19016TIP3    H178539   6.504   6.312  12.426  1.6570  1.1146  0.9648
19016TIP3    H278540   6.596   6.196  12.461  0.2802 -0.0879  0.7060
19017TIP3   OH278541   3.052   0.225   4.936  0.2562 -0.7648  0.0932
19017TIP3    H178542   3.071   0.189   5.023 -0.6375 -0.6145  0.3577
19017TIP3    H278543   3.062   0.151   4.876  0.7590 -0.8940  0.3305
19018TIP3   OH278544   4.279   3.318   3.802 -0.8665 -0.1645 -0.1756
19018TIP3    H178545   4.338   3.379   3.846  0.2626 -0.9099 -0.6331
19018TIP3    H278546   4.235   3.371   3.736  0.0248  0.1888 -0.5006
19019TIP3   OH278547   6.119   2.435   4.213 -0.3170 -0.2098  0.3099
19019TIP3    H178548   6.044   2.380   4.235 -0.4346 -0.3795 -0.4592
19019TIP3    H278549   6.189   2.405   4.270 -1.1303  0.7050  1.8400
19020TIP3   OH278550   3.861   5.183  11.304  0.2772  0.8095 -0.6848
19020TIP3    H178551   3.855   5.227  11.219 -2.6196  0.6460 -0.6711
19020TIP3    H278552   3.881   5.092  11.283 -0.8566  0.6813 -1.2359
19021TIP3   OH278553   5.579   2.841   0.705 -0.3225 -0.0974 -0.5391
19021TIP3    H178554   5.533   2.785   0.767  0.4005  0.0667  0.1615
19021TIP3    H278555   5.640   2.891   0.758  2.6771 -2.2404 -1.6332
19022TIP3   OH278556   5.954   6.741   4.419  0.0320  0.3433 -0.1689
19022TIP3    H178557   5.972   6.762   4.510 -0.5945  1.0544 -0.2005
19022TIP3    H278558   5.967   6.646   4.413  0.6200  0.3739  0.5215
19023TIP3   OH278559   0.406   1.557   6.130 -0.5579  0.1038  0.3321
19023TIP3    H178560   0.468   1.621   6.096  0.8155 -1.2809  0.1106
19023TIP3    H278561   0.393   1.495   6.058 -0.2891 -0.9594  1.1712
19024TIP3   OH278562   1.964   2.147   1.376  0.4418 -0.0415  0.1313
19024TIP3    H178563   1.981   2.123   1.285 -0.4547 -0.7481  0.1347
19024TIP3    H278564   1.908   2.225   1.369  1.3839  0.6412  0.0970
19025TIP3   OH278565   2.931   0.926  14.746  0.0859  0.2740  0.4819
19025TIP3    H178566   2.858   0.893  14.800 -0.0656 -0.6910 -0.2730
19025TIP3    H278567   2.971   0.994  14.799  0.2937 -1.0226  2.0747
19026TIP3   OH278568   6.010   1.722  13.976 -0.3100 -0.0531 -0.1960
19026TIP3    H178569   5.926   1.698  14.015 -0.8070  1.3104 -0.3900
19026TIP3    H278570   6.064   1.643  13.985 -1.6648 -1.0139 -0.2530
19027TIP3   OH278571   1.224   6.111  11.593  0.5194 -0.5030 -0.2265
19027TIP3    H178572   1.243   6.177  11.526  2.0827  0.1870  0.8187
19027TIP3    H278573   1.134   6.084  11.576  0.4274  0.6330 -1.7567
19028TIP3   OH278574   3.291   1.635   5.378  0.4021  0.3494  0.0049
19028TIP3    H178575   3.370   1.688   5.383  0.4007  0.5208 -1.3555
19028TIP3    H278576   3.307   1.574   5.306 -0.9085  0.7828 -0.6873
19029TIP3   OH278577   3.380   2.729   4.662 -0.2155  0.1197  0.2657
19029TIP3    H178578   3.330   2.665   4.712  0.8821 -0.5083  0.6054
19029TIP3    H278579   3.314   2.783   4.619 -1.1841  0.1712  1.7534
19030TIP3   OH278580   2.327   4.379  13.152 -0.0681 -0.0939 -0.2814
19030TIP3    H178581   2.413   4.363  13.112 -0.8567  0.1544 -2.1755
19030TIP3    H278582   2.266   4.375  13.079 -1.6776 -0.1580  1.0191
19031TIP3   OH278583   2.109   3.829   3.250 -0.1903  0.1524  0.3421
19031TIP3    H178584   2.158   3.754   3.217 -1.9456 -0.0307 -2.1277
19031TIP3    H278585   2.051   3.793   3.316  0.0957 -0.3866  0.3057
19032TIP3   OH278586   5.108   4.042   0.612  0.5970 -0.1419 -0.5640
19032TIP3    H178587   5.044   4.002   0.553  0.5842  0.4904 -0.9982
19032TIP3    H278588   5.102   3.992   0.693 -2.6155  1.7071  0.5050
19033TIP3   OH278589   1.797   5.420   0.553  0.3826  0.4345 -0.1828
19033TIP3    H178590   1.774   5.328   0.570  0.7061 -0.2451 -2.9254
19033TIP3    H278591   1.720   5.455   0.508  1.1425  0.8349 -1.1844
19034TIP3   OH278592   3.589   1.654   5.642 -0.4729  0.1589 -0.0518
19034TIP3    H178593   3.562   1.691   5.558  0.7885 -2.3844 -1.6975
19034TIP3    H278594   3.509   1.614   5.678 -0.7537  0.2252 -0.5981
19035TIP3   OH278595   6.393   3.260  15.413 -0.2579  0.7812  0.6811
19035TIP3    H178596   6.355   3.331  15.360  0.7135  1.5651  1.0094
19035TIP3    H278597   6.472   3.234  15.366  0.3558  1.1550  1.4749
19036TIP3   OH278598   5.446   4.399   0.827  0.7843  0.3329 -0.0108
19036TIP3    H178599   5.371   4.360   0.782  1.4145  0.0270 -0.8201
19036TIP3    H278600   5.509   4.327   0.835  0.6600  0.3575  1.4531
19037TIP3   OH278601   2.085   4.887  12.071 -0.0489  0.3078 -0.2526
19037TIP3    H178602   2.100   4.881  12.166 -1.5076  0.9300  0.0445
19037TIP3    H278603   2.069   4.796  12.044  0.9978  0.0425 -0.0347
19038TIP3   OH278604   0.231   4.365   4.622  0.2377  0.3051 -0.2623
19038TIP3    H178605   0.237   4.442   4.567 -3.0880  1.2536  0.4763
19038TIP3    H278606   0.183   4.301   4.570  2.9899 -1.4427 -0.8896
19039TIP3   OH278607   5.213   3.042   6.262  0.8483  0.2693  0.6461
19039TIP3    H178608   5.147   2.995   6.313  0.0210  1.5285  0.8015
19039TIP3    H278609   5.275   3.075   6.327  2.0117 -1.4321  0.4450
19040TIP3   OH278610   2.212   4.190   0.772 -0.0106  0.1843  0.1695
19040TIP3    H178611   2.164   4.203   0.691 -2.2746 -0.6385  1.2936
19040TIP3    H278612   2.213   4.275   0.815 -0.0898  0.2969 -0.0551
19041TIP3   OH278613   4.999   0.119  17.305  0.0952 -0.1070 -0.1074
19041TIP3    H178614   5.004   0.213  17.318  0.9592 -0.2868  1.1225
19041TIP3    H278615   4.949   0.107  17.225 -0.3760  1.3788 -0.0510
19042TIP3   OH278616   4.119   3.958   7.021 -0.6074  0.3110 -0.1963
19042TIP3    H178617   4.196   3.925   6.976  0.2415 -1.5802  2.3686
19042TIP3    H278618   4.138   4.050   7.039 -0.1268  0.5546 -1.8069
19043TIP3   OH278619   6.486   2.297   2.827  0.4342 -0.6038 -0.1921
19043TIP3    H178620   6.570   2.252   2.835  0.9515  0.3508 -0.1878
19043TIP3    H278621   6.450   2.265   2.744  0.4286 -1.6132  0.1860
19044TIP3   OH278622   3.500   2.223  16.174  0.2380 -0.0324  0.0882
19044TIP3    H178623   3.467   2.296  16.226  2.2088  1.6180 -0.8149
19044TIP3    H278624   3.581   2.256  16.135  0.6590 -2.3688 -1.2309
19045TIP3   OH278625   1.319   4.133   0.133 -0.1102 -0.4259 -0.1459
19045TIP3    H178626   1.411   4.146   0.108 -0.1903  0.3999 -0.0676
19045TIP3    H278627   1.276   4.105   0.052  0.0713 -0.0518 -0.3792
19046TIP3   OH278628   3.913   2.105   2.212  0.1074  0.7304 -0.7360
19046TIP3    H178629   3.952   2.048   2.278 -0.3906  1.0304 -0.1774
19046TIP3    H278630   3.949   2.073   2.129 -0.0538 -0.2965 -0.4228
19047TIP3   OH278631   4.364   2.743  13.110 -0.4589  0.3100  0.7757
19047TIP3    H178632   4.382   2.829  13.148 -0.0857  0.1681  0.9200
19047TIP3    H278633   4.268   2.738  13.108 -0.4882  1.0647 -0.0187
19048TIP3   OH278634   5.342   0.985  14.469 -0.7838  0.0154 -0.4381
19048TIP3    H178635   5.271   1.030  14.422 -2.6010 -2.2388 -0.0371
19048TIP3    H278636   5.340   1.024  14.557 -0.0832  1.4077 -1.0078
19049TIP3   OH278637   0.394   4.271  15.653 -0.4331 -0.4101 -0.6351
19049TIP3    H178638   0.398   4.359  15.691  0.1905 -0.1829 -1.2035
19049TIP3    H278639   0.317   4.273  15.596 -0.6426 -0.3613 -0.3559
19050TIP3   OH278640   4.972   1.473   2.447 -0.3829 -0.2392  0.5156
19050TIP3    H178641   5.020   1.482   2.529 -1.9449 -0.5937  1.5202
19050TIP3    H278642   4.937   1.383   2.449  0.8777 -0.8283 -1.3147
19051TIP3   OH278643   4.915   0.991  13.910 -0.1744 -0.0704  0.0305
19051TIP3    H178644   4.831   0.955  13.937  0.2381  0.8621  2.9291
19051TIP3    H278645   4.974   0.973  13.984  1.5592  1.2952 -0.9424
19052TIP3   OH278646   2.544   1.329   6.300  0.3051  0.1085  0.1288
19052TIP3    H178647   2.596   1.355   6.224 -1.1477 -0.5633 -1.1457
19052TIP3    H278648   2.481   1.400   6.312 -0.8515 -0.7614 -0.6534
19053TIP3   OH278649   6.591   0.070  13.638  0.4652  0.8288  0.5333
19053TIP3    H178650   6.637   0.123  13.704  3.2048  0.6755 -1.0940
19053TIP3    H278651   6.608   0.115  13.555 -0.4748 -0.5228 -0.4329
19054TIP3   OH278652   4.485   4.937   4.982 -0.4193 -0.4410 -0.4531
19054TIP3    H178653   4.421   4.875   4.948 -1.2632 -0.2626  0.7851
19054TIP3    H278654   4.491   5.005   4.914 -1.5497 -0.4495 -0.5721
19055TIP3   OH278655   3.110   5.043   2.576  0.1654 -0.0901 -0.1268
19055TIP3    H178656   3.133   5.064   2.666  1.4821  0.1858 -0.5097
19055TIP3    H278657   3.077   4.953   2.580  2.1979 -0.8757  0.3577
19056TIP3   OH278658   4.881   1.174   3.926 -0.2383 -0.2592 -0.1679
19056TIP3    H178659   4.958   1.175   3.982 -0.0555  0.2604 -0.4222
19056TIP3    H278660   4.875   1.083   3.895 -0.3923 -0.5782  0.7486
19057TIP3   OH278661   2.573   2.548   6.477 -0.1518  0.6837  0.3423
19057TIP3    H178662   2.642   2.486   6.454 -0.0183  1.1287 -0.4934
19057TIP3    H278663   2.567   2.543   6.572 -0.0882 -0.5406  0.2991
19058TIP3   OH278664   1.015   1.108   4.077 -0.3093  0.0172  0.0293
19058TIP3    H178665   0.968   1.036   4.037  0.0106  0.8936 -2.0673
19058TIP3    H278666   0.962   1.186   4.057  0.3203  0.5973  0.5487
19059TIP3   OH278667   2.071   2.222  16.297 -0.0932 -0.9250 -0.2564
19059TIP3    H178668   2.045   2.238  16.207 -1.4373 -3.4088 -0.4082
19059TIP3    H278669   2.008   2.271  16.350 -0.0919 -0.4891 -0.6561
19060TIP3   OH278670   3.247   4.918  11.557 -0.0849  0.6710  0.4541
19060TIP3    H178671   3.183   4.927  11.628 -1.1919  0.6220 -0.5107
19060TIP3    H278672   3.196   4.930  11.477  1.0832  0.4195 -0.3533
19061TIP3   OH278673   2.846   4.526   3.679 -0.3945 -0.0514  0.3799
19061TIP3    H178674   2.915   4.519   3.745 -1.0552 -1.6234  0.9636
19061TIP3    H278675   2.869   4.604   3.629  0.9998  0.2893  1.4628
19062TIP3   OH278676   5.036   6.071  14.041 -0.3931  0.0749 -0.0763
19062TIP3    H178677   5.009   6.135  13.975  2.0639  1.7217  0.4052
19062TIP3    H278678   4.995   5.989  14.012 -0.9942  1.1375 -2.5444
19063TIP3   OH278679   4.243   0.992  14.160 -0.2277 -0.0067  0.4204
19063TIP3    H178680   4.272   0.973  14.071  2.0056  1.2309  0.8214
19063TIP3    H278681   4.303   0.942  14.216  0.3584  1.5986  1.2669
19064TIP3   OH278682   2.594   2.900   0.846 -0.1901  0.3703 -0.5319
19064TIP3    H178683   2.640   2.826   0.806 -0.9249  0.1801 -1.0405
19064TIP3    H278684   2.503   2.890   0.819 -0.1788  1.8862 -1.2797
19065TIP3   OH278685   2.122   6.679  13.620 -0.4235 -0.3545  0.2217
19065TIP3    H178686   2.088   6.738  13.687 -1.6989  0.0680 -0.7623
19065TIP3    H278687   2.217   6.685  13.629 -0.4688  2.2113 -0.0869
19066TIP3   OH278688   4.992   0.341   2.610  0.3795 -0.3916  0.1810
19066TIP3    H178689   4.924   0.284   2.646  2.1162 -2.3688  0.5538
19066TIP3    H278690   4.970   0.349   2.517 -1.3070  0.5216  0.6145
19067TIP3   OH278691   1.155   0.723  12.634 -0.3922  0.1968  0.2463
19067TIP3    H178692   1.249   0.727  12.653 -0.6255  0.0959  1.5274
19067TIP3    H278693   1.113   0.755  12.714 -1.5035 -1.6341  0.4685
19068TIP3   OH278694   6.262   2.477  10.974  0.4001  0.1081 -0.5924
19068TIP3    H178695   6.227   2.396  10.939 -0.1366  0.1628 -0.1957
19068TIP3    H278696   6.225   2.545  10.918 -3.4664  0.5538  2.0929
19069TIP3   OH278697   1.443   5.073  15.786 -0.4287  0.0044 -1.1032
19069TIP3    H178698   1.408   5.077  15.697  0.3355 -1.9063 -1.5433
19069TIP3    H278699   1.451   4.980  15.805 -0.4361  0.3665  0.9379
19070TIP3   OH278700   0.358   5.103   1.798 -0.4126 -0.4515 -0.2299
19070TIP3    H178701   0.275   5.054   1.805 -2.0085  1.7487 -2.2688
19070TIP3    H278702   0.339   5.188   1.839  1.2547 -0.3066  0.3038
19071TIP3   OH278703   2.575   0.438  15.933 -0.4858  0.3557 -0.5477
19071TIP3    H178704   2.589   0.496  15.858 -0.2963  0.3279 -0.5334
19071TIP3    H278705   2.491   0.395  15.915 -1.6150  2.0660  0.3685
19072TIP3   OH278706   5.482   3.195  12.602 -0.3249  0.2197  0.1505
19072TIP3    H178707   5.499   3.286  12.576  3.1095 -0.3214  0.0668
19072TIP3    H278708   5.433   3.158  12.528  0.3378  1.3897 -0.9213
19073TIP3   OH278709   4.442   5.465   4.792  0.1131 -0.0820 -0.0429
19073TIP3    H178710   4.465   5.427   4.877  2.6455 -0.2007 -0.6992
19073TIP3    H278711   4.357   5.425   4.770  1.5355 -3.7295  0.3143
19074TIP3   OH278712   5.192   0.951  17.110  0.0456 -0.1990 -0.5147
19074TIP3    H178713   5.231   1.032  17.077 -0.0242  0.1647  0.2734
19074TIP3    H278714   5.135   0.921  17.038  1.0101 -0.2229 -1.2927
19075TIP3   OH278715   2.227   3.373   3.535 -0.4959 -0.6751 -0.6890
19075TIP3    H178716   2.257   3.450   3.585  1.2239  0.0275 -2.6703
19075TIP3    H278717   2.276   3.300   3.573 -0.3185 -0.3936 -0.3625
19076TIP3   OH278718   3.793   5.033  10.564  0.1793 -0.3868  0.4856
19076TIP3    H178719   3.844   5.105  10.526  2.0210 -1.9165 -0.1640
19076TIP3    H278720   3.823   5.028  10.654  1.8429 -1.7153 -0.0712
19077TIP3   OH278721   1.922   6.068   4.021  0.3535 -0.4338 -0.1676
19077TIP3    H178722   1.998   6.108   3.977  0.2558  0.8324  0.7762
19077TIP3    H278723   1.914   5.982   3.980  1.1517  0.1410 -1.6082
19078TIP3   OH278724   2.449   5.535   1.293 -0.2424  0.0147 -0.3629
19078TIP3    H178725   2.419   5.519   1.383 -0.9967 -0.2814 -0.6678
19078TIP3    H278726   2.376   5.578   1.250  0.3142  0.6339 -0.6958
19079TIP3   OH278727   3.441   1.478   1.209 -0.6366 -0.2051  0.1266
19079TIP3    H178728   3.366   1.425   1.234 -0.3176 -0.4243  0.6443
19079TIP3    H278729   3.427   1.561   1.255  0.8309 -1.1999  2.5713
19080TIP3   OH278730   5.255   5.162  13.379  0.2839  0.0393  0.3118
19080TIP3    H178731   5.312   5.205  13.443  2.1720 -1.9611  0.0925
19080TIP3    H278732   5.255   5.221  13.304  1.5944  0.3965  0.5622
19081TIP3   OH278733   4.506   2.581   0.698  0.1275 -0.8511  0.0819
19081TIP3    H178734   4.443   2.508   0.695 -1.5285  0.2472  3.2972
19081TIP3    H278735   4.550   2.570   0.782  0.4430  1.3673  0.2528
19082TIP3   OH278736   3.793   2.712  15.812 -0.6404  0.2566 -0.2586
19082TIP3    H178737   3.720   2.694  15.871  0.9913  0.4648  1.9738
19082TIP3    H278738   3.793   2.807  15.803  1.3927  0.6910  2.7727
19083TIP3   OH278739   5.253   0.186   3.150 -0.1062  0.3291  0.3419
19083TIP3    H178740   5.319   0.249   3.121 -1.9923  1.5835 -1.4083
19083TIP3    H278741   5.219   0.148   3.069 -1.6152 -0.2083  1.1920
19084TIP3   OH278742   0.773   4.994  17.189  0.4128 -0.0065 -0.6603
19084TIP3    H178743   0.717   5.010  17.265  0.7804  0.2137 -0.4314
19084TIP3    H278744   0.763   5.073  17.136 -0.4053 -0.4576 -1.2058
19085TIP3   OH278745   3.328   0.697   6.375 -0.3556  0.5259 -1.5350
19085TIP3    H178746   3.398   0.695   6.440 -0.7933  2.6040 -0.9154
19085TIP3    H278747   3.267   0.629   6.402  1.5971 -1.7075 -2.3897
19086TIP3   OH278748   4.693   3.928  11.773  0.4383  0.3919  0.5400
19086TIP3    H178749   4.637   3.854  11.749 -1.3916  1.0282  2.5546
19086TIP3    H278750   4.665   3.999  11.715  0.8206  0.0817 -0.0399
19087TIP3   OH278751   1.152   1.683  12.009  0.1651 -0.6560  0.0182
19087TIP3    H178752   1.102   1.660  11.931  1.2176 -0.2780 -0.7941
19087TIP3    H278753   1.162   1.778  12.005  1.3502 -0.7676 -0.1080
19088TIP3   OH278754   4.563   5.582  15.148 -0.9165  0.1003 -0.3632
19088TIP3    H178755   4.601   5.667  15.129 -1.8252 -0.0184 -3.1308
19088TIP3    H278756   4.488   5.602  15.205 -0.3827  0.9903  0.0464
19089TIP3   OH278757   2.783   1.453   0.692  0.3643  0.2384  0.5813
19089TIP3    H178758   2.838   1.404   0.630  0.1559 -0.5488  1.0166
19089TIP3    H278759   2.712   1.393   0.715 -1.8645  1.8664 -1.4704
19090TIP3   OH278760   5.901   3.457  13.899 -0.1257 -0.3861 -0.1159
19090TIP3    H178761   5.874   3.388  13.838  1.6333  0.0931 -1.5278
19090TIP3    H278762   5.988   3.432  13.928  1.2255  1.8899 -1.8523
19091TIP3   OH278763   0.677   5.370  17.522 -0.0585  0.3814  0.0092
19091TIP3    H178764   0.731   5.400  17.449 -0.9125  1.5008 -0.1929
19091TIP3    H278765   0.638   5.288  17.491  1.5180 -0.4525  0.1719
19092TIP3   OH278766   1.290   4.242   4.414  0.2546  0.0460 -0.1454
19092TIP3    H178767   1.382   4.218   4.423  0.2775  0.2921  0.3204
19092TIP3    H278768   1.244   4.159   4.402  0.5506 -0.0674 -0.4853
19093TIP3   OH278769   4.621   1.805   2.490 -0.2029  0.4742 -0.0104
19093TIP3    H178770   4.710   1.803   2.526 -0.6692 -1.3206  1.1734
19093TIP3    H278771   4.580   1.880   2.534  0.6432  1.2118 -0.4325
19094TIP3   OH278772   1.981   0.936  16.783  0.5523 -0.3107  0.3419
19094TIP3    H178773   1.921   0.981  16.842  0.4724 -0.8395  0.6758
19094TIP3    H278774   1.925   0.880  16.729  0.7569 -1.0508  0.8730
19095TIP3   OH278775   0.084   0.860   1.495 -1.0772  0.1031 -0.6433
19095TIP3    H178776   0.035   0.888   1.417 -0.8190 -0.7350 -1.1189
19095TIP3    H278777   0.117   0.773   1.472 -0.9802 -0.1404  0.4039
19096TIP3   OH278778   1.315   1.341   0.677 -0.3084  0.1569  0.1632
19096TIP3    H178779   1.238   1.384   0.641  0.3329 -0.1855 -1.7673
19096TIP3    H278780   1.366   1.411   0.717 -2.2115  0.1926  2.7492
19097TIP3   OH278781   2.291   0.593  15.414  0.4191 -0.4594  0.0040
19097TIP3    H178782   2.353   0.551  15.474 -0.0261 -1.5665 -0.2705
19097TIP3    H278783   2.205   0.576  15.453  0.0319 -2.1809 -1.4547
19098TIP3   OH278784   6.370   0.076  16.208  0.1887  0.0630  0.0374
19098TIP3    H178785   6.412   0.054  16.125  0.7852 -2.0872  0.8433
19098TIP3    H278786   6.301   0.011  16.218  0.5682 -0.1447  1.5336
19099TIP3   OH278787   0.938   0.598   6.337  0.1823  0.8363 -0.1378
19099TIP3    H178788   0.970   0.509   6.324  1.3804  1.1083  0.8357
19099TIP3    H278789   1.000   0.653   6.290  0.6111  1.2911  0.9339
19100TIP3   OH278790   3.708   3.313  15.241 -0.2491 -0.1287  0.0811
19100TIP3    H178791   3.760   3.233  15.248 -1.7430 -1.4990 -2.6544
19100TIP3    H278792   3.637   3.290  15.180  0.2444  3.7735 -2.3061
19101TIP3   OH278793   6.763   0.319   4.251 -0.3795 -0.0927 -0.0200
19101TIP3    H178794   6.745   0.256   4.181 -4.8749  0.1866  0.5890
19101TIP3    H278795   6.755   0.267   4.332  0.0119  0.4901  0.3984
19102TIP3   OH278796   5.906   0.388   0.583 -0.2019 -0.0004 -0.5138
19102TIP3    H178797   5.913   0.402   0.488 -1.1816  0.7340 -0.5029
19102TIP3    H278798   5.944   0.302   0.598  0.7908  0.2532 -1.4501
19103TIP3   OH278799   4.163   2.614  13.886  0.3064  0.0474 -0.3062
19103TIP3    H178800   4.129   2.533  13.924  0.5683 -1.0608 -2.3239
19103TIP3    H278801   4.092   2.678  13.896 -0.5186 -0.8819 -0.1441
19104TIP3   OH278802   3.262   4.603   0.820  0.5140 -0.5155 -0.3698
19104TIP3    H178803   3.289   4.683   0.867  0.3845  0.1186 -1.3532
19104TIP3    H278804   3.343   4.569   0.783  0.5104 -0.6370 -0.2665
19105TIP3   OH278805   1.388   4.219  16.291  0.4647 -0.2254 -0.3173
19105TIP3    H178806   1.329   4.294  16.287 -0.2690 -0.7467  0.3435
19105TIP3    H278807   1.331   4.145  16.316  0.7147 -1.4852 -3.0794
19106TIP3   OH278808   5.249   1.572   0.980 -0.4331  0.4656 -0.5856
19106TIP3    H178809   5.215   1.567   0.891  0.5844 -0.5257 -0.9378
19106TIP3    H278810   5.178   1.537   1.034 -0.5515 -0.2140 -1.1559
19107TIP3   OH278811   6.579   4.011  11.434 -0.2334 -0.2020  0.0346
19107TIP3    H178812   6.638   4.085  11.418 -0.6987  0.2464  0.3995
19107TIP3    H278813   6.501   4.031  11.384 -0.9731  0.3160  1.3456
19108TIP3   OH278814   2.163   3.102  12.507  0.3488  0.0552 -0.3466
19108TIP3    H178815   2.179   3.195  12.523  0.6486  0.2844 -1.8162
19108TIP3    H278816   2.096   3.077  12.570  1.2016  0.9346  0.9520
19109TIP3   OH278817   2.378   4.456  11.860  0.5783 -0.4739  0.0396
19109TIP3    H178818   2.310   4.397  11.828  1.9176 -1.6951 -0.6278
19109TIP3    H278819   2.459   4.421  11.825  1.6593  0.5258  1.4348
19110TIP3   OH278820   6.764   3.121   0.079 -0.2330  0.0984 -0.1992
19110TIP3    H178821   6.763   3.142  -0.014 -1.1550  0.7586 -0.0466
19110TIP3    H278822   6.705   3.184   0.120 -0.9152 -1.0449  0.6533
19111TIP3   OH278823   1.281   3.567  12.956 -0.1809  0.2633  0.4298
19111TIP3    H178824   1.344   3.583  12.886  1.1188 -0.8108  1.2960
19111TIP3    H278825   1.309   3.626  13.026 -0.4643  0.1576  0.6310
19112TIP3   OH278826   6.345   4.046   2.473 -0.8063 -0.4135 -0.3024
19112TIP3    H178827   6.371   4.058   2.382 -2.4343  0.5114 -0.6738
19112TIP3    H278828   6.425   4.061   2.523 -0.7455  3.5450 -1.2947
19113TIP3   OH278829   5.037   6.347   4.197 -0.2573  0.4252  0.0615
19113TIP3    H178830   4.958   6.331   4.145 -0.5725  0.9704  0.3628
19113TIP3    H278831   5.036   6.441   4.213 -0.2929  0.2364  1.2505
19114TIP3   OH278832   2.761   1.954  15.534  0.7415 -0.5989  0.4955
19114TIP3    H178833   2.674   1.922  15.558 -0.2487  0.8104 -1.0543
19114TIP3    H278834   2.760   1.958  15.438  2.1397  0.4751  0.4974
19115TIP3   OH278835   6.187   3.827  12.443 -0.6426  0.2463  0.2649
19115TIP3    H178836   6.143   3.906  12.411 -2.3295 -0.7001  0.1353
19115TIP3    H278837   6.134   3.800  12.518 -0.8241 -1.4456 -0.4479
19116TIP3   OH278838   1.939   2.964  11.996 -0.2811 -0.4095  0.0990
19116TIP3    H178839   1.845   2.955  11.977 -0.2346 -0.7224  0.0154
19116TIP3    H278840   1.974   2.876  11.987  0.3942  0.0191 -1.8834
19117TIP3   OH278841   6.557   5.394   2.318  0.1627  0.0518  0.4322
19117TIP3    H178842   6.481   5.413   2.263  0.6721  0.2779 -0.2077
19117TIP3    H278843   6.549   5.301   2.340 -0.0346 -0.0451 -0.0533
19118TIP3   OH278844   6.150   5.435  11.558  0.8538 -0.4525 -0.0538
19118TIP3    H178845   6.138   5.381  11.480  0.3696 -0.1073 -0.2227
19118TIP3    H278846   6.194   5.514  11.526 -1.1825  0.6269 -0.3766
19119TIP3   OH278847   0.413   2.566   4.827  0.2867  0.8316  0.2902
19119TIP3    H178848   0.471   2.637   4.854  1.7775 -0.9456  2.0577
19119TIP3    H278849   0.397   2.516   4.907 -0.7121 -0.8422 -0.8905
19120TIP3   OH278850   1.142   0.452   5.635  0.0130 -0.6607  0.2897
19120TIP3    H178851   1.118   0.398   5.710 -1.2088 -0.1043  0.3271
19120TIP3    H278852   1.078   0.523   5.635  2.3309  1.6116  1.0606
19121TIP3   OH278853   5.854   5.969   0.581  0.7292 -0.1261  0.3188
19121TIP3    H178854   5.800   5.910   0.528  0.8947 -0.1449  0.1728
19121TIP3    H278855   5.927   5.915   0.610  0.3387 -0.2790  1.0542
19122TIP3   OH278856   5.471   6.566  11.415  0.0424  0.1652  0.2024
19122TIP3    H178857   5.445   6.527  11.332 -0.8210 -0.1834  0.6303
19122TIP3    H278858   5.561   6.595  11.400 -0.6020  1.5176 -1.3561
19123TIP3   OH278859   1.721   3.084  13.831 -0.5406  0.1232 -1.1634
19123TIP3    H178860   1.660   3.041  13.771 -1.5213  0.3148 -0.3404
19123TIP3    H278861   1.665   3.140  13.885 -0.1478 -2.1383  1.8584
19124TIP3   OH278862   0.959   0.263   5.496  0.0752  0.1140 -0.1867
19124TIP3    H178863   0.987   0.289   5.584 -1.0664  0.8287 -0.0020
19124TIP3    H278864   0.930   0.345   5.455  3.0727  0.3122 -2.2714
19125TIP3   OH278865   2.587   1.014   0.441  0.5060 -0.2766  0.4877
19125TIP3    H178866   2.613   0.941   0.384  1.5945  0.2620  0.2583
19125TIP3    H278867   2.501   1.040   0.409  0.9922 -0.1455 -0.7820
19126TIP3   OH278868   1.914   1.689   3.326  0.1641 -0.1058  0.4417
19126TIP3    H178869   1.876   1.606   3.355 -0.8069 -0.4625 -1.6500
19126TIP3    H278870   1.854   1.756   3.359  1.1373 -0.1524  2.4375
19127TIP3   OH278871   6.379   1.767  13.958 -0.3368 -0.1839 -0.1967
19127TIP3    H178872   6.325   1.755  13.880 -0.1838 -0.5986 -0.2413
19127TIP3    H278873   6.341   1.707  14.023  0.3321 -0.8088 -0.3644
19128TIP3   OH278874   2.033   6.676  12.421  0.5277  0.3079  0.2101
19128TIP3    H178875   1.996   6.764  12.431  0.0127  0.1290 -0.0675
19128TIP3    H278876   2.036   6.662  12.326 -0.4256 -0.3906  0.2691
19129TIP3   OH278877   2.234   3.167  14.248  0.6617 -0.0198  0.5530
19129TIP3    H178878   2.317   3.125  14.227  0.5980 -0.5668  1.3742
19129TIP3    H278879   2.196   3.113  14.317 -1.6076 -1.2981 -1.5620
19130TIP3   OH278880   4.656   4.777  14.238  0.5646 -0.5845 -0.0126
19130TIP3    H178881   4.720   4.819  14.295  0.1626 -0.4153  0.3235
19130TIP3    H278882   4.670   4.818  14.152  0.8963 -0.5415  0.0597
19131TIP3   OH278883   2.618   1.388  12.826  0.0894  0.2597  0.4952
19131TIP3    H178884   2.551   1.444  12.866  0.7536  0.2191  1.7132
19131TIP3    H278885   2.658   1.443  12.759 -0.7109  0.5042  0.2038
19132TIP3   OH278886   3.481   1.716   1.828 -0.0552  0.0471  0.1507
19132TIP3    H178887   3.492   1.790   1.768 -0.1065 -1.3161 -1.6306
19132TIP3    H278888   3.387   1.694   1.823  0.3576 -1.6817 -1.3778
19133TIP3   OH278889   2.819   1.767   0.751  0.5501 -0.2189  0.0579
19133TIP3    H178890   2.906   1.765   0.791 -0.3248  0.5893  2.1391
19133TIP3    H278891   2.791   1.675   0.752  0.7378 -0.2725  0.8833
19134TIP3   OH278892   4.385   1.741   1.691  0.0830  0.3550  0.1487
19134TIP3    H178893   4.377   1.646   1.682  3.7067  0.0036 -1.1755
19134TIP3    H278894   4.332   1.762   1.768 -0.6959 -2.7627  0.6034
19135TIP3   OH278895   3.185   4.518  11.539 -0.0624 -0.3208 -0.0772
19135TIP3    H178896   3.275   4.530  11.568 -0.7291 -2.8336  3.6842
19135TIP3    H278897   3.190   4.446  11.475  0.5294 -1.4876  1.2275
19136TIP3   OH278898   5.975   3.263  15.055  0.2095  1.0227 -0.3732
19136TIP3    H178899   5.946   3.172  15.050 -0.2674  1.1375  0.2219
19136TIP3    H278900   5.912   3.311  15.000 -0.5553  1.2253  0.6561
19137TIP3   OH278901   2.735   4.457   4.919  0.0223  0.3596  0.2927
19137TIP3    H178902   2.767   4.436   5.006 -2.9138  0.1889  1.4437
19137TIP3    H278903   2.731   4.552   4.917  1.6398  0.4457 -0.3263
19138TIP3   OH278904   4.755   0.642   2.799  0.0001  0.1929  0.2198
19138TIP3    H178905   4.777   0.610   2.712  2.1323  0.9482  0.4225
19138TIP3    H278906   4.667   0.608   2.816  0.9435 -3.0204 -0.7500
19139TIP3   OH278907   0.320   2.560   4.544 -0.6415 -0.5486 -0.0752
19139TIP3    H178908   0.385   2.579   4.475 -1.7029  0.3746 -0.8538
19139TIP3    H278909   0.364   2.585   4.625 -0.5668  1.7079 -0.7347
19140TIP3   OH278910   1.171   0.405   2.365  0.0279 -0.2749  0.0288
19140TIP3    H178911   1.134   0.440   2.446 -1.7521 -0.5135 -0.6467
19140TIP3    H278912   1.196   0.482   2.314 -0.3931 -0.0852  0.1080
19141TIP3   OH278913   3.287   6.455  17.093 -0.5339  0.1284  0.2459
19141TIP3    H178914   3.273   6.546  17.119  1.2756  0.1799  1.1951
19141TIP3    H278915   3.270   6.454  16.999 -0.0062  1.5722  0.1045
19142TIP3   OH278916   0.380   5.138  13.171 -0.0853 -0.0380 -0.1646
19142TIP3    H178917   0.452   5.192  13.138 -0.4998 -0.4292 -1.7900
19142TIP3    H278918   0.302   5.173  13.127 -1.0179  0.7365  1.9823
19143TIP3   OH278919   4.093   1.204   1.410  0.5792  0.1206 -0.0653
19143TIP3    H178920   4.087   1.296   1.387 -0.4107  0.5048  1.6271
19143TIP3    H278921   4.182   1.179   1.385  0.7106  1.4015 -0.9471
19144TIP3   OH278922   0.157   6.056   5.104  0.1413 -0.4906  0.3321
19144TIP3    H178923   0.209   6.007   5.167 -0.6666  0.1090  1.5037
19144TIP3    H278924   0.089   5.995   5.076  1.1093 -1.1015 -0.7998
19145TIP3   OH278925   2.256   1.815  12.393 -0.3689  0.1707 -0.2303
19145TIP3    H178926   2.346   1.841  12.410 -0.4484  0.3901 -0.1387
19145TIP3    H278927   2.242   1.836  12.301  0.0588 -1.0094 -0.5858
19146TIP3   OH278928   4.907   2.423   2.508  1.0745  0.6583 -0.3092
19146TIP3    H178929   4.925   2.374   2.588  0.7061  1.0490  0.0167
19146TIP3    H278930   4.827   2.472   2.527  0.0538 -0.4742 -1.4691
19147TIP3   OH278931   6.472   3.977  15.762  0.5537 -0.3596  0.2111
19147TIP3    H178932   6.408   3.907  15.755 -1.2331  1.1185  0.8164
19147TIP3    H278933   6.496   3.996  15.672 -0.9520 -0.0370 -0.1549
19148TIP3   OH278934   6.214   1.487   0.594  0.2271 -0.0937 -0.4735
19148TIP3    H178935   6.266   1.422   0.547  1.8131  1.2605 -0.7132
19148TIP3    H278936   6.234   1.472   0.686 -1.7390 -1.8091 -0.2792
19149TIP3   OH278937   1.827   6.131  17.379  0.4862 -0.1369 -0.1564
19149TIP3    H178938   1.890   6.152  17.448 -2.1620  0.6687  2.1725
19149TIP3    H278939   1.800   6.215  17.344 -1.1737 -0.2856  0.6990
19150TIP3   OH278940   2.850   6.588  14.118 -0.5910 -0.7150 -0.2347
19150TIP3    H178941   2.768   6.631  14.093 -0.1154  0.4603  0.1581
19150TIP3    H278942   2.841   6.499  14.084 -1.8404 -0.4808 -0.5929
19151TIP3   OH278943   3.471   0.498  16.583  0.2130  0.1059  0.4929
19151TIP3    H178944   3.426   0.574  16.620  1.3479  0.3910  1.3548
19151TIP3    H278945   3.521   0.462  16.656 -1.1137 -2.1372  0.3785
19152TIP3   OH278946   4.430   6.679   0.047  0.3365  0.8324  0.3146
19152TIP3    H178947   4.364   6.730   0.001  0.9198  0.2406 -1.2255
19152TIP3    H278948   4.508   6.735   0.050  0.5705  0.5353 -0.1997
19153TIP3   OH278949   0.934   4.704   2.776 -0.3468 -0.2220 -0.8310
19153TIP3    H178950   0.964   4.754   2.700 -1.3623  1.5569 -0.1151
19153TIP3    H278951   0.884   4.631   2.739  1.3253 -0.8819 -1.9080
19154TIP3   OH278952   5.439   4.135  17.447 -0.2778  0.2893 -0.0541
19154TIP3    H178953   5.435   4.050  17.491  1.7241  0.3605  0.3817
19154TIP3    H278954   5.383   4.192  17.500  0.0751 -0.2547  0.9412
19155TIP3   OH278955   5.131   1.543  14.381  0.2299 -0.3466 -0.6008
19155TIP3    H178956   5.197   1.612  14.373 -0.7676  0.9455  1.5097
19155TIP3    H278957   5.080   1.549  14.300  0.9963  0.4777 -1.0298
19156TIP3   OH278958   4.415   4.883  16.165 -0.1351 -0.2477 -0.0700
19156TIP3    H178959   4.406   4.828  16.243  0.8719 -1.3843 -0.7066
19156TIP3    H278960   4.330   4.877  16.121 -0.6617  0.2836  0.8401
19157TIP3   OH278961   5.305   2.370   5.313 -0.3165 -0.4996 -0.2880
19157TIP3    H178962   5.370   2.428   5.352 -1.8762  1.7723 -0.8860
19157TIP3    H278963   5.351   2.330   5.238  0.2887  1.4462 -1.0187
19158TIP3   OH278964   3.143   0.942  14.284  0.0309  0.1787  0.2860
19158TIP3    H178965   3.097   0.867  14.321 -2.5512  1.8301  0.6199
19158TIP3    H278966   3.136   1.011  14.350  0.0501  1.5205 -1.0508
19159TIP3   OH278967   2.496   5.581   6.824 -0.6299  0.7875  0.1428
19159TIP3    H178968   2.471   5.658   6.774  0.3351  1.2479  0.3513
19159TIP3    H278969   2.589   5.567   6.804 -1.1525 -1.2889 -1.1493
19160TIP3   OH278970   3.784   0.168  15.024  0.2229 -0.3625 -0.4082
19160TIP3    H178971   3.724   0.182  14.950 -0.2443 -1.8579 -0.3339
19160TIP3    H278972   3.833   0.090  15.000  0.0697 -0.8618  0.8768
19161TIP3   OH278973   1.985   5.548   5.464 -1.0815  0.5113  0.3414
19161TIP3    H178974   2.047   5.570   5.534 -0.4213 -0.2668  0.0122
19161TIP3    H278975   1.900   5.577   5.498 -0.5554  1.5985  0.7973
19162TIP3   OH278976   1.511   1.783   2.725 -0.6908 -0.3546  0.2544
19162TIP3    H178977   1.583   1.779   2.788  0.6351 -1.6556 -1.2346
19162TIP3    H278978   1.432   1.787   2.778  0.3771 -1.1372  1.9768
19163TIP3   OH278979   0.458   1.885   2.241  0.4622 -0.0707  0.0427
19163TIP3    H178980   0.370   1.867   2.274  0.6580 -1.2220 -0.0041
19163TIP3    H278981   0.516   1.836   2.299  0.8649 -1.4931 -1.4518
19164TIP3   OH278982   3.688   5.543  13.816  0.1538 -0.5639  0.3458
19164TIP3    H178983   3.701   5.454  13.784 -2.7488 -0.9106 -0.1307
19164TIP3    H278984   3.674   5.595  13.737 -0.4635 -0.1356  0.7298
19165TIP3   OH278985   6.533   2.976   1.483  0.5432  0.3826 -0.2833
19165TIP3    H178986   6.560   3.024   1.561  1.9375 -0.6792 -0.0746
19165TIP3    H278987   6.456   2.926   1.511  0.8329  0.2704  0.3342
19166TIP3   OH278988   4.831   5.048   2.566 -0.3352  0.1866  0.0179
19166TIP3    H178989   4.862   4.960   2.589  0.9166 -0.0147 -2.0576
19166TIP3    H278990   4.910   5.102   2.568 -1.2625  1.5566  2.2811
19167TIP3   OH278991   6.626   2.114  16.523  0.1892  0.0294  0.8492
19167TIP3    H178992   6.591   2.056  16.456 -1.5550  1.5889  0.3341
19167TIP3    H278993   6.695   2.163  16.479 -2.0000  2.1827 -0.3809
19168TIP3   OH278994   2.342   4.192  14.422 -0.6622 -0.2204  0.7635
19168TIP3    H178995   2.253   4.161  14.408 -0.8486 -0.2096  1.8476
19168TIP3    H278996   2.357   4.181  14.516  0.8799 -1.2878  0.4426
19169TIP3   OH278997   5.861   2.909  14.679 -0.7634  0.5344 -0.4388
19169TIP3    H178998   5.870   3.002  14.699  1.2789  0.3527 -0.3555
19169TIP3    H278999   5.944   2.884  14.638 -1.5988 -1.0635 -1.2687
19170TIP3   OH279000   4.624   3.771   5.145  0.2932  0.1020 -0.4951
19170TIP3    H179001   4.573   3.832   5.198  1.8737  1.2641 -0.2335
19170TIP3    H279002   4.566   3.696   5.133 -1.4943  1.3588 -0.2805
19171TIP3   OH279003   5.315   2.744   4.594 -0.0754  0.4173  0.3419
19171TIP3    H179004   5.403   2.708   4.608 -0.5313 -0.8752  0.0194
19171TIP3    H279005   5.287   2.772   4.682 -0.3356 -1.5808  0.9569
19172TIP3   OH279006   2.220   4.513   1.630 -0.2273  0.8177 -0.2823
19172TIP3    H179007   2.199   4.493   1.722  0.6240 -1.0205 -0.4585
19172TIP3    H279008   2.138   4.548   1.595 -0.6609  1.2534  1.0856
19173TIP3   OH279009   0.691   2.952  15.432 -0.3330  0.2268 -0.2463
19173TIP3    H179010   0.786   2.964  15.420 -0.2359 -0.1352  0.1325
19173TIP3    H279011   0.668   2.883  15.371 -0.2538 -0.0363  0.0139
19174TIP3   OH279012   4.144   6.288   2.936  0.4741 -0.3799 -0.2027
19174TIP3    H179013   4.177   6.199   2.926 -0.7146 -0.8213 -0.3420
19174TIP3    H279014   4.050   6.281   2.918  0.2224  0.7601  0.5762
19175TIP3   OH279015   5.223   1.595  17.446  0.4716 -0.1286 -0.0576
19175TIP3    H179016   5.207   1.661  17.513  1.4770  0.0646  0.0068
19175TIP3    H279017   5.189   1.514  17.483  0.8380  0.0144  0.6045
19176TIP3   OH279018   1.685   2.205   0.551  0.5656 -0.6079  0.4242
19176TIP3    H179019   1.727   2.208   0.465 -1.0451  0.8884 -0.3768
19176TIP3    H279020   1.594   2.181   0.532 -0.2996  1.6127  1.4482
19177TIP3   OH279021   5.109   5.120   2.835  0.1144  0.0523 -0.2846
19177TIP3    H179022   5.097   5.145   2.743  0.6645  2.5865  0.2787
19177TIP3    H279023   5.198   5.083   2.837 -0.0057 -0.2900 -0.7918
19178TIP3   OH279024   3.799   1.960  13.735  0.1703  0.4509  0.2220
19178TIP3    H179025   3.837   1.920  13.657 -0.4011  1.9898 -0.8913
19178TIP3    H279026   3.860   1.937  13.806  0.8084 -0.8004 -0.6927
19179TIP3   OH279027   1.322   1.816   4.291  0.0519 -0.3967 -0.1882
19179TIP3    H179028   1.321   1.723   4.314  1.4648 -1.3938 -3.4512
19179TIP3    H279029   1.397   1.851   4.338 -0.3669 -0.9513  0.9239
19180TIP3   OH279030   2.479   5.351  14.527  0.2478 -0.6279 -0.2076
19180TIP3    H179031   2.431   5.369  14.608 -0.8454 -2.6303 -0.3307
19180TIP3    H279032   2.412   5.355  14.459  1.3161  2.0015 -1.2529
19181TIP3   OH279033   0.237   2.832   4.820 -0.2370  0.1969  0.0198
19181TIP3    H179034   0.206   2.824   4.910  0.8116  0.3666  0.4147
19181TIP3    H279035   0.330   2.809   4.825  0.1825  1.6454 -0.7695
19182TIP3   OH279036   4.852   3.161  14.616  0.0259 -0.3829  0.5976
19182TIP3    H179037   4.804   3.221  14.559  1.5402  2.0458  1.7409
19182TIP3    H279038   4.798   3.156  14.695 -1.7101 -3.1876 -0.6183
19183TIP3   OH279039   2.224   4.614   4.080  1.1869  0.0390  0.2158
19183TIP3    H179040   2.212   4.566   4.162  3.1006 -1.4128 -0.2919
19183TIP3    H279041   2.318   4.609   4.063  0.8803  0.6636 -1.8860
19184TIP3   OH279042   0.620   4.295  11.741 -0.0717  0.1957  0.2728
19184TIP3    H179043   0.570   4.269  11.818 -0.1347  0.3958  0.2998
19184TIP3    H279044   0.581   4.244  11.669 -1.9797  2.1221 -0.1683
19185TIP3   OH279045   0.147   2.329  13.704 -0.1006 -0.4251  0.4425
19185TIP3    H179046   0.062   2.315  13.662  0.0660 -0.1534  0.0081
19185TIP3    H279047   0.149   2.265  13.775  1.0920 -3.4634 -2.0848
19186TIP3   OH279048   0.993   4.080   5.847 -0.0041  0.2677  0.1582
19186TIP3    H179049   0.921   4.041   5.897 -0.7228  1.2139 -0.1250
19186TIP3    H279050   0.951   4.124   5.774  0.9564 -0.0737 -0.6168
19187TIP3   OH279051   5.743   5.588  13.149 -0.0087  0.0152  0.0122
19187TIP3    H179052   5.792   5.669  13.140 -0.3355  0.4120  1.5376
19187TIP3    H279053   5.789   5.526  13.093  0.9510  0.9374 -0.2502
19188TIP3   OH279054   2.438   4.621   0.852 -0.1085 -0.7132 -0.0376
19188TIP3    H179055   2.474   4.688   0.794 -0.0706 -1.9599 -1.5508
19188TIP3    H279056   2.502   4.612   0.921 -0.3931  1.1830  0.5368
19189TIP3   OH279057   1.060   5.370  14.172  0.2017  0.0846 -0.5087
19189TIP3    H179058   1.142   5.395  14.215  0.9294  0.5550 -2.0866
19189TIP3    H279059   1.086   5.347  14.083 -1.1644 -1.4431 -0.5586
19190TIP3   OH279060   3.964   2.374   2.221  0.2586 -0.2961 -0.1878
19190TIP3    H179061   3.923   2.287   2.213 -0.6038 -0.0146  0.7836
19190TIP3    H279062   4.045   2.367   2.172  0.3645 -1.7668  0.1296
19191TIP3   OH279063   2.344   3.710   4.886 -0.4634 -0.2537  0.2733
19191TIP3    H179064   2.378   3.768   4.817 -0.9369 -2.1840 -1.6677
19191TIP3    H279065   2.419   3.657   4.912 -0.3126  0.3965  1.2116
19192TIP3   OH279066   1.183   2.550   3.082  0.3891  0.4387  0.7719
19192TIP3    H179067   1.216   2.511   3.001  1.8246  0.7673  1.1639
19192TIP3    H279068   1.214   2.492   3.151 -1.2820 -0.1392  1.0858
19193TIP3   OH279069   0.034   3.480  16.591 -0.4231  0.1112  0.0904
19193TIP3    H179070   0.020   3.459  16.684  2.2187  0.3144  0.5955
19193TIP3    H279071  -0.023   3.556  16.575 -1.4576 -0.3673  1.3236
19194TIP3   OH279072   0.959   0.639   4.996 -0.4577 -0.2044 -0.1736
19194TIP3    H179073   0.964   0.556   4.949  3.9716 -0.5013  0.3949
19194TIP3    H279074   0.978   0.617   5.087  2.7603  1.4222 -0.2998
19195TIP3   OH279075   0.939   1.117  15.485  0.0186  0.3026 -0.4122
19195TIP3    H179076   0.980   1.187  15.434  0.4823  0.4097  0.0932
19195TIP3    H279077   0.951   1.144  15.576 -2.4848  1.0658 -0.2457
19196TIP3   OH279078   3.299   0.605  10.750  0.1818 -0.3391  0.2935
19196TIP3    H179079   3.289   0.629  10.658  3.0029 -1.0705 -0.3129
19196TIP3    H279080   3.214   0.568  10.775 -0.4510 -0.7849 -2.2221
19197TIP3   OH279081   1.029   0.365  13.145 -0.1022 -0.0699  0.1909
19197TIP3    H179082   0.966   0.423  13.102  0.6691  0.3072 -0.4642
19197TIP3    H279083   1.114   0.388  13.106 -0.0192 -3.2670 -1.8664
19198TIP3   OH279084   3.273   3.130  14.522  0.6524  0.2293  0.1112
19198TIP3    H179085   3.220   3.052  14.533 -0.1959  0.9745  1.5353
19198TIP3    H279086   3.337   3.106  14.454 -0.9579 -0.9555 -1.0679
19199TIP3   OH279087   2.704   1.337  17.443  0.1096 -0.0073  0.0558
19199TIP3    H179088   2.610   1.318  17.440  0.3094 -0.9895 -1.9778
19199TIP3    H279089   2.745   1.252  17.428  1.2644  0.7073 -0.9960
19200TIP3   OH279090   4.406   0.544  11.895 -0.3793  0.3786 -0.2376
19200TIP3    H179091   4.468   0.474  11.918  0.5753  0.6698 -1.7683
19200TIP3    H279092   4.320   0.504  11.907  0.1012 -1.8444 -3.1157
19201TIP3   OH279093   1.879   4.986   4.320  0.0893  0.4736 -0.5318
19201TIP3    H179094   1.936   5.030   4.382  1.2985 -1.3951 -0.2353
19201TIP3    H279095   1.831   4.922   4.373  0.6249 -0.6606 -1.3851
19202TIP3   OH279096   2.101   1.526  16.392 -0.6779  0.1222  0.2141
19202TIP3    H179097   2.084   1.527  16.487 -1.3201  1.0643  0.1001
19202TIP3    H279098   2.196   1.523  16.385 -0.6407 -0.8195  0.8812
19203TIP3   OH279099   5.208   4.621   4.547  0.1439  0.3277  0.3619
19203TIP3    H179100   5.114   4.637   4.559  0.0344  0.6581 -0.8417
19203TIP3    H279101   5.237   4.587   4.632 -0.5060  2.7532  1.6709
19204TIP3   OH279102   1.701   3.647   1.655 -0.1515 -0.0070 -0.5015
19204TIP3    H179103   1.607   3.634   1.647 -0.2257  0.2164 -0.0531
19204TIP3    H279104   1.710   3.727   1.707  0.2989  0.6760 -1.6029
19205TIP3   OH279105   5.256   2.206   0.796 -0.3349 -0.0556  0.3580
19205TIP3    H179106   5.235   2.227   0.705 -1.8761 -3.0638 -0.1375
19205TIP3    H279107   5.350   2.193   0.798 -0.3241 -0.2705 -0.9344
19206TIP3   OH279108   4.705   1.395  11.220  0.3220 -0.3335  0.3189
19206TIP3    H179109   4.781   1.362  11.172  0.2814  1.3529 -1.0232
19206TIP3    H279110   4.687   1.480  11.180 -2.6031 -0.8929  0.2132
19207TIP3   OH279111   4.273   1.036   4.608  0.5388 -0.2179  0.7938
19207TIP3    H179112   4.257   1.087   4.687 -1.5805 -0.6515  0.6826
19207TIP3    H279113   4.283   0.946   4.639 -1.3346 -0.5549  0.5324
19208TIP3   OH279114   6.271   3.506  14.743  0.2325 -0.4967 -0.6012
19208TIP3    H179115   6.345   3.567  14.744  1.2978 -1.6931 -1.7568
19208TIP3    H279116   6.244   3.503  14.652 -2.6552  1.4503  0.0601
19209TIP3   OH279117   5.325   5.510   6.225  0.5345  0.3906  0.0052
19209TIP3    H179118   5.396   5.509   6.288  0.8225  1.8310 -0.2662
19209TIP3    H279119   5.273   5.586   6.249  0.1382  0.4291 -0.9460
19210TIP3   OH279120   0.791   0.720   6.018 -0.1402  1.1309 -0.1059
19210TIP3    H179121   0.738   0.735   6.096 -0.3775  0.6470 -0.1689
19210TIP3    H279122   0.774   0.795   5.961 -2.9769 -0.3080 -1.3666
19211TIP3   OH279123   6.684   4.681   4.772 -0.4902 -0.3731  0.2279
19211TIP3    H179124   6.706   4.649   4.684  1.1203 -0.6128  0.6774
19211TIP3    H279125   6.685   4.776   4.765 -0.8039 -0.3967 -0.1161
19212TIP3   OH279126   3.480   5.912  12.428  0.6897 -0.7592  0.3387
19212TIP3    H179127   3.527   5.921  12.346 -1.5344  0.2096 -0.9240
19212TIP3    H279128   3.519   5.977  12.486 -0.6961  1.8896 -1.5197
19213TIP3   OH279129   3.916   6.759  14.881  0.0391 -0.1478  0.5928
19213TIP3    H179130   3.897   6.746  14.788  2.3945  0.0038  0.0206
19213TIP3    H279131   3.984   6.695  14.900 -0.8046 -0.5484  2.3853
19214TIP3   OH279132   3.030   1.527   5.215 -0.3149 -0.1250  0.0393
19214TIP3    H179133   3.052   1.619   5.202 -1.6506  0.6438  2.4951
19214TIP3    H279134   2.979   1.503   5.138 -1.2374  1.6847  0.0354
19215TIP3   OH279135   1.638   0.707  11.649  0.4033  0.3283 -0.3987
19215TIP3    H179136   1.670   0.714  11.559  0.1194  2.3879 -0.3912
19215TIP3    H279137   1.637   0.798  11.680  0.0517 -0.3089  1.5265
19216TIP3   OH279138   1.784   3.943   5.192 -0.0311  0.0003 -0.1548
19216TIP3    H179139   1.879   3.933   5.184 -0.2287 -1.6976 -0.7219
19216TIP3    H279140   1.756   3.973   5.106  0.0514  1.3748  0.2644
19217TIP3   OH279141   4.090   1.008  12.419  0.3721 -0.4204  0.0411
19217TIP3    H179142   4.115   1.046  12.504 -2.1400 -1.2397  1.2580
19217TIP3    H279143   4.027   1.070  12.383  2.2502  0.4880 -1.8507
19218TIP3   OH279144   5.423   5.642   0.048 -0.2642  0.7147  0.5634
19218TIP3    H179145   5.408   5.547   0.054 -2.0810  1.0208  1.3969
19218TIP3    H279146   5.350   5.675  -0.005 -0.8898  1.8929  2.0753
19219TIP3   OH279147   5.174   1.683  15.267  0.0404  1.0706 -0.0785
19219TIP3    H179148   5.090   1.711  15.230 -1.9559 -0.9796  2.5109
19219TIP3    H279149   5.219   1.641  15.194 -1.3050  1.9345 -1.4732
19220TIP3   OH279150   6.198   1.995   0.758 -0.4752  0.0573 -0.3506
19220TIP3    H179151   6.255   1.927   0.724 -0.9088  0.0880 -1.1811
19220TIP3    H279152   6.113   1.978   0.717 -0.1927  2.0889 -1.9854
19221TIP3   OH279153   4.446   3.967  12.430 -0.7701 -0.0089 -0.4849
19221TIP3    H179154   4.385   4.040  12.440  0.3300  0.9922 -0.8556
19221TIP3    H279155   4.484   3.956  12.517  0.7471  1.4172 -0.9276
19222TIP3   OH279156   4.329   3.393  13.700  0.1513 -0.4091  0.0498
19222TIP3    H179157   4.238   3.423  13.694  0.6705  1.5574  1.2002
19222TIP3    H279158   4.381   3.467  13.671  1.5396  0.1453  3.4786
19223TIP3   OH279159   4.223   1.152   4.885  0.0697  0.2514  0.1764
19223TIP3    H179160   4.176   1.232   4.862  0.5482  0.5037  0.0739
19223TIP3    H279161   4.154   1.085   4.891 -0.2779  0.5711 -0.1778
19224TIP3   OH279162   3.186   6.187   5.538  0.4236 -0.1801 -0.5818
19224TIP3    H179163   3.255   6.135   5.497 -0.5197 -0.5350 -1.7992
19224TIP3    H279164   3.106   6.139   5.519 -0.0873 -0.3261  1.6945
19225TIP3   OH279165   4.879   4.096   2.252  0.1305  0.4093  0.4127
19225TIP3    H179166   4.927   4.030   2.202  0.7623  1.6170 -0.6565
19225TIP3    H279167   4.818   4.046   2.307  0.0539 -1.0222 -0.9055
19226TIP3   OH279168   6.463   6.570  15.412  0.1049 -0.8251 -0.0997
19226TIP3    H179169   6.419   6.517  15.479 -1.6649  0.0269 -0.5428
19226TIP3    H279170   6.509   6.505  15.357 -0.8349 -1.7878  0.2131
19227TIP3   OH279171   0.648   3.025  10.908  0.0939  0.0615  0.3848
19227TIP3    H179172   0.611   3.001  10.824 -3.0990 -0.0943  1.7117
19227TIP3    H279173   0.687   3.111  10.893  0.2361 -0.2694 -1.3668
19228TIP3   OH279174   4.811   6.215  13.628  0.2866  0.9537 -0.1687
19228TIP3    H179175   4.783   6.253  13.544 -0.5332  1.7182  0.4348
19228TIP3    H279176   4.906   6.203  13.618  0.0424 -0.1048 -1.6427
19229TIP3   OH279177   0.069   3.751   1.709  0.3970  0.6634 -0.6677
19229TIP3    H179178  -0.013   3.714   1.675  0.2975 -0.0835  0.3420
19229TIP3    H279179   0.106   3.798   1.634 -1.5801  2.1303 -0.8170
19230TIP3   OH279180   1.899   3.959  16.655 -0.0469 -0.1553 -0.7198
19230TIP3    H179181   1.988   3.935  16.683  0.4794  0.0303 -2.1459
19230TIP3    H279182   1.847   3.880  16.672  0.6225 -0.6362 -0.8311
19231TIP3   OH279183   2.051   6.584   3.582  0.3787 -0.5095 -0.0204
19231TIP3    H179184   2.003   6.501   3.580 -0.0800 -0.3418  2.1287
19231TIP3    H279185   1.996   6.642   3.634  1.1417  0.8889 -0.7176
19232TIP3   OH279186   2.811   6.169  12.130  0.1086 -0.3812  0.3480
19232TIP3    H179187   2.857   6.233  12.075  1.1467 -1.4822 -0.1178
19232TIP3    H279188   2.881   6.118  12.170 -0.6408 -3.0800 -1.5368
19233TIP3   OH279189   6.453   4.719  17.013  0.1445 -0.4741  0.0519
19233TIP3    H179190   6.518   4.770  17.061  0.1449 -0.0474 -0.3949
19233TIP3    H279191   6.430   4.774  16.938 -1.8242  0.0661  0.9722
19234TIP3   OH279192   1.192   5.206  17.032  0.1660  0.2631 -0.3337
19234TIP3    H179193   1.161   5.256  16.957 -0.3223  0.1023 -0.2482
19234TIP3    H279194   1.258   5.147  16.997  0.9751  1.1849 -0.3819
19235TIP3   OH279195   1.369   4.002  16.911 -0.5337 -0.7104  0.2764
19235TIP3    H179196   1.407   4.064  16.848 -0.8686  0.0341  0.7910
19235TIP3    H279197   1.302   4.052  16.957  0.3149 -0.9575  1.8729
19236TIP3   OH279198   0.518   2.937   0.007 -0.6365  0.5092  0.3181
19236TIP3    H179199   0.529   3.007  -0.058  0.1550  0.8648  0.8284
19236TIP3    H279200   0.602   2.932   0.051 -0.3996 -1.3625 -0.2754
19237TIP3   OH279201   3.722   6.588   3.373 -0.2685  0.0739 -0.4988
19237TIP3    H179202   3.698   6.505   3.414 -2.4017  0.4455 -0.8726
19237TIP3    H279203   3.735   6.648   3.446  0.5187 -0.3962 -0.2483
19238TIP3   OH279204   0.463   6.282  12.452 -0.7010  0.4252  0.4684
19238TIP3    H179205   0.500   6.363  12.417 -2.0942  0.9771  0.1746
19238TIP3    H279206   0.531   6.216  12.440  0.6293  1.6465  1.1217
19239TIP3   OH279207   6.745   2.141  13.454  0.4566  0.2409 -0.3328
19239TIP3    H179208   6.725   2.083  13.527  0.6358  0.5146 -0.0654
19239TIP3    H279209   6.713   2.227  13.482  3.5816  1.1311  0.8882
19240TIP3   OH279210   4.821   0.229  16.908  0.0226 -0.3164 -1.1553
19240TIP3    H179211   4.904   0.191  16.878 -0.1793 -0.2674 -1.7916
19240TIP3    H279212   4.827   0.228  17.004  1.8007  1.9341 -1.1745
19241TIP3   OH279213   0.066   0.811   5.179  0.5634  0.7401  0.3085
19241TIP3    H179214   0.124   0.857   5.119 -0.4398 -1.1522 -2.3306
19241TIP3    H279215   0.008   0.760   5.122  0.2183 -2.0901  2.8995
19242TIP3   OH279216   6.059   5.810  17.244 -0.7292 -0.1358  0.3934
19242TIP3    H179217   6.076   5.835  17.154 -3.4272 -0.8040 -0.3973
19242TIP3    H279218   6.073   5.890  17.295  1.4158  0.0999 -0.4441
19243TIP3   OH279219   2.914   0.068   6.423 -0.1947 -0.0176 -0.1649
19243TIP3    H179220   3.002   0.035   6.404 -0.5945 -1.0134 -0.3637
19243TIP3    H279221   2.927   0.139   6.486  0.7181 -0.3844  0.0623
19244TIP3   OH279222   2.772   1.616   2.852  0.1082  0.3410 -0.3345
19244TIP3    H179223   2.676   1.613   2.855  0.1224 -2.0449  0.1306
19244TIP3    H279224   2.795   1.547   2.789  1.5438 -0.2740  0.8280
19245TIP3   OH279225   1.538   4.012  10.582 -0.4822  0.1004  0.0177
19245TIP3    H179226   1.495   3.973  10.506 -0.4564  0.0680  0.0198
19245TIP3    H279227   1.631   3.996  10.568 -0.2713  2.0294 -1.0245
19246TIP3   OH279228   0.493   5.142   0.976  0.0148  0.0129  0.1555
19246TIP3    H179229   0.588   5.140   0.989  0.1961  0.2414 -1.0162
19246TIP3    H279230   0.478   5.219   0.922 -0.7505 -0.4551 -0.3231
19247TIP3   OH279231   3.711   1.348   0.651  0.2859  0.3803 -0.5353
19247TIP3    H179232   3.702   1.402   0.573 -1.5278 -0.9051 -1.3086
19247TIP3    H279233   3.642   1.380   0.710  0.6895  0.3868 -0.0592
19248TIP3   OH279234   1.376   4.058   0.384 -0.4273  0.2525  0.0731
19248TIP3    H179235   1.353   4.062   0.291 -1.1411 -0.6720  0.1925
19248TIP3    H279236   1.472   4.051   0.385 -0.4239  0.1065 -0.6057
19249TIP3   OH279237   4.728   1.707  17.518  0.0394  0.4168  0.4246
19249TIP3    H179238   4.685   1.729  17.600  1.9615 -0.3372  1.7114
19249TIP3    H279239   4.806   1.658  17.544  1.2000  0.9285 -1.8112
19250TIP3   OH279240   3.055   5.101  13.611  0.6977 -0.0311 -0.4091
19250TIP3    H179241   3.057   5.115  13.516 -4.1551  2.6233 -0.4249
19250TIP3    H279242   2.978   5.046  13.625  1.2322 -0.2666  2.0593
19251TIP3   OH279243   0.191   4.251   3.820  0.3149  0.1535 -0.3757
19251TIP3    H179244   0.109   4.291   3.851 -0.6835  0.8595 -3.4758
19251TIP3    H279245   0.165   4.163   3.792  1.8503 -1.7311  3.4311
19252TIP3   OH279246   1.440   5.941  15.336 -0.0094  0.5631 -0.4522
19252TIP3    H179247   1.496   5.887  15.280  0.1958  0.4809 -0.1705
19252TIP3    H279248   1.379   5.983  15.276 -0.9864 -0.9416 -0.5446
19253TIP3   OH279249   6.572   2.058   1.162 -0.2196  0.8092 -0.6597
19253TIP3    H179250   6.548   2.085   1.250  2.8232 -0.5679  0.7383
19253TIP3    H279251   6.633   2.126   1.131  0.5701  0.0970 -0.7053
19254TIP3   OH279252   0.084   0.988   5.596  0.2689 -0.8794 -0.4980
19254TIP3    H179253   0.005   1.038   5.578 -0.6935 -1.6616  1.2871
19254TIP3    H279254   0.116   1.021   5.680  0.1193 -2.5724  0.2776
19255TIP3   OH279255   2.000   4.899   2.156 -0.3657  0.0533  0.1233
19255TIP3    H179256   1.966   4.972   2.105 -1.1345 -0.4781 -0.1363
19255TIP3    H279257   1.926   4.870   2.209  0.2793  0.2804  1.1958
19256TIP3   OH279258   3.503   3.636  11.461  0.9962 -0.4813 -0.4881
19256TIP3    H179259   3.532   3.698  11.395 -1.1060 -0.6716 -1.6607
19256TIP3    H279260   3.476   3.690  11.536  0.3663 -0.0338 -1.0286
19257TIP3   OH279261   1.417   3.828   1.403  0.0067  0.6531 -0.5368
19257TIP3    H179262   1.450   3.917   1.396 -0.3145  1.0523  1.9273
19257TIP3    H279263   1.322   3.837   1.395 -0.1098  0.7083  0.7350
19258TIP3   OH279264   2.200   6.721   2.030  0.0876 -0.0065  0.2196
19258TIP3    H179265   2.203   6.793   2.093  1.1245  1.2332 -1.1585
19258TIP3    H279266   2.237   6.647   2.077  1.3786  1.0252  0.9265
19259TIP3   OH279267   0.397   2.183  13.678 -0.2493  0.0115 -0.1305
19259TIP3    H179268   0.387   2.116  13.611  0.0652 -0.5098  0.3322
19259TIP3    H279269   0.313   2.228  13.681 -0.8922 -1.1857  0.4202
19260TIP3   OH279270   3.374   0.212   4.536  0.1058 -0.2851 -0.6100
19260TIP3    H179271   3.443   0.278   4.540 -1.8554  1.9226 -1.0768
19260TIP3    H279272   3.371   0.175   4.624  2.3869 -1.0899 -0.7864
19261TIP3   OH279273   4.696   1.704  15.466 -0.1268  0.3528  0.1720
19261TIP3    H179274   4.661   1.617  15.483  1.5473 -0.3941 -0.0257
19261TIP3    H279275   4.640   1.739  15.396 -0.6230 -0.6754  0.0309
19262TIP3   OH279276   5.533   1.854   0.489  0.2414  0.7588  0.0784
19262TIP3    H179277   5.506   1.806   0.411  1.5211  2.1154 -1.2409
19262TIP3    H279278   5.502   1.800   0.562 -0.9902 -0.5344 -1.3427
19263TIP3   OH279279   6.753   4.091  14.520 -0.4095  0.2449 -0.6737
19263TIP3    H179280   6.721   4.034  14.450  1.7867  0.0410 -1.5776
19263TIP3    H279281   6.832   4.132  14.485  0.2468  0.8582  1.3409
19264TIP3   OH279282   5.030   4.662   2.543  0.4662  0.1078 -0.5526
19264TIP3    H179283   5.057   4.597   2.477 -0.0583  0.1689 -0.8408
19264TIP3    H279284   5.062   4.746   2.508  0.2213  0.1354 -0.7137
19265TIP3   OH279285   3.071   2.550   5.808  0.0482  0.0060 -0.1532
19265TIP3    H179286   3.119   2.495   5.870 -1.9212 -0.6652  0.8616
19265TIP3    H279287   3.092   2.513   5.722  1.4568 -0.1442  0.2255
19266TIP3   OH279288   2.467   2.187   6.533  0.9798 -0.1594  0.3577
19266TIP3    H179289   2.373   2.201   6.546  1.1194  1.9466 -0.5913
19266TIP3    H279290   2.508   2.262   6.575  2.2173 -0.7207  0.1726
19267TIP3   OH279291   1.686   1.298  16.202  0.3027  0.4774  0.1157
19267TIP3    H179292   1.734   1.380  16.191  1.9962 -0.5405 -0.4307
19267TIP3    H279293   1.688   1.257  16.115  0.7141 -0.7850  0.7030
19268TIP3   OH279294   5.795   1.780  11.843 -0.3452 -0.5309 -0.7021
19268TIP3    H179295   5.789   1.734  11.759 -0.0068 -2.7508  0.4135
19268TIP3    H279296   5.710   1.765  11.884  0.6701 -2.6152  0.8147
19269TIP3   OH279297   3.366   3.330   6.179  0.4841 -0.1022  0.0869
19269TIP3    H179298   3.338   3.369   6.262  0.0159 -0.5395  0.1362
19269TIP3    H279299   3.306   3.366   6.114  0.4447 -0.2589  0.0372
19270TIP3   OH279300   3.139   3.019   0.423  0.0210 -0.3258 -0.5109
19270TIP3    H179301   3.166   2.969   0.500  1.4743 -0.2739 -0.9431
19270TIP3    H279302   3.049   2.992   0.406 -0.8173  0.6688  1.9708
19271TIP3   OH279303   2.112   0.489  16.608 -0.3696 -0.2784  0.0349
19271TIP3    H179304   2.129   0.564  16.665 -5.0458  3.2109 -2.4153
19271TIP3    H279305   2.133   0.522  16.520 -0.4959 -2.6978 -0.9587
19272TIP3   OH279306   2.303   2.182   1.693 -0.0809  0.0928  0.6998
19272TIP3    H179307   2.368   2.198   1.626  0.9044  1.6446  1.9725
19272TIP3    H279308   2.255   2.104   1.662 -0.0988  1.1052 -2.0558
19273TIP3   OH279309   5.988   1.611  12.714  0.5347 -0.2192 -0.1930
19273TIP3    H179310   5.935   1.563  12.650 -1.8963  1.1410  0.6853
19273TIP3    H279311   5.988   1.556  12.792 -0.1847  0.0994  0.0323
19274TIP3   OH279312   5.486   0.519   0.674  0.3038 -0.3570 -0.1979
19274TIP3    H179313   5.508   0.491   0.762  1.3890 -2.8480 -1.1694
19274TIP3    H279314   5.390   0.522   0.673  0.2879  0.9896  1.3692
19275TIP3   OH279315   4.728   4.266  17.181 -0.0414 -0.2541  0.0422
19275TIP3    H179316   4.778   4.285  17.260  0.1245  0.4182 -0.2195
19275TIP3    H279317   4.790   4.280  17.109 -1.0031  2.2013 -0.4013
19276TIP3   OH279318   2.865   5.153  12.353 -0.4878  0.0635  0.2059
19276TIP3    H179319   2.888   5.204  12.275  0.8785  1.4600  1.4569
19276TIP3    H279320   2.833   5.070  12.319  1.1969  0.1733 -1.8342
19277TIP3   OH279321   4.690   4.355  12.036 -0.6495  0.0775 -0.3478
19277TIP3    H179322   4.640   4.314  11.965  0.5705 -0.6502 -0.8259
19277TIP3    H279323   4.720   4.281  12.089  0.8490  0.3940 -0.7233
19278TIP3   OH279324   5.311   3.655  14.587  0.6099  0.1185  0.4194
19278TIP3    H179325   5.321   3.698  14.671  1.0168  0.3204  0.2709
19278TIP3    H279326   5.357   3.711  14.525  0.4444 -0.1053  0.0869
19279TIP3   OH279327   5.857   5.819  16.382  0.1845  0.6249 -0.3404
19279TIP3    H179328   5.798   5.861  16.319  1.1218 -0.7810 -2.2821
19279TIP3    H279329   5.805   5.749  16.421 -0.0624  0.7425 -0.4574
19280TIP3   OH279330   6.105   4.260   5.929  0.0078  0.2847  0.1464
19280TIP3    H179331   6.178   4.310   5.891  0.4432 -1.2372 -1.1434
19280TIP3    H279332   6.057   4.323   5.982  1.5692  1.6187  0.0368
19281TIP3   OH279333   2.745   4.061   3.857 -0.5090  0.3202  0.1567
19281TIP3    H179334   2.678   4.116   3.898 -1.1016 -0.5323  0.3454
19281TIP3    H279335   2.723   4.062   3.764 -0.2787  0.7234  0.1039
19282TIP3   OH279336   4.504   3.973  16.625 -0.1635  0.6041 -0.0970
19282TIP3    H179337   4.454   4.036  16.573 -1.3141 -0.5956 -0.5046
19282TIP3    H279338   4.450   3.958  16.702  0.4092  0.5729  0.3052
19283TIP3   OH279339   6.281   6.349   5.081 -0.3941 -0.5134 -0.2742
19283TIP3    H179340   6.233   6.297   5.146  0.6748  0.2723  1.2130
19283TIP3    H279341   6.299   6.288   5.010 -0.9042 -1.6446  0.5340
19284TIP3   OH279342   5.521   5.445  14.473  0.2192  0.0175  0.1800
19284TIP3    H179343   5.456   5.374  14.475  0.1816  0.0734  1.8033
19284TIP3    H279344   5.510   5.490  14.556  1.8130  0.5271  0.1441
19285TIP3   OH279345   0.791   1.880   1.494 -0.5049 -0.7567  0.1676
19285TIP3    H179346   0.834   1.925   1.567  0.4277 -0.1773 -0.7115
19285TIP3    H279347   0.815   1.788   1.505 -0.9055 -0.7697  0.9529
19286TIP3   OH279348   5.153   5.221   2.349 -0.0946  0.3095  0.2382
19286TIP3    H179349   5.187   5.132   2.361  0.2050  0.2349 -1.0021
19286TIP3    H279350   5.103   5.216   2.267  0.2538  1.3758 -0.0533
19287TIP3   OH279351   2.035   4.685  16.235 -0.0980 -0.2871  0.2947
19287TIP3    H179352   2.108   4.628  16.261 -0.8491 -1.0056  0.8970
19287TIP3    H279353   2.076   4.756  16.187  1.0332 -0.5512  0.8276
19288TIP3   OH279354   0.003   4.062   4.062  0.0316  0.0285  0.2076
19288TIP3    H179355  -0.055   4.117   4.009 -1.1117 -0.2999  1.0649
19288TIP3    H279356   0.057   4.016   3.998 -1.0538 -0.0779 -0.6743
19289TIP3   OH279357   1.189   4.665   5.953  0.7432 -0.7249 -0.0925
19289TIP3    H179358   1.251   4.630   6.017  0.1869  0.0689  0.9119
19289TIP3    H279359   1.205   4.614   5.874  3.7298  0.4635 -0.3787
19290TIP3   OH279360   6.512   2.517   4.469  0.2290  0.6726  0.7212
19290TIP3    H179361   6.587   2.577   4.465 -0.3966  1.4351 -0.1677
19290TIP3    H279362   6.450   2.561   4.527 -0.4772  1.1914 -0.4093
19291TIP3   OH279363   2.027   0.450  16.913 -0.7830 -0.2581 -0.3154
19291TIP3    H179364   1.968   0.522  16.933 -0.9322 -0.5363  0.2510
19291TIP3    H279365   2.058   0.469  16.824  1.1586  1.8798  0.6950
19292TIP3   OH279366   0.806   6.189  15.792 -0.6969 -0.1735 -0.2733
19292TIP3    H179367   0.734   6.177  15.854 -0.2840 -0.6451  0.1193
19292TIP3    H279368   0.862   6.113  15.804  0.3140  0.5984  0.0218
19293TIP3   OH279369   3.552   0.939  13.674 -0.2109  0.0290 -0.3873
19293TIP3    H179370   3.559   1.034  13.683 -2.7004  0.2292  0.1697
19293TIP3    H279371   3.497   0.926  13.596  1.6163 -1.0461 -1.5644
19294TIP3   OH279372   3.250   4.525   2.227 -0.5670  0.6496 -0.2734
19294TIP3    H179373   3.261   4.441   2.272  1.0055  0.2684 -1.2923
19294TIP3    H279374   3.157   4.529   2.207 -0.8021 -0.4915  0.4667
19295TIP3   OH279375   3.832   2.170   6.132  0.2193 -0.5309 -0.3402
19295TIP3    H179376   3.890   2.215   6.071 -0.1205 -2.0875 -1.9213
19295TIP3    H279377   3.883   2.095   6.163  0.1438 -0.1360  0.7745
19296TIP3   OH279378   0.949   0.979  13.816 -0.4206  0.5938  0.1251
19296TIP3    H179379   0.893   1.008  13.889  1.5139 -0.5450  2.1860
19296TIP3    H279380   0.998   1.058  13.791 -0.1870  0.7195  0.9523
19297TIP3   OH279381   1.640   5.285  16.599  0.0855  0.1198  0.3367
19297TIP3    H179382   1.615   5.372  16.568 -2.3108 -0.9041 -0.9116
19297TIP3    H279383   1.622   5.287  16.693  0.4156  1.0790  0.3836
19298TIP3   OH279384   3.889   0.302  14.533  0.1216  0.4227  0.3327
19298TIP3    H179385   3.954   0.372  14.531 -0.6805  1.1835  0.4234
19298TIP3    H279386   3.805   0.347  14.539 -0.5704 -0.4525 -1.7255
19299TIP3   OH279387   4.201   5.972   2.902  0.4992  0.6825 -0.0828
19299TIP3    H179388   4.155   5.908   2.957 -0.2244 -1.4613 -2.9005
19299TIP3    H279389   4.294   5.954   2.918  0.3243  0.8921  1.2458
19300TIP3   OH279390   0.550   2.147  11.244  0.7378  0.0830 -0.4437
19300TIP3    H179391   0.568   2.068  11.194 -0.9459 -0.8466  0.3622
19300TIP3    H279392   0.480   2.191  11.196  1.6110  1.0982 -0.8473
19301TIP3   OH279393   5.239   6.664  17.337 -0.1370  0.5841  0.4072
19301TIP3    H179394   5.276   6.690  17.252  0.8072  0.1914  0.6873
19301TIP3    H279395   5.243   6.743  17.390 -1.9236  1.1878 -0.2903
19302TIP3   OH279396   1.087   4.297   0.139  0.5842 -0.1833 -0.1540
19302TIP3    H179397   1.117   4.315   0.050  0.2573  0.5237 -0.1294
19302TIP3    H279398   1.167   4.300   0.192  0.6438  0.5117 -0.2641
19303TIP3   OH279399   3.293   3.327  11.526 -0.2372 -0.2254 -0.2096
19303TIP3    H179400   3.232   3.254  11.514  0.3413 -0.4081 -2.3092
19303TIP3    H279401   3.264   3.394  11.464  0.5244  0.4723  0.1698
19304TIP3   OH279402   0.364   4.070   2.119 -0.2978  0.4637  0.3623
19304TIP3    H179403   0.305   4.038   2.051  1.8486  0.3288 -1.5433
19304TIP3    H279404   0.322   4.149   2.152 -0.9984  1.0397 -1.7686
19305TIP3   OH279405   5.906   5.403   4.095  0.3167  0.0769  0.0271
19305TIP3    H179406   5.933   5.485   4.052 -0.4765  1.0812  1.3793
19305TIP3    H279407   5.983   5.375   4.144  0.4095  0.3313  0.0296
19306TIP3   OH279408   4.422   4.372   0.957  0.1157  0.5134  0.2255
19306TIP3    H179409   4.445   4.300   1.016  1.8692  0.1464 -0.8105
19306TIP3    H279410   4.465   4.449   0.995 -0.2910  0.6551  0.4005
19307TIP3   OH279411   0.413   0.986  15.802 -0.0721 -0.2953 -0.1193
19307TIP3    H179412   0.366   1.009  15.883 -0.3643  0.0897 -0.3906
19307TIP3    H279413   0.352   1.011  15.732  0.5377  0.2030 -0.4777
19308TIP3   OH279414   0.477   4.559   0.069  0.2445  0.1433  0.4906
19308TIP3    H179415   0.492   4.588  -0.021  1.6627  0.2075  0.7243
19308TIP3    H279416   0.485   4.464   0.066  0.2592  0.1426  0.5419
19309TIP3   OH279417   1.802   2.442   2.254 -0.3502  0.7334 -0.5204
19309TIP3    H179418   1.795   2.441   2.159 -0.8175  1.7119 -0.5083
19309TIP3    H279419   1.804   2.535   2.277 -0.8320  0.5179  0.4559
19310TIP3   OH279420   5.986   3.394   3.770 -0.6383  0.0247 -0.2455
19310TIP3    H179421   5.955   3.389   3.861  0.7932 -0.3645  0.2446
19310TIP3    H279422   6.077   3.365   3.774 -0.6880 -0.4533 -1.8911
19311TIP3   OH279423   0.987   5.478  12.077  0.1588 -0.0577 -0.0752
19311TIP3    H179424   1.026   5.395  12.050  1.2021  0.2428  0.4581
19311TIP3    H279425   1.032   5.500  12.159 -0.6718  0.6404  0.2034
19312TIP3   OH279426   5.892   2.485   1.664  0.2798  0.3270  0.3275
19312TIP3    H179427   5.897   2.565   1.612 -1.7526  0.5205  0.3604
19312TIP3    H279428   5.975   2.440   1.647  0.3335  1.1474 -1.8115
19313TIP3   OH279429   1.549   5.790  13.195  0.1031 -0.2528  0.0166
19313TIP3    H179430   1.550   5.708  13.244 -0.4796 -0.3619 -0.1419
19313TIP3    H279431   1.535   5.763  13.104  0.3282 -0.0016 -0.0951
19314TIP3   OH279432   4.547   4.989  13.815  0.2292 -0.1614 -0.6902
19314TIP3    H179433   4.569   5.025  13.729 -0.5124 -0.2725 -0.9381
19314TIP3    H279434   4.538   4.895  13.800 -0.0830 -0.1585 -0.5404
19315TIP3   OH279435   3.143   6.400   2.082 -0.2925 -0.8395 -0.0326
19315TIP3    H179436   3.087   6.406   2.159 -1.0818  0.1851 -0.6644
19315TIP3    H279437   3.173   6.490   2.067 -0.8684 -0.8513 -1.4261
19316TIP3   OH279438   5.362   5.491   6.600  0.8267  0.2283 -0.0310
19316TIP3    H179439   5.332   5.405   6.629  1.3019  0.2892  0.6615
19316TIP3    H279440   5.402   5.475   6.514  0.2482 -0.1104 -0.2435
19317TIP3   OH279441   4.615   1.688  17.279  0.2838 -0.3166 -0.1977
19317TIP3    H179442   4.564   1.769  17.274 -0.5416 -0.4569  3.1665
19317TIP3    H279443   4.692   1.713  17.331 -0.0046 -1.6606  0.9179
19318TIP3   OH279444   6.189   6.065   1.047 -0.1104 -0.1534  0.1567
19318TIP3    H179445   6.255   6.018   0.996  0.7576 -0.1529  1.2565
19318TIP3    H279446   6.217   6.156   1.044  0.3403 -0.2459  1.1989
19319TIP3   OH279447   6.172   4.436   5.078 -0.6381  0.0826  0.5397
19319TIP3    H179448   6.167   4.381   5.157  1.3680  0.2625  0.8415
19319TIP3    H279449   6.193   4.523   5.112  0.7716  0.0504 -0.2155
19320TIP3   OH279450   3.389   2.056   0.987  0.0570  0.3607 -0.0587
19320TIP3    H179451   3.483   2.070   1.002 -0.4536  2.0347  1.9778
19320TIP3    H279452   3.355   2.028   1.071 -1.2906 -0.3152 -0.7899
19321TIP3   OH279453   4.612   5.837  15.056 -0.7865 -0.1992  0.6909
19321TIP3    H179454   4.649   5.842  14.968  0.3932 -2.3155  1.0245
19321TIP3    H279455   4.657   5.906  15.105  1.8566 -1.8097  0.7248
19322TIP3   OH279456   4.351   3.066   2.603  0.2215  0.2555  0.8380
19322TIP3    H179457   4.343   3.116   2.522 -0.3366  1.4724  1.6173
19322TIP3    H279458   4.355   2.975   2.575 -2.9673  0.3847 -0.4770
19323TIP3   OH279459   6.615   5.918   2.878  0.3355  0.0749  0.2557
19323TIP3    H179460   6.619   5.974   2.955  0.4841  0.8841 -0.3305
19323TIP3    H279461   6.683   5.952   2.820 -0.6332  0.2988 -0.7745
19324TIP3   OH279462   5.551   2.384  16.080 -0.7417  0.5061  0.2594
19324TIP3    H179463   5.571   2.299  16.119 -0.8251  0.4288  0.1317
19324TIP3    H279464   5.606   2.446  16.129  2.0088 -0.0343 -1.9205
19325TIP3   OH279465   5.779   5.818  12.174  0.5016 -0.1738  0.1475
19325TIP3    H179466   5.831   5.894  12.198  0.9632  0.5033 -2.6278
19325TIP3    H279467   5.790   5.810  12.079  0.3364 -3.6244  0.2797
19326TIP3   OH279468   2.287   4.229  14.123 -0.0641 -0.0436 -0.5368
19326TIP3    H179469   2.302   4.200  14.214 -4.7132 -0.3087  0.3540
19326TIP3    H279470   2.226   4.301  14.130  0.0194  0.4371 -3.5033
19327TIP3   OH279471   1.358   2.428   3.736 -0.9472  0.4319 -0.0600
19327TIP3    H179472   1.397   2.468   3.659 -0.3932 -0.0092 -0.0096
19327TIP3    H279473   1.403   2.470   3.810 -0.5441 -0.0989 -0.0031
19328TIP3   OH279474   0.003   0.003  11.344  0.2720 -0.0401 -0.5455
19328TIP3    H179475   0.047  -0.082  11.341 -1.4452 -1.0426  0.8247
19328TIP3    H279476  -0.090  -0.018  11.341 -0.1963  1.8431 -0.5579
19329TIP3   OH279477   5.197   2.131   0.042 -0.5530  0.8549  0.7427
19329TIP3    H179478   5.235   2.143   0.129 -0.5846  0.3053  0.8377
19329TIP3    H279479   5.117   2.081   0.057 -0.0945 -0.0350  0.3197
19330TIP3   OH279480   4.777   6.639   4.682 -0.2545  0.1115  0.7156
19330TIP3    H179481   4.806   6.550   4.699 -0.5891 -0.5864 -1.8420
19330TIP3    H279482   4.698   6.650   4.735  0.8201 -0.4049  2.4762
19331TIP3   OH279483   0.618   4.170   4.305  0.6118 -0.7735 -0.0296
19331TIP3    H179484   0.537   4.186   4.257 -0.1637 -2.2049  0.7330
19331TIP3    H279485   0.662   4.102   4.254 -0.4363 -2.6432  1.4349
19332TIP3   OH279486   1.215   6.747   2.571  0.8352  0.0234 -0.4652
19332TIP3    H179487   1.137   6.710   2.614  0.2067  0.6841 -1.0153
19332TIP3    H279488   1.289   6.705   2.616  0.1786 -2.2969 -1.3930
19333TIP3   OH279489   2.525   3.996   4.438 -0.6346  0.1472  0.5106
19333TIP3    H179490   2.511   4.089   4.458 -2.2848  0.3556 -1.2749
19333TIP3    H279491   2.585   3.996   4.364 -1.4991 -0.1153 -0.2140
19334TIP3   OH279492   1.200   3.159   2.340 -0.3277 -0.3461  0.2422
19334TIP3    H179493   1.213   3.244   2.383  0.9966 -1.3266  1.9255
19334TIP3    H279494   1.224   3.174   2.249  1.5870  0.7171  0.8648
19335TIP3   OH279495   0.424   1.897  14.017  0.2438  0.7217 -0.1621
19335TIP3    H179496   0.429   1.867  13.926 -0.8816 -0.2001  0.0607
19335TIP3    H279497   0.421   1.992  14.010 -0.4600  0.6424 -1.1318
19336TIP3   OH279498   0.068   1.362  12.565 -0.3854 -0.9113  0.1428
19336TIP3    H179499   0.062   1.302  12.491  1.8853  1.0019 -1.7831
19336TIP3    H279500   0.152   1.341  12.607  1.1658  1.5812 -1.4120
19337TIP3   OH279501   5.477   1.954  14.259 -0.1165 -0.0997 -0.6932
19337TIP3    H179502   5.495   2.040  14.297 -0.8435 -0.3070  0.1372
19337TIP3    H279503   5.438   1.973  14.174 -0.7486  0.4005 -0.2925
19338TIP3   OH279504   4.038   3.200   4.738 -0.3111  0.3367  0.3774
19338TIP3    H179505   4.100   3.134   4.769  0.3002  0.1441 -1.1601
19338TIP3    H279506   4.081   3.239   4.662 -3.1736 -1.8687 -2.6775
19339TIP3   OH279507   2.027   2.229  16.922 -0.4056 -0.3824  0.6161
19339TIP3    H179508   2.107   2.180  16.903 -1.4242 -1.5758 -0.8359
19339TIP3    H279509   2.037   2.258  17.013  2.7756  1.7230 -0.2327
19340TIP3   OH279510   3.555   0.543  13.865  0.6348 -0.4219  0.5595
19340TIP3    H179511   3.580   0.462  13.819  1.0316 -1.0406  1.8239
19340TIP3    H279512   3.481   0.518  13.920 -0.5722  0.5843 -0.5435
19341TIP3   OH279513   2.894   0.391   4.578 -0.4324  0.2461 -0.0492
19341TIP3    H179514   2.953   0.336   4.526 -0.9943 -0.6950  0.2874
19341TIP3    H279515   2.830   0.423   4.516  0.8922  1.9746 -0.5900
19342TIP3   OH279516   2.118   0.779  15.944 -0.5913  0.3202  0.4156
19342TIP3    H179517   2.179   0.830  15.997 -2.1772  1.1973  1.4939
19342TIP3    H279518   2.149   0.689  15.951  1.6032  0.9209 -0.5925
19343TIP3   OH279519   2.396   1.737  15.239  0.3073 -0.5114 -0.1986
19343TIP3    H179520   2.452   1.779  15.174  2.9043 -0.5161  1.8721
19343TIP3    H279521   2.357   1.809  15.288  0.1725 -0.5023 -0.3208
19344TIP3   OH279522   4.024   1.579  16.486  0.6127 -0.0883 -0.2464
19344TIP3    H179523   4.104   1.548  16.444  1.0944  0.3532  0.3256
19344TIP3    H279524   4.017   1.527  16.566  0.1135 -0.3858 -0.4718
19345TIP3   OH279525   6.103   5.311   2.017 -0.1330 -0.2137  0.1702
19345TIP3    H179526   6.154   5.240   1.977 -0.5648  0.7836 -2.3421
19345TIP3    H279527   6.016   5.303   1.980  0.3851  2.9657 -2.2084
19346TIP3   OH279528   3.202   4.294  17.032  0.2501  0.3060  0.0404
19346TIP3    H179529   3.223   4.206  17.004  0.2344 -0.5638  2.5392
19346TIP3    H279530   3.283   4.343  17.022  0.1521  0.1832 -1.7471
19347TIP3   OH279531   6.662   0.580   0.341 -0.1098 -0.0612 -0.4983
19347TIP3    H179532   6.600   0.572   0.414 -0.8998  2.2429 -0.8429
19347TIP3    H279533   6.748   0.586   0.384 -0.5080  0.6762  0.2266
19348TIP3   OH279534   5.590   6.235  16.300  0.2653  0.0600  0.2536
19348TIP3    H179535   5.662   6.238  16.237  0.3994 -0.4432  0.3802
19348TIP3    H279536   5.585   6.143  16.327 -0.3018  0.1244  0.3886
19349TIP3   OH279537   3.852   4.549  13.034  0.1385  0.5837  0.2383
19349TIP3    H179538   3.809   4.502  12.962  0.9800  1.5489 -0.9500
19349TIP3    H279539   3.825   4.503  13.113 -1.0184 -0.3703 -0.6799
19350TIP3   OH279540   2.521   3.464   0.852  0.0561 -0.0880  0.6643
19350TIP3    H179541   2.462   3.526   0.811  1.9726  1.7108  0.4972
19350TIP3    H279542   2.470   3.427   0.924 -0.9125  2.3396  1.3260
19351TIP3   OH279543   0.661   1.390   0.540  0.0793  0.1146 -0.1655
19351TIP3    H179544   0.575   1.432   0.541 -0.1853 -0.4187  0.7045
19351TIP3    H279545   0.676   1.368   0.448 -0.3885  0.8585 -0.4304
19352TIP3   OH279546   0.643   5.426   4.803  0.1514  0.3022 -0.2438
19352TIP3    H179547   0.599   5.363   4.861  0.6124 -0.2998 -0.5351
19352TIP3    H279548   0.665   5.375   4.725 -2.5630  1.6294 -2.0317
19353TIP3   OH279549   5.074   2.842   1.460 -0.1625 -0.1026 -0.3730
19353TIP3    H179550   5.080   2.783   1.535  0.4095  0.1318 -0.2297
19353TIP3    H279551   5.030   2.920   1.495  0.1556  0.0295 -0.2659
19354TIP3   OH279552   5.898   0.153  15.192 -0.4130  0.1557 -0.1541
19354TIP3    H179553   5.875   0.246  15.191 -0.2197  0.2391  1.3824
19354TIP3    H279554   5.921   0.134  15.283 -0.2486 -1.3553 -0.4758
19355TIP3   OH279555   0.249   3.440   3.520 -0.1363  0.4180  0.4169
19355TIP3    H179556   0.313   3.372   3.540  0.2350 -0.4479 -3.1780
19355TIP3    H279557   0.165   3.403   3.550  0.5616  0.3045  2.4132
19356TIP3   OH279558   5.760   4.857   2.781 -0.4229 -0.0405  0.3534
19356TIP3    H179559   5.839   4.811   2.810 -0.2158  0.1630  0.1141
19356TIP3    H279560   5.707   4.865   2.861 -1.2313 -2.1950  0.0732
19357TIP3   OH279561   5.516   3.434   5.811  0.4375 -0.1165  0.0357
19357TIP3    H179562   5.589   3.447   5.871 -0.0436  1.1521  0.3960
19357TIP3    H279563   5.438   3.436   5.867  0.0869 -0.7362 -0.4207
19358TIP3   OH279564   0.353   1.372   5.918  0.4263 -0.3262 -0.2824
19358TIP3    H179565   0.267   1.414   5.914  0.5260 -0.0706  0.1660
19358TIP3    H279566   0.343   1.292   5.866 -0.3381 -0.7349  0.4664
19359TIP3   OH279567   4.861   5.798  17.478 -0.5014 -0.3574 -0.3678
19359TIP3    H179568   4.834   5.785  17.569  0.4172  1.0450  0.1299
19359TIP3    H279569   4.862   5.893  17.466  2.9176 -0.3151 -0.7154
19360TIP3   OH279570   3.136   4.070  12.966  0.0627 -0.7026  0.3075
19360TIP3    H179571   3.177   4.071  12.879 -1.0503 -1.8210 -0.2692
19360TIP3    H279572   3.098   4.157  12.976 -0.3567 -0.7641 -0.6331
19361TIP3   OH279573   5.128   1.194  15.260 -0.1446 -0.1966  0.5990
19361TIP3    H179574   5.134   1.284  15.294  0.9317 -0.4607  1.1421
19361TIP3    H279575   5.086   1.204  15.174  2.2227  1.1614 -0.5103
19362TIP3   OH279576   2.855   3.222   2.411  0.4971  0.3490 -0.0999
19362TIP3    H179577   2.899   3.218   2.326  1.7225 -0.5787  0.5296
19362TIP3    H279578   2.878   3.139   2.453 -0.6616  0.4895  0.8687
19363TIP3   OH279579   3.820   2.371  17.127 -0.2347  0.7190  0.6401
19363TIP3    H179580   3.796   2.447  17.074  1.0560  1.1273  0.6031
19363TIP3    H279581   3.738   2.323  17.139 -1.2401  2.5520  1.3719
19364TIP3   OH279582   2.838   1.492  17.267 -0.8758  0.1578 -0.0874
19364TIP3    H179583   2.805   1.442  17.342  0.1588 -0.2888  0.0907
19364TIP3    H279584   2.858   1.425  17.201 -1.1659  0.4936 -0.5174
19365TIP3   OH279585   3.038   0.069   4.653  0.0730 -0.2149  0.0349
19365TIP3    H179586   3.063   0.125   4.580 -0.5937 -0.7837 -0.6464
19365TIP3    H279587   3.019  -0.015   4.613  2.5315 -1.4246  1.2129
19366TIP3   OH279588   6.461   2.488   3.923 -0.7817  0.7279  0.4086
19366TIP3    H179589   6.480   2.511   3.832  0.2957 -0.2571  0.3671
19366TIP3    H279590   6.501   2.558   3.974  0.0522  0.4274  0.1804
19367TIP3   OH279591   5.960   5.112   1.132  0.2376 -0.1016  0.1513
19367TIP3    H179592   5.876   5.145   1.163  0.3402  2.8289 -2.2611
19367TIP3    H279593   6.018   5.118   1.209 -1.1693 -0.0044  1.2415
19368TIP3   OH279594   0.491   4.259   5.082  0.7431  0.0069 -0.3244
19368TIP3    H179595   0.540   4.208   5.146 -0.0227  0.0638  0.3159
19368TIP3    H279596   0.439   4.195   5.034  0.9623  0.0156 -0.5737
19369TIP3   OH279597   2.707   0.890  14.897 -0.0769  0.7750  0.5509
19369TIP3    H179598   2.748   0.813  14.938  0.1509  0.1456 -0.7789
19369TIP3    H279599   2.613   0.877  14.911 -0.3926 -1.7262 -2.6964
19370TIP3   OH279600   0.373   4.505  17.130 -0.1677 -0.1041  0.3390
19370TIP3    H179601   0.304   4.439  17.138  0.6365 -1.0227 -0.0850
19370TIP3    H279602   0.344   4.560  17.057 -2.0234  1.5330  2.1700
19371TIP3   OH279603   2.026   4.264   5.073 -0.3848  0.0850  0.3021
19371TIP3    H179604   2.077   4.343   5.089 -0.6101  0.7032 -1.8274
19371TIP3    H279605   1.935   4.292   5.082 -0.4622  0.0467 -0.3510
19372TIP3   OH279606   1.001   2.194   4.219  0.5645  0.4266 -0.0599
19372TIP3    H179607   1.042   2.132   4.279  0.3496  0.7380  0.4182
19372TIP3    H279608   0.927   2.146   4.181  0.0056  0.5929  0.8004
19373TIP3   OH279609   0.729   3.062  12.481  0.1088 -0.1790 -0.2967
19373TIP3    H179610   0.655   3.029  12.430 -0.3207 -0.8086  0.7014
19373TIP3    H279611   0.772   2.984  12.513  0.9936  0.1950 -0.5403
19374TIP3   OH279612   0.951   6.676   3.006  0.0787  0.0637 -0.1124
19374TIP3    H179613   0.865   6.700   2.971 -0.6836 -1.0825  0.8705
19374TIP3    H279614   0.939   6.588   3.041  1.6962 -0.1571 -0.0290
19375TIP3   OH279615   1.885   2.047  17.151  0.4423  0.4411 -0.5436
19375TIP3    H179616   1.838   1.977  17.107 -0.3534  0.0353  0.8838
19375TIP3    H279617   1.970   2.051  17.107 -0.4226  0.2992 -2.2920
19376TIP3   OH279618   0.526   5.673   3.024 -0.1070 -0.0481 -0.1796
19376TIP3    H179619   0.479   5.596   3.056  0.0460 -0.5373 -1.0895
19376TIP3    H279620   0.495   5.745   3.079 -0.6909 -0.6497  0.3004
19377TIP3   OH279621   4.510   3.130   3.906  0.0275 -0.1147 -0.2355
19377TIP3    H179622   4.490   3.224   3.906 -0.8232 -0.2688  0.9449
19377TIP3    H279623   4.596   3.124   3.947  0.4528  0.2022 -1.0629
19378TIP3   OH279624   4.297   6.686   6.051  0.5847  0.0139  0.2220
19378TIP3    H179625   4.337   6.601   6.034  0.5006 -0.0747  0.4710
19378TIP3    H279626   4.253   6.676   6.135  2.1920  0.8832  1.2101
19379TIP3   OH279627   2.371   4.002  11.892 -0.8058 -0.4715 -0.1334
19379TIP3    H179628   2.465   3.989  11.902 -0.6693  0.8274  0.3320
19379TIP3    H279629   2.351   4.080  11.942 -2.2705 -1.1234  0.3617
19380TIP3   OH279630   3.424   3.063   0.435  0.2045 -0.3007  0.0194
19380TIP3    H179631   3.416   3.008   0.513 -1.4586  0.6947  0.6247
19380TIP3    H279632   3.339   3.109   0.430  0.6914  0.4816 -1.7439
19381TIP3   OH279633   2.570   1.178   4.575 -0.3880  0.1362  0.4754
19381TIP3    H179634   2.516   1.119   4.626 -0.6918  0.3747  0.4297
19381TIP3    H279635   2.591   1.128   4.495  0.9594 -0.6402  1.2633
19382TIP3   OH279636   4.805   0.694  10.913 -0.2336  0.5651 -0.0923
19382TIP3    H179637   4.714   0.695  10.942 -0.7855 -0.0407 -1.6605
19382TIP3    H279638   4.809   0.762  10.846  0.0688 -0.3871 -1.0718
19383TIP3   OH279639   6.198   0.149  16.926 -0.3949 -0.1732  0.4213
19383TIP3    H179640   6.140   0.153  17.003  0.1039 -0.7356  0.8355
19383TIP3    H279641   6.149   0.096  16.863 -1.5063  1.6075 -0.2841
19384TIP3   OH279642   4.825   3.392  17.503 -0.1233  0.4275 -0.0234
19384TIP3    H179643   4.879   3.464  17.471  2.3956 -0.4168  1.9575
19384TIP3    H279644   4.879   3.314  17.490 -2.1696 -0.9479 -0.7320
19385TIP3   OH279645   5.758   6.578  14.264 -0.8297 -0.1902  0.4254
19385TIP3    H179646   5.812   6.626  14.202  1.6448 -1.5682  1.3861
19385TIP3    H279647   5.766   6.627  14.346  0.3406 -1.2606  0.9799
19386TIP3   OH279648   3.333   4.457   5.410  0.0317  0.1612 -0.6534
19386TIP3    H179649   3.416   4.503   5.424  0.2065 -0.0987 -0.8327
19386TIP3    H279650   3.278   4.484   5.484  0.5770 -0.3552 -0.0578
19387TIP3   OH279651   1.098   6.672   5.096 -0.3195 -0.5191  0.1954
19387TIP3    H179652   1.038   6.746   5.098 -1.4067 -1.3799  0.6207
19387TIP3    H279653   1.156   6.690   5.021 -1.2457  0.2207 -0.3694
19388TIP3   OH279654   1.923   5.966   4.880 -0.2264 -0.7813  0.2307
19388TIP3    H179655   1.990   5.934   4.819  0.0494  0.5421 -0.1857
19388TIP3    H279656   1.971   6.021   4.942 -1.0727  1.4193 -0.9543
19389TIP3   OH279657   1.796   3.455  11.271 -0.4749 -0.6700 -0.5506
19389TIP3    H179658   1.709   3.416  11.283 -0.4295 -0.9181 -1.0045
19389TIP3    H279659   1.799   3.478  11.178 -0.1490 -0.4273 -0.4823
19390TIP3   OH279660   1.182   5.745   2.047  0.1447 -0.7041  0.3618
19390TIP3    H179661   1.098   5.737   2.092  0.7937 -1.4559  1.4942
19390TIP3    H279662   1.184   5.672   1.985  0.7657 -1.9315  1.7580
19391TIP3   OH279663   6.079   4.078  16.482  0.2816  0.1931  0.2914
19391TIP3    H179664   6.000   4.023  16.484 -0.1823  0.8724  1.5156
19391TIP3    H279665   6.118   4.068  16.568  0.1716  1.7770  0.5613
19392TIP3   OH279666   4.652   0.009  11.544  0.1860 -0.0550 -0.0496
19392TIP3    H179667   4.651  -0.033  11.630  0.9628 -0.2398 -0.1276
19392TIP3    H279668   4.701   0.090  11.557  0.4362 -0.1559 -0.3528
19393TIP3   OH279669   2.605   0.963   0.138 -0.0507  0.2509  0.3985
19393TIP3    H179670   2.635   0.890   0.193  1.0893  1.0386  0.8559
19393TIP3    H279671   2.676   1.027   0.143  0.0720  0.3907 -1.9246
19394TIP3   OH279672   3.056   0.059   6.663 -0.5138 -0.5787  0.0856
19394TIP3    H179673   3.107  -0.021   6.676  1.6543  1.0439  2.6449
19394TIP3    H279674   2.982   0.052   6.724 -0.3157 -0.6302  0.3192
19395TIP3   OH279675   5.877   4.896   0.927  0.3052  0.4899  0.0529
19395TIP3    H179676   5.934   4.932   0.995  1.2668  0.7032 -0.8347
19395TIP3    H279677   5.910   4.808   0.912  0.6130  0.7097 -0.6565
19396TIP3   OH279678   5.564   1.119   3.109  0.3426  0.3200 -0.3669
19396TIP3    H179679   5.589   1.077   3.027  1.5391  0.2480  0.0150
19396TIP3    H279680   5.503   1.188   3.084 -0.3556 -0.5731 -1.1705
19397TIP3   OH279681   1.645   3.008  16.902 -0.0862 -0.3364 -0.3451
19397TIP3    H179682   1.669   2.998  16.810 -0.5359  1.6930 -0.7294
19397TIP3    H279683   1.549   3.000  16.903 -0.0771 -0.4398 -0.0349
19398TIP3   OH279684   3.316   5.099   1.240  0.2820 -0.1021  0.1832
19398TIP3    H179685   3.288   5.160   1.308  1.1252 -1.7224  2.0478
19398TIP3    H279686   3.241   5.041   1.227  0.1429  0.1686 -0.2570
19399TIP3   OH279687   5.110   4.039  15.956 -0.0837 -0.0955 -0.2239
19399TIP3    H179688   5.137   3.948  15.942  0.5399  0.2096 -1.0262
19399TIP3    H279689   5.042   4.054  15.890 -0.1852  0.0214 -0.0939
19400TIP3   OH279690   6.538   6.370   1.100 -0.2171 -0.2837 -0.0677
19400TIP3    H179691   6.598   6.439   1.126 -0.5738 -0.1670  0.4651
19400TIP3    H279692   6.575   6.290   1.138 -1.1660  0.0031  1.5499
19401TIP3   OH279693   5.097   2.468   6.031 -0.0949  0.4148  0.0664
19401TIP3    H179694   5.054   2.454   5.946 -1.3282  1.0646  0.5726
19401TIP3    H279695   5.032   2.512   6.084  0.8685  0.5189  1.1905
19402TIP3   OH279696   6.368   0.477  12.308 -0.0284  0.4870  0.1183
19402TIP3    H179697   6.391   0.428  12.229 -2.3637  0.7706 -0.8061
19402TIP3    H279698   6.342   0.409  12.371 -2.6187  0.3790 -0.9436
19403TIP3   OH279699   2.606   2.795  11.855  0.5558 -0.6638  0.5820
19403TIP3    H179700   2.584   2.884  11.826  1.0005  0.1676  2.6497
19403TIP3    H279701   2.699   2.799  11.878  0.7281 -1.8351  0.1703
19404TIP3   OH279702   1.721   2.831  14.149  0.8257  0.0632  0.0137
19404TIP3    H179703   1.758   2.876  14.225  0.5492 -1.1489  0.8976
19404TIP3    H279704   1.774   2.752  14.140 -0.4669 -0.8713  0.2888
19405TIP3   OH279705   6.021   5.986  17.005 -0.0681 -0.2393 -0.2358
19405TIP3    H179706   6.057   6.066  17.045  0.4897  0.1483 -1.4661
19405TIP3    H279707   5.927   6.003  17.000  0.1722  0.9492 -1.6949
19406TIP3   OH279708   6.405   6.301  14.745 -0.4581  0.1057  0.0273
19406TIP3    H179709   6.396   6.216  14.702 -0.5774  0.7740 -1.3118
19406TIP3    H279710   6.491   6.332  14.720 -1.1192  1.1752 -1.0271
19407TIP3   OH279711   2.206   5.437  12.085  0.0520 -0.8375  0.3169
19407TIP3    H179712   2.246   5.482  12.011 -1.1301 -0.0354  0.1578
19407TIP3    H279713   2.238   5.346  12.077  0.3469 -0.6465 -0.8619
19408TIP3   OH279714   1.369   4.855   0.165  0.1864  0.1789  0.2300
19408TIP3    H179715   1.453   4.820   0.197  0.6864 -0.1250 -1.2968
19408TIP3    H279716   1.393   4.937   0.122 -0.1174 -0.3791 -1.0628
19409TIP3   OH279717   3.430   5.670  15.839  0.2677 -0.1952  0.2330
19409TIP3    H179718   3.431   5.653  15.745 -3.0859 -1.0202  0.2260
19409TIP3    H279719   3.510   5.628  15.871  0.8977 -0.9270 -2.0890
19410TIP3   OH279720   0.767   5.855  13.453 -0.1816  1.0421 -0.5380
19410TIP3    H179721   0.694   5.836  13.393 -1.6809  0.6613  1.3232
19410TIP3    H279722   0.735   5.828  13.539  2.4834  0.0708  0.2528
19411TIP3   OH279723   1.962   5.653  13.282  0.2104 -0.0593 -0.1418
19411TIP3    H179724   1.934   5.741  13.256 -0.9916  0.4986  2.7343
19411TIP3    H279725   1.936   5.597  13.208  0.3398  1.8370 -1.7153
19412TIP3   OH279726   5.185   5.825   2.994 -0.1504 -0.0249  0.4298
19412TIP3    H179727   5.126   5.898   3.016  1.2885  1.2386  0.2501
19412TIP3    H279728   5.127   5.749   2.987 -1.5653  0.8861  1.6458
19413TIP3   OH279729   5.506   4.983   3.999  0.1057 -0.0173 -0.1660
19413TIP3    H179730   5.549   5.038   3.933 -1.2364  1.3072  0.0103
19413TIP3    H279731   5.507   4.895   3.962 -0.8133  0.7268 -2.0839
19414TIP3   OH279732   5.648   5.730  13.594 -0.3467  0.4795 -0.0662
19414TIP3    H179733   5.612   5.692  13.674 -0.8712 -1.3000 -1.0949
19414TIP3    H279734   5.717   5.668  13.568 -1.7227 -0.2405 -2.1971
19415TIP3   OH279735   0.511   5.239  11.038 -0.1735  0.3166 -0.2323
19415TIP3    H179736   0.483   5.278  10.955  1.0639  0.9809 -0.3707
19415TIP3    H279737   0.474   5.297  11.105  0.1383  0.6832 -0.3767
19416TIP3   OH279738   1.165   6.125  12.141 -0.6627  0.5486 -0.3025
19416TIP3    H179739   1.210   6.178  12.207 -1.7533  0.1007  0.8353
19416TIP3    H279740   1.182   6.035  12.166 -2.4577  0.3601  0.3834
19417TIP3   OH279741   1.819   5.988   5.287 -0.2193  0.0397  0.1799
19417TIP3    H179742   1.796   5.967   5.378  0.2775  0.8017  0.4925
19417TIP3    H279743   1.890   5.927   5.266 -0.1912  0.0037  0.3777
19418TIP3   OH279744   1.306   3.554   3.256 -0.2513  0.7052  0.7384
19418TIP3    H179745   1.286   3.477   3.203 -0.4318  2.0061 -1.1712
19418TIP3    H279746   1.402   3.558   3.257 -0.1980  2.0531 -1.7342
19419TIP3   OH279747   3.803   6.516  15.621 -0.4190 -0.3892  0.3332
19419TIP3    H179748   3.788   6.531  15.528  0.0864  0.1542  0.3302
19419TIP3    H279749   3.727   6.554  15.665 -0.9308 -1.1534  0.1127
19420TIP3   OH279750   4.090   1.330  17.100 -0.3596 -0.6206  0.2392
19420TIP3    H179751   4.136   1.249  17.080  0.5913  0.4079 -2.2924
19420TIP3    H279752   4.154   1.384  17.145  0.3179  0.0152 -1.3808
19421TIP3   OH279753   0.854   4.869  11.906 -0.3941 -0.0861  0.3749
19421TIP3    H179754   0.922   4.915  11.955 -1.2540  1.9080 -0.1987
19421TIP3    H279755   0.840   4.788  11.955  0.8202  0.4831  1.7442
19422TIP3   OH279756   2.889   5.817   1.548 -0.5906  0.5087 -0.1294
19422TIP3    H179757   2.808   5.851   1.587 -2.5681 -1.4524 -2.2096
19422TIP3    H279758   2.955   5.882   1.569 -2.6879  2.1907  1.7321
19423TIP3   OH279759   1.086   2.795   1.593 -0.4072 -0.3869 -0.0317
19423TIP3    H179760   1.164   2.768   1.642 -1.2770 -2.2546  0.4051
19423TIP3    H279761   1.115   2.871   1.542  0.5687  1.6370  3.2573
19424TIP3   OH279762   3.554   6.752   4.316  0.4014  0.0158  0.0243
19424TIP3    H179763   3.626   6.815   4.327  1.3762 -1.1529  0.6702
19424TIP3    H279764   3.535   6.722   4.405 -1.0374  0.4386 -0.1220
19425TIP3   OH279765   4.307   0.940  13.893  0.5330 -0.0398  0.2296
19425TIP3    H179766   4.219   0.958  13.861  0.7629  0.3055 -0.2048
19425TIP3    H279767   4.337   0.867  13.839  1.3930  1.3327 -1.2212
19426TIP3   OH279768   0.901   3.265  15.120 -0.5619  0.6758 -0.5844
19426TIP3    H179769   0.842   3.208  15.071 -0.1419 -1.4405  1.1684
19426TIP3    H279770   0.989   3.236  15.096 -0.2875  1.4977 -0.6234
19427TIP3   OH279771   5.842   6.038  17.435 -0.0140 -0.1040  0.4155
19427TIP3    H179772   5.781   5.984  17.386  0.0439 -0.6482  0.9343
19427TIP3    H279773   5.911   6.060  17.372 -0.6874  0.4388 -0.1473
19428TIP3   OH279774   5.826   2.511  14.300  0.5220 -0.2756  0.4110
19428TIP3    H179775   5.914   2.475  14.286  0.3329 -0.3335 -0.6993
19428TIP3    H279776   5.815   2.576  14.230 -0.4314 -0.4818  0.3580
19429TIP3   OH279777   0.780   1.299  11.131 -0.3935 -0.1147 -0.1719
19429TIP3    H179778   0.700   1.350  11.147 -2.1272 -2.8995  0.7330
19429TIP3    H279779   0.776   1.277  11.038 -1.7218 -1.7368  0.2217
19430TIP3   OH279780   1.823   1.709  16.157 -0.3522  0.3967  0.1676
19430TIP3    H179781   1.849   1.619  16.179 -1.4019  0.2651  0.9170
19430TIP3    H279782   1.837   1.758  16.238 -0.6777  0.7172  0.0302
19431TIP3   OH279783   6.144   5.142   4.173  0.5806  0.1255  0.0107
19431TIP3    H179784   6.133   5.162   4.266 -0.5548 -0.2160 -0.0369
19431TIP3    H279785   6.232   5.174   4.152  0.5582  0.9024  1.0135
19432TIP3   OH279786   0.507   0.074   0.094 -0.5602  0.0977 -0.6492
19432TIP3    H179787   0.534   0.079   0.186 -0.0947  2.8087 -0.8618
19432TIP3    H279788   0.584   0.102   0.044 -1.8647  2.1887 -1.6100
19433TIP3   OH279789   0.456   5.859   3.211 -0.0854 -0.0138 -0.8521
19433TIP3    H179790   0.511   5.925   3.167 -0.8008  0.9360 -0.3509
19433TIP3    H279791   0.383   5.909   3.247  1.0638 -0.5232  2.5046
19434TIP3   OH279792   4.997   5.759   5.319 -0.2556 -0.2280 -0.2056
19434TIP3    H179793   5.047   5.730   5.243  0.0511 -1.6285  0.5018
19434TIP3    H279794   5.052   5.825   5.361  1.3562 -2.1958  0.9223
19435TIP3   OH279795   2.194   0.523  15.998  0.0089  0.2868 -0.3997
19435TIP3    H179796   2.256   0.450  16.004 -2.2047 -1.6082  2.3292
19435TIP3    H279797   2.123   0.489  15.943 -0.6915  0.6763  0.2560
19436TIP3   OH279798   0.690   3.959   5.615 -0.4318  0.0630 -0.0875
19436TIP3    H179799   0.724   4.048   5.625 -1.6352  0.4896  0.4152
19436TIP3    H279800   0.615   3.956   5.675 -0.3033 -1.3467  0.0241
19437TIP3   OH279801   2.250   1.531   1.856 -0.5285 -0.4206 -0.1650
19437TIP3    H179802   2.217   1.504   1.942  1.2850  0.0726  0.7263
19437TIP3    H279803   2.328   1.476   1.842 -0.0744  0.3957 -0.9081
19438TIP3   OH279804   0.836   5.845  15.086 -0.2575  0.3080 -0.0626
19438TIP3    H179805   0.844   5.927  15.036 -0.8181  2.9543  3.7368
19438TIP3    H279806   0.924   5.808  15.083  0.1346  1.2374 -1.5196
19439TIP3   OH279807   1.696   2.097   5.724  0.5727  0.1376 -0.1975
19439TIP3    H179808   1.656   2.184   5.722 -1.4977 -0.7957 -1.2178
19439TIP3    H279809   1.693   2.066   5.634 -1.3063 -2.0876  0.5393
19440TIP3   OH279810   0.458   6.092  15.680 -0.6528 -0.0425  0.4428
19440TIP3    H179811   0.536   6.038  15.694 -1.5242 -1.1487  1.2609
19440TIP3    H279812   0.416   6.055  15.603 -0.0909  0.9319 -0.3621
19441TIP3   OH279813   5.096   4.959   1.108  0.2352  0.1031 -0.2532
19441TIP3    H179814   5.080   4.894   1.176  0.8779 -0.9741 -1.0812
19441TIP3    H279815   5.010   4.993   1.085 -0.2284 -1.1264 -0.4124
19442TIP3   OH279816   0.073   3.851  12.594 -0.3141  0.0579  0.5279
19442TIP3    H179817   0.160   3.887  12.583  0.3682 -1.4536  0.7429
19442TIP3    H279818   0.053   3.862  12.687  1.3163 -3.0379  1.3761
19443TIP3   OH279819   6.635   5.046  16.828  0.3929 -0.2941  0.1944
19443TIP3    H179820   6.591   4.962  16.812 -0.5612  0.5437 -2.0513
19443TIP3    H279821   6.728   5.024  16.827  0.1734 -1.3329 -0.5788
19444TIP3   OH279822   3.027   0.903  13.988 -0.5866  0.3462 -0.0978
19444TIP3    H179823   3.076   0.921  14.068  0.9285 -0.9841 -0.6810
19444TIP3    H279824   2.989   0.988  13.964 -0.4596  0.9269  1.5984
19445TIP3   OH279825   2.856   0.361  12.099  0.2855  0.2268 -0.0697
19445TIP3    H179826   2.891   0.449  12.089 -0.1515  0.3655 -0.3965
19445TIP3    H279827   2.926   0.312  12.143  0.1099  1.0232  1.1641
19446TIP3   OH279828   4.953   1.926   4.127 -0.0451 -0.0389  0.3012
19446TIP3    H179829   4.991   1.847   4.166  1.6076  0.5585 -0.0271
19446TIP3    H279830   5.026   1.968   4.082 -1.3053  0.7467 -1.0830
19447TIP3   OH279831   4.809   4.078  11.338 -0.2988 -0.3455  0.0726
19447TIP3    H179832   4.773   4.154  11.384 -1.2378 -0.8546  0.2012
19447TIP3    H279833   4.737   4.015  11.336  0.2496 -0.9615 -0.6585
19448TIP3   OH279834   5.805   6.236   6.007  0.0256  0.0178  0.2074
19448TIP3    H179835   5.895   6.237   6.040  0.6518 -1.7104 -1.2774
19448TIP3    H279836   5.811   6.279   5.921 -0.2211 -1.4852 -0.5917
19449TIP3   OH279837   0.891   6.535  12.864 -0.0864 -0.7610 -0.3283
19449TIP3    H179838   0.935   6.619  12.857  0.6327 -0.9885  1.0652
19449TIP3    H279839   0.903   6.509  12.955 -0.6726 -2.1701 -0.6195
19450TIP3   OH279840   1.954   0.209   3.931 -0.0699  0.0634  0.4655
19450TIP3    H179841   1.966   0.287   3.877 -0.0991 -1.0291 -1.1748
19450TIP3    H279842   2.000   0.229   4.013  2.9056  0.4972 -1.1869
19451TIP3   OH279843   0.737   5.567  12.646  0.3010  0.2042 -0.0335
19451TIP3    H179844   0.645   5.593  12.650 -0.3598 -1.6211 -1.7657
19451TIP3    H279845   0.754   5.554  12.553  1.9667 -0.6960  0.3619
19452TIP3   OH279846   3.696   1.240   5.880  0.1123 -0.0711  0.0176
19452TIP3    H179847   3.737   1.167   5.834  1.8218  0.0944  1.1656
19452TIP3    H279848   3.707   1.218   5.973 -0.9620  0.7982  0.3634
19453TIP3   OH279849   4.032   1.225  11.814 -0.2012  0.0643  0.2772
19453TIP3    H179850   4.117   1.259  11.787 -0.7744  0.9716 -0.4743
19453TIP3    H279851   4.050   1.138  11.850  1.0409  0.2808  0.1966
19454TIP3   OH279852   1.080   3.804   2.572 -0.8473 -0.5396 -0.0793
19454TIP3    H179853   1.015   3.739   2.545 -1.3662  0.6695 -1.9253
19454TIP3    H279854   1.163   3.770   2.538 -1.1387 -0.1803 -1.1657
19455TIP3   OH279855   3.008   6.008  16.420  0.7053 -0.1212 -0.1702
19455TIP3    H179856   3.049   5.933  16.465 -3.2117 -0.9953  2.4698
19455TIP3    H279857   2.991   6.071  16.490  1.5414  2.2135 -1.9290
19456TIP3   OH279858   0.519   3.076   0.565 -0.3149 -0.1302  0.4275
19456TIP3    H179859   0.530   2.994   0.518  3.1477  1.8746 -2.7704
19456TIP3    H279860   0.561   3.061   0.650  2.1063 -1.1527 -0.8672
19457TIP3   OH279861   1.599   2.510  13.743  0.0948 -0.2270  0.1403
19457TIP3    H179862   1.620   2.417  13.754 -0.8520 -0.4693 -0.0460
19457TIP3    H279863   1.659   2.555  13.803 -0.4423 -1.0667  1.3504
19458TIP3   OH279864   2.215   3.867  16.191 -0.2087  0.3583  0.2133
19458TIP3    H179865   2.168   3.811  16.129  2.3035  0.1720 -1.6780
19458TIP3    H279866   2.267   3.807  16.244 -1.3540  0.6194  1.7164
19459TIP3   OH279867   0.055   5.519  12.869 -0.4431 -0.9168  0.1513
19459TIP3    H179868   0.004   5.516  12.788  0.8271 -1.5759 -0.6562
19459TIP3    H279869   0.016   5.591  12.919 -0.1079  0.7525 -1.8271
19460TIP3   OH279870   0.579   0.687  12.373  0.6040  0.5000  0.1414
19460TIP3    H179871   0.505   0.655  12.323 -0.2160  2.6938 -0.1319
19460TIP3    H279872   0.591   0.778  12.345  3.1429  0.3538  0.4812
19461TIP3   OH279873   5.998   4.581   1.327  0.1733 -0.0791 -0.0327
19461TIP3    H179874   5.940   4.531   1.269  0.2585 -0.4364  0.1872
19461TIP3    H279875   5.974   4.673   1.311 -0.2409 -0.2054 -0.1709
19462TIP3   OH279876   0.828   5.853  10.546  0.5162  0.1697  0.3289
19462TIP3    H179877   0.915   5.825  10.517 -0.8646 -1.3405 -2.8529
19462TIP3    H279878   0.772   5.776  10.532 -1.2355  0.7772  3.1863
19463TIP3   OH279879   3.554   5.325   6.829  0.2254  0.6553  0.2108
19463TIP3    H179880   3.468   5.365   6.843 -0.6347 -1.4128  1.2701
19463TIP3    H279881   3.591   5.374   6.755 -2.2533  0.9960 -0.9158
19464TIP3   OH279882   4.011   2.277  12.812 -0.0436 -0.1697  0.8169
19464TIP3    H179883   3.983   2.228  12.735  1.0546 -0.9944  0.9126
19464TIP3    H279884   4.062   2.350  12.778 -1.1865  0.6094  0.7011
19465TIP3   OH279885   1.333   0.651   3.073  0.2512 -0.0535 -0.1276
19465TIP3    H179886   1.404   0.622   3.131  0.9930 -0.5642 -1.2487
19465TIP3    H279887   1.364   0.734   3.037 -0.3359  0.4083  0.4126
19466TIP3   OH279888   2.073   5.169  14.189  0.0432  0.3497 -0.5708
19466TIP3    H179889   2.134   5.192  14.119 -0.9120  2.1209 -0.8594
19466TIP3    H279890   2.125   5.116  14.250  1.8525  1.7612 -0.8227
19467TIP3   OH279891   0.092   6.544   1.782 -0.5281  0.2297  0.8330
19467TIP3    H179892   0.169   6.600   1.778 -1.3289  1.5874  2.9581
19467TIP3    H279893   0.118   6.471   1.839 -0.8353  0.7689  1.6779
19468TIP3   OH279894   4.798   6.653  13.428 -0.0567  0.1717 -0.3763
19468TIP3    H179895   4.761   6.739  13.448 -0.8082 -0.2684  0.1878
19468TIP3    H279896   4.887   6.655  13.463  0.0868  0.8661 -0.7666
19469TIP3   OH279897   3.403   2.316   2.071  0.5222 -0.0108  0.3961
19469TIP3    H179898   3.451   2.388   2.112 -0.7390  0.5499  0.9578
19469TIP3    H279899   3.366   2.353   1.991 -0.1940  0.0156  0.7243
19470TIP3   OH279900   6.487   1.540  15.697 -0.3285  0.1656 -0.2786
19470TIP3    H179901   6.573   1.578  15.717 -0.0014 -0.8556  0.3002
19470TIP3    H279902   6.499   1.496  15.613 -0.3918  0.3174 -0.3694
19471TIP3   OH279903   2.425   5.652  13.333  0.4597  0.0300  0.1656
19471TIP3    H179904   2.521   5.654  13.328  0.6094  0.4345  2.3779
19471TIP3    H279905   2.404   5.559  13.339  0.4215 -0.3218 -3.2810
19472TIP3   OH279906   3.420   0.294  17.039  0.0138  0.1254 -0.2739
19472TIP3    H179907   3.448   0.275  17.129 -1.6608 -1.9395 -0.0983
19472TIP3    H279908   3.338   0.341  17.049 -0.9539 -1.4106 -0.6488
19473TIP3   OH279909   5.702   5.405   6.032  0.2243 -0.7912  0.4844
19473TIP3    H179910   5.738   5.317   6.046  0.2698 -0.7255  0.7990
19473TIP3    H279911   5.608   5.395   6.045  0.3976 -0.4681  2.2909
19474TIP3   OH279912   1.802   5.463  15.561 -0.0326  0.1374 -0.2412
19474TIP3    H179913   1.791   5.556  15.581 -0.0706  0.3558 -1.1978
19474TIP3    H279914   1.713   5.429  15.555 -0.0135 -0.0427  0.4410
19475TIP3   OH279915   3.409   1.629  16.917  0.4271  0.1877  0.1257
19475TIP3    H179916   3.420   1.535  16.905  2.1537  0.2658  0.8481
19475TIP3    H279917   3.355   1.656  16.842 -1.4870 -1.5834  0.7416
19476TIP3   OH279918   3.602   0.567   5.402 -0.1362 -0.3661 -0.1662
19476TIP3    H179919   3.517   0.543   5.364  0.0777  0.3186 -1.1085
19476TIP3    H279920   3.581   0.593   5.492 -0.8242 -0.8599 -0.1748
19477TIP3   OH279921   5.291   4.379  11.583 -0.1188 -0.0224  0.7858
19477TIP3    H179922   5.324   4.305  11.532 -1.2942  0.1485 -0.2668
19477TIP3    H279923   5.324   4.363  11.672  1.7377 -0.4735  0.0664
19478TIP3   OH279924   4.370   1.790  12.000 -0.0536  0.0490 -0.1085
19478TIP3    H179925   4.463   1.773  11.983 -0.2159 -0.3088 -0.6472
19478TIP3    H279926   4.370   1.872  12.050  0.6217 -0.5611  0.9329
19479TIP3   OH279927   2.876   6.241  15.175  0.2726  0.1523  0.3233
19479TIP3    H179928   2.962   6.200  15.167 -0.5491 -1.3476 -2.6419
19479TIP3    H279929   2.829   6.187  15.238  0.3941 -1.3777 -0.8287
19480TIP3   OH279930   5.051   1.408  13.451  0.3431 -0.3505  0.4106
19480TIP3    H179931   5.081   1.324  13.416  0.8257 -0.2427  0.5584
19480TIP3    H279932   5.087   1.473  13.391 -0.0656 -0.2477  0.2715
19481TIP3   OH279933   1.283   6.410   3.947  0.2591 -0.7660 -0.4161
19481TIP3    H179934   1.236   6.494   3.953  0.3539 -0.7370 -0.0052
19481TIP3    H279935   1.356   6.428   3.888  0.7788 -0.3090  0.3403
19482TIP3   OH279936   0.239   1.377   3.898 -0.1687  0.8477  0.0046
19482TIP3    H179937   0.235   1.402   3.806  0.0500  2.1348  0.3254
19482TIP3    H279938   0.157   1.409   3.936 -0.6827 -0.4826  0.0961
19483TIP3   OH279939   5.546   1.992  15.951  0.0155 -0.6216 -0.4141
19483TIP3    H179940   5.636   1.989  15.919  0.2691 -2.5943  0.3182
19483TIP3    H279941   5.551   2.040  16.034  0.0302  0.9231 -1.2686
19484TIP3   OH279942   1.491   4.507  11.641 -0.2579 -0.0806  0.4599
19484TIP3    H179943   1.583   4.485  11.659 -0.3495 -1.0586 -0.2256
19484TIP3    H279944   1.475   4.475  11.552 -1.6966 -1.3249  1.1268
19485TIP3   OH279945   1.295   6.674  16.613 -0.0800 -0.2319  0.2461
19485TIP3    H179946   1.332   6.685  16.525 -1.7588  0.6447 -0.3976
19485TIP3    H279947   1.244   6.593  16.608 -1.6385  0.7257 -0.1793
19486TIP3   OH279948   2.030   1.764  16.867  0.8462 -0.5126 -0.1423
19486TIP3    H179949   1.969   1.773  16.940  1.8614  1.7779  0.5413
19486TIP3    H279950   2.111   1.732  16.907  0.7492 -1.4561 -0.6731
19487TIP3   OH279951   1.214   5.982   2.625  0.5613  0.1618 -0.3458
19487TIP3    H179952   1.201   5.888   2.627  0.6707  0.1523 -0.1392
19487TIP3    H279953   1.148   6.017   2.685  1.4750  0.1150  0.7072
19488TIP3   OH279954   1.822   2.694  15.594 -0.1148 -0.0495  0.3732
19488TIP3    H179955   1.875   2.773  15.586 -2.1092  1.5638  2.2717
19488TIP3    H279956   1.763   2.711  15.667 -0.2452 -3.5436  1.2664
19489TIP3   OH279957   5.749   4.779  14.281 -0.1828 -0.1789  0.6409
19489TIP3    H179958   5.784   4.739  14.202  1.3664 -0.5202  1.4480
19489TIP3    H279959   5.665   4.815  14.255  0.9332  1.0342 -1.5424
19490TIP3   OH279960   0.634   2.729   3.849  0.3454  0.6536 -0.4464
19490TIP3    H179961   0.572   2.773   3.791 -1.0309 -0.7545 -0.1213
19490TIP3    H279962   0.650   2.644   3.808  0.3202  0.1283  0.5794
19491TIP3   OH279963   1.012   3.340  17.192  0.1569  0.3672  0.2918
19491TIP3    H179964   0.999   3.281  17.265  1.1274 -0.8694 -0.5034
19491TIP3    H279965   1.067   3.410  17.227  0.6462 -0.2327  0.7326
19492TIP3   OH279966   2.460   0.564  10.655 -0.1880 -0.3636  0.4498
19492TIP3    H179967   2.398   0.582  10.585  0.0578  0.7162  0.5010
19492TIP3    H279968   2.481   0.650  10.692  1.0008 -0.7473  0.7215
19493TIP3   OH279969   1.574   5.900  12.424 -0.0436 -0.0821  0.4262
19493TIP3    H179970   1.521   5.918  12.502  0.6501  0.4890  0.7770
19493TIP3    H279971   1.570   5.805  12.414 -0.6425 -0.1032  0.7979
19494TIP3   OH279972   2.450   3.000   4.564  0.3045  0.0256 -0.4459
19494TIP3    H179973   2.382   2.970   4.503  0.5925 -0.1844 -0.6646
19494TIP3    H279974   2.403   3.057   4.625 -0.1361 -0.3856 -0.3910
19495TIP3   OH279975   3.016   5.881  12.849  0.0730 -0.8365  0.1641
19495TIP3    H179976   3.046   5.937  12.921 -1.0042  2.3194 -1.5962
19495TIP3    H279977   3.091   5.825  12.829  1.8679  1.0613  1.1260
19496TIP3   OH279978   3.788   4.849   4.246 -0.0643  0.2878  0.3826
19496TIP3    H179979   3.725   4.816   4.308  0.1176  0.9837  0.9515
19496TIP3    H279980   3.828   4.771   4.207  0.9901 -0.2000  2.3241
19497TIP3   OH279981   4.453   4.731   1.693  0.2726  0.0016 -0.7519
19497TIP3    H179982   4.368   4.703   1.660 -0.3621  2.0788 -1.0507
19497TIP3    H279983   4.439   4.821   1.721  1.6465 -0.5584  2.0739
19498TIP3   OH279984   2.672   2.625  14.846 -0.5699 -0.3785 -0.8283
19498TIP3    H179985   2.697   2.597  14.758 -0.0492 -2.2460 -0.1461
19498TIP3    H279986   2.698   2.552  14.902 -1.5119  0.4786  0.7945
19499TIP3   OH279987   6.317   1.397  12.214  0.8472  0.6256 -0.0209
19499TIP3    H179988   6.244   1.391  12.152  1.6492  2.5808 -1.2589
19499TIP3    H279989   6.365   1.315  12.201 -1.1342 -0.7734  0.9353
19500TIP3   OH279990   4.362   6.326   5.517 -0.5944  0.1657 -0.0644
19500TIP3    H179991   4.364   6.233   5.541  2.1947  0.4632  1.3775
19500TIP3    H279992   4.404   6.329   5.431 -0.9410  0.0726 -0.2380
19501TIP3   OH279993   2.580   6.183   2.061  0.0315 -0.3886  0.6459
19501TIP3    H179994   2.590   6.251   1.995 -1.0732 -0.4624  0.3870
19501TIP3    H279995   2.572   6.231   2.144  0.3316 -0.2579  0.6023
19502TIP3   OH279996   2.338   4.645  13.256 -0.1091  0.4379 -0.4446
19502TIP3    H179997   2.430   4.663  13.276 -0.7566  1.0162  2.4781
19502TIP3    H279998   2.336   4.551  13.238  1.2140  0.6550 -1.9971
19503TIP3   OH279999   6.596   0.396  11.423  0.6410  0.0255 -0.3289
19503TIP3    H180000   6.657   0.404  11.350  1.3329  2.0779  0.3894
19503TIP3    H280001   6.566   0.486  11.439 -0.0212 -0.4706  1.4605
19504TIP3   OH280002   5.864   1.931   4.779  0.8858  0.6890  0.2253
19504TIP3    H180003   5.883   1.838   4.771  2.5747  1.0365 -0.1950
19504TIP3    H280004   5.888   1.953   4.869  0.1522  0.6645  0.4350
19505TIP3   OH280005   1.448   4.245  14.440 -0.3975 -0.2368 -0.2649
19505TIP3    H180006   1.387   4.318  14.430 -0.7747 -0.4868  0.1576
19505TIP3    H280007   1.418   4.199  14.519 -0.3560 -1.0143 -0.6827
19506TIP3   OH280008   2.182   1.684   1.533 -0.2654 -0.3539  0.3774
19506TIP3    H180009   2.088   1.700   1.546 -0.5718 -1.9458  0.4023
19506TIP3    H280010   2.217   1.677   1.621  0.5802  3.3774  0.5162
19507TIP3   OH280011   3.071   3.698  14.601  0.6733  0.0849 -0.6085
19507TIP3    H180012   3.013   3.700  14.678  1.1678  0.4635 -0.2363
19507TIP3    H280013   3.155   3.666  14.635  0.2758 -2.0075 -1.4427
19508TIP3   OH280014   6.029   5.174   5.159  0.5510 -0.0297 -0.4751
19508TIP3    H180015   5.952   5.139   5.202 -0.0950  0.8255 -0.9000
19508TIP3    H280016   6.067   5.099   5.113 -0.1409 -0.4197 -0.4257
19509TIP3   OH280017   1.477   1.182  11.550  0.1551  0.3398 -0.2623
19509TIP3    H180018   1.410   1.242  11.518 -0.2274  0.1063  0.0828
19509TIP3    H280019   1.460   1.100  11.503 -1.2075 -0.4028  1.3632
19510TIP3   OH280020   6.580   5.911   3.169 -0.1584 -0.0976  0.6876
19510TIP3    H180021   6.582   5.874   3.257  0.3022 -3.4215 -0.5800
19510TIP3    H280022   6.497   5.880   3.132 -1.2647  2.8389  0.4913
19511TIP3   OH280023   5.163   5.962  12.062  0.0754 -0.5180  0.0802
19511TIP3    H180024   5.231   6.024  12.033 -1.4679  0.6383 -1.2927
19511TIP3    H280025   5.146   5.985  12.153  2.7621 -2.0596  1.0687
19512TIP3   OH280026   0.953   3.176   0.691 -0.3853  0.1480 -0.1336
19512TIP3    H180027   0.957   3.270   0.677  0.1051  0.1340 -0.1073
19512TIP3    H280028   0.970   3.138   0.605 -1.7215  0.0845 -0.3851
19513TIP3   OH280029   5.099   4.127  12.501 -0.0390 -0.5493  0.0310
19513TIP3    H180030   5.171   4.162  12.554 -1.6004  0.3163  1.6623
19513TIP3    H280031   5.068   4.203  12.450  0.5083 -1.0460 -1.0867
19514TIP3   OH280032   6.569   2.702  13.244  0.2739  0.2091  0.2245
19514TIP3    H180033   6.554   2.648  13.167  0.6771 -0.8843  0.8861
19514TIP3    H280034   6.513   2.778  13.232 -3.4232 -2.1392  1.0853
19515TIP3   OH280035   0.153   6.694  13.388  0.8157 -0.1325 -0.3635
19515TIP3    H180036   0.243   6.722  13.371  1.2582 -0.5759  1.0939
19515TIP3    H280037   0.159   6.601  13.408  0.1575 -0.0121  0.5094
19516TIP3   OH280038   2.760   1.252  12.539 -0.3348 -0.1830 -0.3137
19516TIP3    H180039   2.712   1.249  12.457  1.6545  0.4860 -1.5861
19516TIP3    H280040   2.710   1.197  12.599 -2.0521 -0.3691 -1.8477
19517TIP3   OH280041   4.153   0.621  16.389  0.8051  0.6777  0.0524
19517TIP3    H180042   4.167   0.532  16.356 -0.6473  0.2935  0.3884
19517TIP3    H280043   4.062   0.622  16.417  0.9963  2.0771  0.7175
19518TIP3   OH280044   6.330   2.950  16.370  0.0460  0.0567 -0.9013
19518TIP3    H180045   6.375   2.871  16.339 -1.3445 -1.4420  0.7084
19518TIP3    H280046   6.341   2.948  16.465 -1.0371  1.1835 -0.7266
19519TIP3   OH280047   4.691   6.716   5.288 -0.4635 -0.4977  0.8609
19519TIP3    H180048   4.637   6.768   5.229 -1.4136 -0.9731  1.3012
19519TIP3    H280049   4.635   6.645   5.317  0.4190 -1.0448  1.2820
19520TIP3   OH280050   1.918   3.392   2.164  0.0597  0.8712  0.0847
19520TIP3    H180051   1.828   3.363   2.145 -0.0230  1.2415 -0.0844
19520TIP3    H280052   1.907   3.477   2.207  0.2589  0.2776  1.3804
19521TIP3   OH280053   1.724   1.308   0.600 -0.0189  0.1648  0.1177
19521TIP3    H180054   1.764   1.345   0.522  0.3080 -1.2630 -0.4228
19521TIP3    H280055   1.747   1.370   0.670 -1.6952  2.3395 -1.1211
19522TIP3   OH280056   4.577   5.122   3.732 -0.0529 -0.2668 -0.2252
19522TIP3    H180057   4.587   5.214   3.709 -0.8890  0.0787  0.7427
19522TIP3    H280058   4.573   5.076   3.648  1.1290  0.4739 -0.7127
19523TIP3   OH280059   4.852   4.757   0.414  0.3287 -0.2600  0.4582
19523TIP3    H180060   4.828   4.840   0.457 -2.2157  0.1908 -1.5765
19523TIP3    H280061   4.810   4.690   0.467  0.6927 -0.0839  0.9771
19524TIP3   OH280062   3.963   0.894  13.271 -0.3350  0.2117  0.5640
19524TIP3    H180063   4.053   0.907  13.241 -0.4865 -0.5484 -0.2699
19524TIP3    H280064   3.910   0.906  13.193 -0.7471 -1.8077  0.4942
19525TIP3   OH280065   1.514   2.977  14.029  0.0876  0.0206  0.3262
19525TIP3    H180066   1.594   2.934  14.058  1.4733  2.3365  0.1331
19525TIP3    H280067   1.448   2.949  14.094  1.4655 -0.4452  1.5889
19526TIP3   OH280068   1.178   3.163   4.466 -0.0525 -0.0102  0.0020
19526TIP3    H180069   1.249   3.227   4.460  0.5765 -0.5881  1.0057
19526TIP3    H280070   1.190   3.122   4.551  0.5316 -2.5874 -1.2124
19527TIP3   OH280071   1.457   6.316   1.224  0.0805 -0.0173 -0.8833
19527TIP3    H180072   1.545   6.352   1.215  0.7862 -1.3074  0.3418
19527TIP3    H280073   1.470   6.221   1.222 -1.1752 -0.2412  0.1315
19528TIP3   OH280074   3.477   0.249  12.912 -0.1064 -0.4555  0.0954
19528TIP3    H180075   3.478   0.252  13.008  0.7787  1.1704  0.0700
19528TIP3    H280076   3.539   0.316  12.885 -1.0290 -0.2414 -1.6422
19529TIP3   OH280077   2.799   5.684   5.275  0.1431 -0.2241  0.3164
19529TIP3    H180078   2.794   5.751   5.206  2.0966 -0.3620 -0.0301
19529TIP3    H280079   2.808   5.734   5.356  0.0681 -0.0536  0.2211
19530TIP3   OH280080   1.347   2.991   5.429 -0.2092 -0.0897  0.6706
19530TIP3    H180081   1.299   2.924   5.381 -0.6019  1.2184 -0.8607
19530TIP3    H280082   1.430   3.000   5.382 -0.5481  1.1257  0.2572
19531TIP3   OH280083   5.332   3.005  11.786  0.1703  0.3978 -0.3354
19531TIP3    H180084   5.273   3.033  11.716 -1.4118 -0.3193  0.6574
19531TIP3    H280085   5.283   2.939  11.834  2.2187 -1.0414 -0.0991
19532TIP3   OH280086   4.787   6.131   2.611 -0.0770 -0.7623  0.7708
19532TIP3    H180087   4.710   6.132   2.669  0.5981  0.1893  1.7067
19532TIP3    H280088   4.755   6.168   2.529 -1.3446 -3.2333  0.0769
19533TIP3   OH280089   0.501   0.417  12.763  0.1870  0.6747  0.5480
19533TIP3    H180090   0.428   0.474  12.738  0.8168  0.8939 -0.9334
19533TIP3    H280091   0.463   0.329  12.766  0.5754 -0.0542 -4.9667
19534TIP3   OH280092   2.966   5.572  14.247 -0.2588  0.3043  0.2570
19534TIP3    H180093   3.041   5.569  14.307  0.6660  1.4236 -0.7730
19534TIP3    H280094   3.001   5.541  14.163 -0.5937  1.9234 -0.5341
19535TIP3   OH280095   2.401   2.551  10.870  0.3595 -0.2730 -0.7504
19535TIP3    H180096   2.366   2.635  10.897 -0.4148 -1.0842  0.8897
19535TIP3    H280097   2.472   2.573  10.809  0.8463  1.5917  0.4198
19536TIP3   OH280098   0.097   2.816   4.039  0.5459 -1.0549 -0.0565
19536TIP3    H180099   0.117   2.783   3.951  0.8057 -0.8329 -0.0821
19536TIP3    H280100   0.022   2.874   4.027  1.4326  0.0587 -0.3541
19537TIP3   OH280101   3.303   0.102   0.135  0.2261 -0.4215  0.3347
19537TIP3    H180102   3.359   0.035   0.095  0.9651  0.8212 -0.7640
19537TIP3    H280103   3.218   0.091   0.092  0.4023 -0.5282  0.0103
19538TIP3   OH280104   1.654   3.949  13.631 -0.1309  1.1138  0.3730
19538TIP3    H180105   1.654   4.014  13.701 -1.5706  1.8326 -0.2605
19538TIP3    H280106   1.632   3.867  13.675 -1.0910  1.5698  0.7668
19539TIP3   OH280107   2.671   2.320  15.937 -0.1646  0.2846  0.5474
19539TIP3    H180108   2.747   2.334  15.993 -0.7363 -0.4907  1.5569
19539TIP3    H280109   2.658   2.225  15.938 -0.5584  0.3171 -0.4099
19540TIP3   OH280110   6.446   6.724   0.028  0.4959  0.3836  0.5490
19540TIP3    H180111   6.356   6.730  -0.004  0.3323 -1.8158  0.4327
19540TIP3    H280112   6.438   6.723   0.123  0.0280 -2.9033  0.5713
19541TIP3   OH280113   4.147   5.421  12.748 -0.4628  0.0290 -0.4375
19541TIP3    H180114   4.071   5.452  12.697 -2.1320 -1.0344  1.2745
19541TIP3    H280115   4.198   5.500  12.765 -1.6150  0.9116 -0.9486
19542TIP3   OH280116   0.342   5.461  14.492 -0.3272 -0.0724  0.1097
19542TIP3    H180117   0.251   5.437  14.472 -2.7101  4.2845  3.7096
19542TIP3    H280118   0.348   5.454  14.587  2.9582  0.4768  0.0355
19543TIP3   OH280119   1.264   2.649  16.991  0.0890 -0.3731  0.2926
19543TIP3    H180120   1.326   2.584  17.024 -0.3512 -0.9363  0.0318
19543TIP3    H280121   1.180   2.625  17.032 -0.0192  0.1934  0.4044
19544TIP3   OH280122   1.660   4.931  13.942 -0.4959  0.2507  0.3213
19544TIP3    H180123   1.722   4.998  13.914 -0.0915 -0.4681 -0.5198
19544TIP3    H280124   1.576   4.976  13.945 -0.3525  0.6348 -0.9260
19545TIP3   OH280125   6.123   3.146   5.190  0.1346  0.3493  0.3590
19545TIP3    H180126   6.192   3.138   5.125 -1.5652 -0.1596 -1.4928
19545TIP3    H280127   6.070   3.067   5.179 -1.3723  1.2201  0.9255
19546TIP3   OH280128   5.817   4.632   3.846  0.0906  0.0042 -0.4605
19546TIP3    H180129   5.898   4.680   3.867 -1.0513  1.6083  0.4886
19546TIP3    H280130   5.754   4.701   3.824 -1.6931 -1.0165  1.2172
19547TIP3   OH280131   1.420   2.582   0.884  0.0166  0.1399  0.1468
19547TIP3    H180132   1.469   2.656   0.920 -0.1096  0.2517  0.0868
19547TIP3    H280133   1.329   2.598   0.909  0.1697 -0.6669  1.2802
19548TIP3   OH280134   0.379   0.069  11.468 -0.1995 -0.3307  0.2827
19548TIP3    H180135   0.339   0.127  11.403  1.4793  1.0954  0.4262
19548TIP3    H280136   0.424   0.128  11.528  1.9506 -1.7509  0.2138
19549TIP3   OH280137   3.114   3.792  14.217 -0.0588  0.1400  0.0935
19549TIP3    H180138   3.130   3.714  14.164 -1.6434  0.3755 -0.7866
19549TIP3    H280139   3.020   3.792  14.232 -0.0775  1.8342  0.1503
19550TIP3   OH280140   3.048   1.108   3.767 -0.6098 -0.7402  0.5208
19550TIP3    H180141   3.095   1.149   3.694  0.6640  0.0554  1.7370
19550TIP3    H280142   2.958   1.141   3.758 -0.3970 -0.3903 -0.4848
19551TIP3   OH280143   4.299   1.784   3.651  0.5629  0.4612  0.0843
19551TIP3    H180144   4.385   1.794   3.611  0.1124  1.3411 -0.7077
19551TIP3    H280145   4.316   1.765   3.743  1.5999  3.4416  0.5966
19552TIP3   OH280146   2.125   1.740   5.500 -0.2360 -0.0510 -0.4056
19552TIP3    H180147   2.131   1.751   5.595  2.0345  0.8190 -0.5851
19552TIP3    H280148   2.033   1.754   5.480 -0.6275  0.5372  1.5816
19553TIP3   OH280149   2.839   6.760  15.322 -0.0629  0.4235  0.7365
19553TIP3    H180150   2.850   6.776  15.416  1.9457 -0.2927  0.6729
19553TIP3    H280151   2.817   6.667  15.317 -0.2240  0.4748  0.4975
19554TIP3   OH280152   4.119   6.129   4.115  0.6920  0.1778  0.3136
19554TIP3    H180153   4.169   6.199   4.158 -0.6785  0.5983  1.3047
19554TIP3    H280154   4.147   6.049   4.160 -0.7187  0.6140  2.0573
19555TIP3   OH280155   5.665   5.374  14.722  0.2881  0.3718 -0.1628
19555TIP3    H180156   5.686   5.463  14.693  0.5589  0.2689 -0.2820
19555TIP3    H280157   5.723   5.317  14.671  1.3305  0.2344  1.1103
19556TIP3   OH280158   3.576   2.867   3.094  0.5744  0.3065  0.7041
19556TIP3    H180159   3.572   2.938   3.158 -1.4172 -0.1681  1.1879
19556TIP3    H280160   3.541   2.791   3.140 -3.4969  0.5340 -1.5463
19557TIP3   OH280161   0.880   5.393  11.552  0.1454 -0.2917  0.5066
19557TIP3    H180162   0.917   5.308  11.533 -1.0282 -0.8477  0.6146
19557TIP3    H280163   0.923   5.453  11.490  0.5252 -1.0580  0.0204
19558TIP3   OH280164   6.567   6.012  17.508 -0.0904  0.0731  0.7030
19558TIP3    H180165   6.636   5.972  17.455  0.6771  0.2413  1.5357
19558TIP3    H280166   6.504   5.942  17.523 -0.4826  0.1048 -0.6702
19559TIP3   OH280167   2.070   5.785   4.670  0.2632  0.0874  0.0907
19559TIP3    H180168   2.094   5.719   4.606 -1.3052  1.5785 -2.2039
19559TIP3    H280169   2.039   5.736   4.746  0.0350 -1.7705 -1.1622
19560TIP3   OH280170   0.294   2.130   0.974  0.0798 -0.3108  0.3156
19560TIP3    H180171   0.283   2.037   0.994  0.3710 -0.7471 -1.3985
19560TIP3    H280172   0.205   2.166   0.975 -0.3183 -1.1475 -1.3230
19561TIP3   OH280173   3.276   2.613  12.073 -0.1152 -0.1366 -0.0519
19561TIP3    H180174   3.226   2.586  12.150  0.3201 -1.6343 -0.2766
19561TIP3    H280175   3.345   2.547  12.065 -0.0361  0.1162 -1.6237
19562TIP3   OH280176   1.612   4.424  17.141 -0.0324 -0.7411 -0.2093
19562TIP3    H180177   1.634   4.515  17.123 -0.6241 -0.3804  0.8018
19562TIP3    H280178   1.584   4.424  17.233 -2.0730 -1.5329 -0.7718
19563TIP3   OH280179   5.263   1.804   3.761 -0.0642  0.3045 -0.0244
19563TIP3    H180180   5.191   1.773   3.817  1.3334 -2.4261  0.4086
19563TIP3    H280181   5.222   1.814   3.674 -1.2384  0.0524  0.4725
19564TIP3   OH280182   0.198   5.830   4.640  0.0197 -0.0851 -0.1005
19564TIP3    H180183   0.238   5.894   4.700 -1.8115  0.3798  0.7124
19564TIP3    H280184   0.184   5.752   4.694  0.8847 -0.6660 -0.6949
19565TIP3   OH280185   6.363   5.515   2.166 -0.0620  0.1103 -0.3477
19565TIP3    H180186   6.418   5.579   2.122 -0.5722  0.4854 -0.4529
19565TIP3    H280187   6.276   5.529   2.131 -0.2465 -0.4242 -0.1278
19566TIP3   OH280188   1.296   6.754  12.249  0.1905  0.2353 -0.0112
19566TIP3    H180189   1.235   6.815  12.290 -0.1239  1.3624 -2.0231
19566TIP3    H280190   1.244   6.708  12.183  0.3615 -2.4511  1.5830
19567TIP3   OH280191   3.865   1.638   3.594  0.6333 -0.3050  0.0142
19567TIP3    H180192   3.897   1.596   3.514 -1.1139 -0.9202 -0.4186
19567TIP3    H280193   3.828   1.566   3.645  0.2233  0.3227  0.6046
19568TIP3   OH280194   1.617   2.330  15.571 -0.0142  1.0881  1.0907
19568TIP3    H180195   1.622   2.236  15.589 -0.1216  0.6831 -0.7702
19568TIP3    H280196   1.524   2.350  15.572 -0.1759  0.6090 -0.9492
19569TIP3   OH280197   5.358   4.627   1.201 -0.0317 -0.0476  0.0625
19569TIP3    H180198   5.432   4.588   1.247  0.4432  0.5412 -0.1852
19569TIP3    H280199   5.292   4.558   1.198  0.2894 -0.3963  0.7874
19570TIP3   OH280200   2.739   4.389   0.271 -0.7788 -0.2012 -0.1209
19570TIP3    H180201   2.727   4.434   0.188 -1.4869 -1.2091 -0.5877
19570TIP3    H280202   2.656   4.343   0.285 -1.4439  1.5023  2.1237
19571TIP3   OH280203   5.352   3.757  13.694 -0.1482 -0.2828 -0.1539
19571TIP3    H180204   5.300   3.727  13.769 -0.2940  1.2066  0.3711
19571TIP3    H280205   5.287   3.779  13.627 -0.1744  0.6267  0.1482
19572TIP3   OH280206   0.572   3.710   0.349  0.1361 -0.2786  0.3240
19572TIP3    H180207   0.521   3.676   0.422  0.6289 -0.8372  0.4167
19572TIP3    H280208   0.511   3.710   0.275  0.1220 -1.3696  0.3287
19573TIP3   OH280209   6.129   2.568  17.383  0.4231  0.7884  0.1665
19573TIP3    H180210   6.051   2.539  17.429 -1.4684  2.7518 -1.5932
19573TIP3    H280211   6.200   2.553  17.446 -1.2571 -1.3584  1.7145
19574TIP3   OH280212   4.251   4.229   2.327  0.1199  0.2844  0.0954
19574TIP3    H180213   4.218   4.142   2.306  0.4437  0.7727 -2.9188
19574TIP3    H280214   4.341   4.215   2.355  0.0170 -0.3911  0.1002
19575TIP3   OH280215   4.868   6.220   1.453  0.1058  0.6017 -0.0822
19575TIP3    H180216   4.825   6.283   1.512 -0.0391  1.3979 -1.0032
19575TIP3    H280217   4.802   6.202   1.386  0.7277  0.7775 -0.7572
19576TIP3   OH280218   3.669   6.064  15.422  0.4457  0.6646  0.1900
19576TIP3    H180219   3.723   6.134  15.385 -0.9733  1.3460 -0.7111
19576TIP3    H280220   3.702   6.051  15.510  0.2349  3.0730  0.6844
19577TIP3   OH280221   5.088   4.792   2.193 -0.7956 -0.1053 -0.5557
19577TIP3    H180222   5.091   4.699   2.213 -1.4386  0.2985  1.8143
19577TIP3    H280223   4.995   4.812   2.185 -0.7171  0.4630 -0.1614
19578TIP3   OH280224   0.036   5.537  15.478 -0.0428 -0.5895 -0.0613
19578TIP3    H180225   0.075   5.596  15.414 -1.8500 -1.7445 -2.3573
19578TIP3    H280226  -0.020   5.594  15.532 -0.2912  0.1025 -1.0183
19579TIP3   OH280227   2.010   4.179   5.738 -0.3223 -0.4752  0.2005
19579TIP3    H180228   2.057   4.173   5.821 -0.0886  1.6252  0.2760
19579TIP3    H280229   1.953   4.103   5.738 -0.8240 -0.1971  2.6175
19580TIP3   OH280230   2.677   0.070   0.318 -0.5164  0.0828  0.4239
19580TIP3    H180231   2.636   0.147   0.278 -1.0576 -0.6896 -0.5406
19580TIP3    H280232   2.742   0.042   0.254 -1.7389 -1.4708 -0.1918
19581TIP3   OH280233   5.088   3.806  16.430  0.3230 -0.1802 -0.0761
19581TIP3    H180234   5.086   3.824  16.336  0.1705  0.6856  0.0858
19581TIP3    H280235   5.021   3.864  16.467  1.5230  0.7235  0.7674
19582TIP3   OH280236   0.054   0.633   6.327  0.6625  0.3872  0.4185
19582TIP3    H180237   0.081   0.720   6.357 -1.4747  1.2595  0.0030
19582TIP3    H280238   0.033   0.586   6.408  0.5448  0.7194  0.5854
19583TIP3   OH280239   0.189   3.957  16.248 -0.0568  0.4590 -0.1442
19583TIP3    H180240   0.281   3.965  16.226 -0.4631  1.4476 -1.6222
19583TIP3    H280241   0.181   3.869  16.286  1.6481  0.7401  0.9714
19584TIP3   OH280242   6.384   2.175   0.857  0.2724 -0.2449  0.2161
19584TIP3    H180243   6.321   2.112   0.821  1.4656 -1.5010  0.2392
19584TIP3    H280244   6.469   2.140   0.832  0.9651  1.9326 -0.6517
19585TIP3   OH280245   3.725   2.907  13.173  0.2026  0.0887  0.4437
19585TIP3    H180246   3.704   2.999  13.191 -0.3702 -0.0279  0.3712
19585TIP3    H280247   3.685   2.859  13.246 -1.0425 -0.2694 -0.4417
19586TIP3   OH280248   3.519   4.792   3.964  0.2078  0.5482  0.0784
19586TIP3    H180249   3.519   4.709   4.011  1.9129  0.0568 -0.6946
19586TIP3    H280250   3.463   4.849   4.016 -2.3253 -1.4891 -0.2049
19587TIP3   OH280251   2.166   5.663   0.713 -0.4811  0.4972  0.0779
19587TIP3    H180252   2.216   5.721   0.656  0.1102  0.6296  0.7159
19587TIP3    H280253   2.144   5.588   0.657 -0.9119  1.1471 -0.6366
19588TIP3   OH280254   5.687   0.083  14.999  0.2930  0.3573 -0.3205
19588TIP3    H180255   5.662   0.040  15.081 -0.7506  1.0691 -0.2490
19588TIP3    H280256   5.782   0.093  15.005  0.4327 -0.9960  0.1054
19589TIP3   OH280257   0.454   4.632   0.507  0.7802 -0.4660  0.1636
19589TIP3    H180258   0.464   4.724   0.531  0.6969 -0.2097 -0.7525
19589TIP3    H280259   0.535   4.610   0.461  0.1235 -0.3606 -1.0980
19590TIP3   OH280260   2.098   1.243  16.834 -0.2301  0.4309 -0.3737
19590TIP3    H180261   2.178   1.281  16.797  0.2783 -0.6146 -0.3820
19590TIP3    H280262   2.130   1.175  16.893 -1.1072  0.4202  0.0967
19591TIP3   OH280263   5.411   3.911  16.941  0.5539  0.1920  0.3398
19591TIP3    H180264   5.383   3.997  16.910 -2.0180 -0.5131  0.4389
19591TIP3    H280265   5.413   3.857  16.862  0.7840  0.0306  0.4561
19592TIP3   OH280266   3.846   3.249  16.821  0.7476 -0.0205 -0.4370
19592TIP3    H180267   3.934   3.212  16.821  1.3751  1.3960 -0.6822
19592TIP3    H280268   3.855   3.331  16.773 -0.6015  0.3953 -0.0194
19593TIP3   OH280269   5.470   1.977  13.551  0.2309  0.4253 -0.2592
19593TIP3    H180270   5.460   1.970  13.646 -0.6648 -0.7062 -0.4138
19593TIP3    H280271   5.540   1.915  13.530  0.9353  1.2100 -0.2679
19594TIP3   OH280272   3.054   4.226   1.359  0.2069 -0.0061 -0.1251
19594TIP3    H180273   3.137   4.241   1.314  0.4106 -1.8599 -0.4638
19594TIP3    H280274   2.996   4.192   1.291  0.1013 -1.5417  0.6852
19595TIP3   OH280275   5.385   1.496  10.653 -0.3706  0.3998 -0.3999
19595TIP3    H180276   5.480   1.483  10.650 -0.2114  1.5868 -1.2960
19595TIP3    H280277   5.369   1.538  10.737 -0.3107 -1.1078  0.4066
19596TIP3   OH280278   6.418   6.691  15.991  0.1318  0.2804 -0.5179
19596TIP3    H180279   6.458   6.760  15.938 -1.4315 -1.4420 -4.3086
19596TIP3    H280280   6.492   6.644  16.030  1.2606  3.1814  1.1927
19597TIP3   OH280281   0.627   3.491   0.679  0.1835  0.1419 -0.0180
19597TIP3    H180282   0.638   3.440   0.599  0.8534 -0.4788  0.4517
19597TIP3    H280283   0.646   3.429   0.750 -0.9955  0.5229  0.6538
19598TIP3   OH280284   5.104   1.060   5.368  0.4233 -0.2992 -0.6397
19598TIP3    H180285   5.081   1.000   5.296  0.0927 -0.5214 -0.3490
19598TIP3    H280286   5.193   1.034   5.392 -0.3287 -1.8905  0.6743
19599TIP3   OH280287   0.639   0.979   0.712  0.2201  0.1976  0.4974
19599TIP3    H180288   0.719   1.006   0.667  0.1916  0.1798  0.4362
19599TIP3    H280289   0.667   0.961   0.802 -0.0856  2.2328  1.0511
19600TIP3   OH280290   0.455   6.145   4.993 -0.1839 -1.0025  0.1970
19600TIP3    H180291   0.519   6.210   4.965 -2.1144  1.9292  2.0053
19600TIP3    H280292   0.465   6.142   5.088 -1.6544 -1.6359  0.3607
19601TIP3   OH280293   4.209   6.686   6.319 -0.4004 -0.0513  0.1622
19601TIP3    H180294   4.187   6.658   6.408  2.5421  0.2329  1.0919
19601TIP3    H280295   4.171   6.773   6.311 -1.3484 -0.3860  0.8437
19602TIP3   OH280296   2.600   1.859  13.624  0.1976 -0.0467 -0.6586
19602TIP3    H180297   2.645   1.789  13.671 -1.4892 -0.3836  0.5559
19602TIP3    H280298   2.595   1.829  13.534 -0.6298 -1.6197 -0.1358
19603TIP3   OH280299   2.311   6.699  14.266  0.1300  0.0422  0.2529
19603TIP3    H180300   2.396   6.707  14.311 -0.7484  0.6731  1.8997
19603TIP3    H280301   2.261   6.774  14.298 -0.9220 -0.0863 -1.0317
19604TIP3   OH280302   5.960   4.757   3.217 -0.4155 -0.0994  0.2936
19604TIP3    H180303   5.909   4.787   3.143  1.4112  1.0384 -0.5768
19604TIP3    H280304   5.911   4.786   3.294 -0.3447  2.3311 -0.5057
19605TIP3   OH280305   6.162   5.269  17.238  0.5155 -0.2938  0.2971
19605TIP3    H180306   6.138   5.356  17.207  1.2369  0.0590  0.6824
19605TIP3    H280307   6.249   5.254  17.202  0.3935 -0.8623  0.2282
19606TIP3   OH280308   2.063   3.912  13.765  0.4031 -0.0908 -0.0532
19606TIP3    H180309   2.059   3.931  13.671  3.1664 -0.4606 -0.3177
19606TIP3    H280310   2.074   3.997  13.807 -1.0992  0.1027  0.0088
19607TIP3   OH280311   5.293   3.306  13.823  0.0769 -0.3972 -0.0495
19607TIP3    H180312   5.346   3.369  13.873 -2.0295  0.6455  1.0148
19607TIP3    H280313   5.318   3.321  13.732  0.7286  0.9224  0.3140
19608TIP3   OH280314   3.517   5.295   0.518  0.6231  0.1663 -0.0404
19608TIP3    H180315   3.582   5.357   0.551  0.1131  0.5896  0.1911
19608TIP3    H280316   3.437   5.347   0.510 -0.1571 -0.7602  1.3934
19609TIP3   OH280317   2.744   5.478  17.101  0.2517  0.3627 -0.7095
19609TIP3    H180318   2.688   5.425  17.157 -0.0318  0.4763 -0.8873
19609TIP3    H280319   2.790   5.414  17.047  1.8024  0.1293  0.8018
19610TIP3   OH280320   1.429   4.335  10.752  0.2936  0.4301  0.1554
19610TIP3    H180321   1.516   4.311  10.785 -0.1145 -1.9024 -0.3020
19610TIP3    H280322   1.447   4.395  10.680  1.3980  1.6773  1.3980
19611TIP3   OH280323   4.670   1.075   4.282  0.5045 -0.0522  0.7837
19611TIP3    H180324   4.743   1.065   4.343  1.4191 -0.0984 -0.2706
19611TIP3    H280325   4.621   0.993   4.290  1.3404 -0.5921  0.5528
19612TIP3   OH280326   4.916   5.500  16.721  0.3751 -0.9590  0.0934
19612TIP3    H180327   4.928   5.407  16.740  0.5477 -1.4751 -2.2292
19612TIP3    H280328   4.832   5.506  16.677  0.9287 -0.2357 -0.9284
19613TIP3   OH280329   2.639   4.241  15.894  0.2216  0.0194  0.0105
19613TIP3    H180330   2.627   4.252  15.800 -1.4682  1.2925  0.3201
19613TIP3    H280331   2.671   4.152  15.904 -0.5084 -0.4764 -1.7202
19614TIP3   OH280332   2.484   1.858   1.998  0.2630  0.1577  0.0957
19614TIP3    H180333   2.531   1.923   1.947 -0.0026  0.2607 -0.0215
19614TIP3    H280334   2.394   1.890   2.001 -0.0789 -0.6512 -0.7366
19615TIP3   OH280335   0.859   0.452   0.919 -0.0268  0.0542 -0.0303
19615TIP3    H180336   0.781   0.506   0.935  0.0886  0.5985 -1.2209
19615TIP3    H280337   0.843   0.412   0.833  1.3472  0.8148 -0.6655
19616TIP3   OH280338   3.758   4.989  11.567 -0.6505 -0.3640 -0.2579
19616TIP3    H180339   3.740   5.053  11.636 -0.1866  0.1748 -0.6328
19616TIP3    H280340   3.706   5.019  11.492  2.4116  1.7766 -1.6923
19617TIP3   OH280341   0.304   5.664  13.624 -0.3298  0.4542  0.0930
19617TIP3    H180342   0.236   5.613  13.668  0.1466 -0.5988 -0.3573
19617TIP3    H280343   0.256   5.716  13.559 -0.8033  0.3959  0.3908
19618TIP3   OH280344   4.453   6.418   4.971 -0.2032 -0.1777 -0.4963
19618TIP3    H180345   4.526   6.355   4.971 -1.9383 -2.3663  0.8986
19618TIP3    H280346   4.399   6.392   4.897 -1.5675 -1.2394  0.8032
19619TIP3   OH280347   4.465   0.628  12.894  1.2997  0.7379  0.2415
19619TIP3    H180348   4.463   0.666  12.982 -1.1325 -0.5744  0.8434
19619TIP3    H280349   4.414   0.687  12.840 -0.5061 -0.3497  0.6583
19620TIP3   OH280350   4.291   0.257   5.359 -0.5865  0.2012  0.5175
19620TIP3    H180351   4.336   0.283   5.278  0.1373 -1.5496  0.3100
19620TIP3    H280352   4.351   0.283   5.428  0.3937 -1.3168  0.2838
19621TIP3   OH280353   4.643   2.991  16.212 -0.2352  0.2568 -0.3275
19621TIP3    H180354   4.713   3.047  16.247 -1.3591  0.4074  1.8774
19621TIP3    H280355   4.647   2.912  16.266 -0.0651 -0.9058 -1.9763
19622TIP3   OH280356   4.596   6.692  13.933  0.3257 -0.8472 -0.3919
19622TIP3    H180357   4.639   6.769  13.970  0.2620 -0.2811 -1.4427
19622TIP3    H280358   4.668   6.633  13.910  0.5805  0.0283 -1.9939
19623TIP3   OH280359   3.638   1.735  13.638  0.1711  0.2361 -0.2556
19623TIP3    H180360   3.545   1.727  13.660  0.0806  0.5923 -0.4939
19623TIP3    H280361   3.663   1.821  13.671  0.4825  0.0378  0.0295
19624TIP3   OH280362   6.679   4.316   0.594  1.1795  0.2309 -0.0328
19624TIP3    H180363   6.605   4.289   0.540  0.5159 -0.2720  1.0771
19624TIP3    H280364   6.713   4.395   0.551 -0.3334  0.7829 -0.3017
19625TIP3   OH280365   5.339   1.473  16.131  0.1262 -0.4132 -0.3993
19625TIP3    H180366   5.289   1.398  16.163 -0.6749 -0.4891 -1.7803
19625TIP3    H280367   5.331   1.538  16.201  0.2858 -1.3442  0.5252
19626TIP3   OH280368   1.133   3.732   1.593 -0.4199 -0.0814 -0.5998
19626TIP3    H180369   1.081   3.679   1.653 -1.3421  1.0237 -0.3746
19626TIP3    H280370   1.073   3.801   1.564  0.8785  1.2106 -0.3891
19627TIP3   OH280371   0.678   2.804  11.282 -0.2379  0.2218 -0.3455
19627TIP3    H180372   0.768   2.835  11.298  0.0419 -0.1306 -1.1694
19627TIP3    H280373   0.635   2.812  11.367  0.1944  1.6185 -0.2229
19628TIP3   OH280374   6.294   4.409  11.863 -0.0393  0.0106 -0.5308
19628TIP3    H180375   6.299   4.339  11.797 -2.5861  0.2970 -1.1338
19628TIP3    H280376   6.240   4.372  11.933 -1.2687  1.2538 -0.7764
19629TIP3   OH280377   0.695   2.598  12.338 -0.8709 -0.6016 -0.0760
19629TIP3    H180378   0.777   2.581  12.384 -0.9772 -0.0344  0.3280
19629TIP3    H280379   0.722   2.640  12.256 -0.6931 -1.4807 -0.4884
19630TIP3   OH280380   1.647   2.755   2.422 -0.6190 -0.6043  0.6336
19630TIP3    H180381   1.598   2.732   2.343  0.3198 -0.3384 -0.0313
19630TIP3    H280382   1.734   2.718   2.409 -0.5627 -0.9038  1.7251
19631TIP3   OH280383   5.851   2.943  11.595 -0.1393  0.0819 -0.5920
19631TIP3    H180384   5.902   3.000  11.537  1.8220 -2.1004 -1.1298
19631TIP3    H280385   5.837   2.996  11.674  2.5752  1.0080 -0.6105
19632TIP3   OH280386   5.987   4.107  13.836  0.1739  0.5850  0.5932
19632TIP3    H180387   6.022   4.186  13.879  0.5065  0.6959  0.1270
19632TIP3    H280388   6.065   4.061  13.804 -0.0520  0.3299  0.4094
19633TIP3   OH280389   1.341   3.214  12.365  0.4095 -0.4156 -0.9395
19633TIP3    H180390   1.407   3.145  12.373  0.6741 -0.0034  0.8996
19633TIP3    H280391   1.269   3.184  12.420  0.3096  0.5183 -0.5504
19634TIP3   OH280392   5.561   2.131   4.519  0.3923  0.2997  0.4339
19634TIP3    H180393   5.598   2.089   4.596 -0.0706  1.0494  1.0714
19634TIP3    H280394   5.548   2.059   4.457  2.6862 -0.0443  0.2448
19635TIP3   OH280395   4.528   0.071  12.107  0.1847 -0.2744  0.5234
19635TIP3    H180396   4.591   0.013  12.064 -0.1840 -0.1836 -0.1459
19635TIP3    H280397   4.487   0.016  12.174  0.1219 -0.6735  0.1592
19636TIP3   OH280398   6.125   0.620   0.647  0.3691  0.2906 -0.2636
19636TIP3    H180399   6.174   0.592   0.724 -0.7653 -0.4407  0.2232
19636TIP3    H280400   6.063   0.548   0.631  0.8491  0.2314 -2.1019
19637TIP3   OH280401   6.205   5.334   2.523 -0.5584 -0.0039 -0.6007
19637TIP3    H180402   6.151   5.408   2.495 -2.9452 -1.3861  0.0461
19637TIP3    H280403   6.246   5.363   2.605 -1.2752  0.6812 -0.4818
19638TIP3   OH280404   4.079   0.908  14.550  0.3549  0.0876  0.0939
19638TIP3    H180405   4.045   0.851  14.482  0.2149 -0.6467  0.7713
19638TIP3    H280406   4.163   0.939  14.516  0.9287 -1.3456  0.1545
19639TIP3   OH280407   2.824   5.724   6.105 -0.1888 -0.2342  0.6106
19639TIP3    H180408   2.821   5.642   6.155  2.6364 -0.5601  0.3849
19639TIP3    H280409   2.852   5.790   6.168  0.8274 -0.1252  0.0600
19640TIP3   OH280410   5.845   1.632   6.288  0.2135 -0.0074 -0.4714
19640TIP3    H180411   5.871   1.569   6.355 -3.7794  0.4603  1.8518
19640TIP3    H280412   5.897   1.710   6.307 -0.3830 -0.1010  1.8212
19641TIP3   OH280413   3.298   3.032   3.107  0.1733  0.0948 -0.1560
19641TIP3    H180414   3.274   3.052   3.016  0.0068  1.8552  0.2437
19641TIP3    H280415   3.344   3.110   3.137  0.8004 -0.7326  1.0803
19642TIP3   OH280416   0.266   6.136   1.188 -1.0061  0.1652  0.2406
19642TIP3    H180417   0.198   6.188   1.231 -2.1601  0.7266 -2.0977
19642TIP3    H280418   0.236   6.127   1.098  2.0279  0.4433 -0.9243
19643TIP3   OH280419   4.476   0.977  15.600  0.3843  0.2659 -0.2747
19643TIP3    H180420   4.438   1.050  15.648  0.2039 -0.1379  0.2016
19643TIP3    H280421   4.543   1.018  15.545 -0.6119  0.9521 -1.0004
19644TIP3   OH280422   3.681   2.141  17.440  0.0172 -0.0917 -0.6135
19644TIP3    H180423   3.615   2.128  17.508  1.2290 -4.3497  0.0184
19644TIP3    H280424   3.639   2.112  17.360 -0.0192  0.7883 -0.9223
19645TIP3   OH280425   2.267   0.931   3.830 -0.4504 -0.0552 -0.0400
19645TIP3    H180426   2.337   0.921   3.896 -1.6555  0.8022  1.4174
19645TIP3    H280427   2.287   0.863   3.765  1.1984 -0.4598  0.8129
19646TIP3   OH280428   4.213   5.371   3.676 -0.2694 -0.1653  0.2378
19646TIP3    H180429   4.239   5.439   3.613  0.5715 -0.4025  0.3167
19646TIP3    H280430   4.137   5.330   3.636 -0.1231  0.1044 -0.3393
19647TIP3   OH280431   4.209   1.963   6.787 -0.3178 -0.0655 -0.5087
19647TIP3    H180432   4.144   2.022   6.825  0.4864 -0.2476  1.2534
19647TIP3    H280433   4.208   1.887   6.845  1.4447 -0.0595 -0.4342
19648TIP3   OH280434   1.905   2.366   1.577  0.2631  0.1784 -0.3607
19648TIP3    H180435   1.870   2.277   1.574 -0.4057  0.3735  0.7690
19648TIP3    H280436   1.828   2.421   1.591  0.7495  0.8582 -0.3008
19649TIP3   OH280437   6.307   3.312   2.478 -0.1573  0.1406 -0.0587
19649TIP3    H180438   6.395   3.324   2.515 -0.0828 -2.2596  0.7374
19649TIP3    H280439   6.262   3.394   2.498  1.7592  1.2832 -0.1235
19650TIP3   OH280440   1.980   3.006  12.780 -0.7132  0.3920 -0.7399
19650TIP3    H180441   1.971   2.923  12.826  0.2264 -0.1186 -1.4287
19650TIP3    H280442   1.974   3.073  12.848  0.3567 -0.3240  0.0955
19651TIP3   OH280443   2.771   6.227  12.786 -0.2148  0.2739 -0.4106
19651TIP3    H180444   2.693   6.254  12.738 -0.7806 -0.0670  0.3162
19651TIP3    H280445   2.840   6.284  12.752 -1.0214  1.4091 -0.2099
19652TIP3   OH280446   4.756   1.161   5.152 -0.9690  0.4452 -0.0602
19652TIP3    H180447   4.772   1.069   5.171 -1.5180  0.4773  0.5923
19652TIP3    H280448   4.818   1.209   5.208 -0.6061  0.4752 -0.4811
19653TIP3   OH280449   1.555   2.827   6.132 -0.5207  0.2504 -0.5224
19653TIP3    H180450   1.591   2.837   6.220 -0.8214 -1.7138 -0.1372
19653TIP3    H280451   1.465   2.797   6.146 -0.4514 -0.4766 -1.4816
19654TIP3   OH280452   3.096   1.929   2.026 -0.4162 -0.3689  0.5703
19654TIP3    H180453   3.110   1.837   2.007 -0.3942 -0.6424  1.8303
19654TIP3    H280454   3.003   1.935   2.049 -0.2754 -0.2041  1.1201
19655TIP3   OH280455   4.339   0.787  12.726 -0.3187  0.0367 -0.2829
19655TIP3    H180456   4.348   0.881  12.739  0.2962  0.1380 -1.2904
19655TIP3    H280457   4.253   0.777  12.685 -0.1128  0.2464 -0.7859
19656TIP3   OH280458   0.824   0.002  14.096  0.3170 -0.0643 -0.5301
19656TIP3    H180459   0.892   0.042  14.150 -0.6748  0.6667  0.2057
19656TIP3    H280460   0.766  -0.042  14.158 -0.0236 -0.4876 -1.1301
19657TIP3   OH280461   2.020   4.642   3.604 -0.1788  0.3932  0.3586
19657TIP3    H180462   1.959   4.578   3.641  0.1529 -0.2491 -0.1900
19657TIP3    H280463   1.966   4.694   3.543 -0.0847 -0.5170 -0.5270
19658TIP3   OH280464   5.594   3.048  14.502 -0.1042  0.4287 -0.4506
19658TIP3    H180465   5.669   3.022  14.555  0.0927  2.4836  0.3937
19658TIP3    H280466   5.557   2.966  14.469  2.2389 -0.6640 -0.5410
19659TIP3   OH280467   2.989   3.385   1.874 -0.1732  0.1567  0.4627
19659TIP3    H180468   3.063   3.373   1.932 -0.1623 -2.2942  0.0221
19659TIP3    H280469   2.975   3.480   1.873  4.0512  0.9726 -0.8336
19660TIP3   OH280470   1.565   2.101   1.827 -0.3725  0.7166  0.0871
19660TIP3    H180471   1.593   2.136   1.911  0.7797 -1.4655  0.7090
19660TIP3    H280472   1.641   2.112   1.770 -1.4533  3.0337 -1.0304
19661TIP3   OH280473   4.317   4.601  15.267 -0.0048  0.2381 -0.3270
19661TIP3    H180474   4.287   4.650  15.190 -0.4903  0.5265  0.0445
19661TIP3    H280475   4.242   4.600  15.326  0.1711 -0.5010 -0.1035
19662TIP3   OH280476   5.863   5.529  15.701 -0.3918 -0.1670 -0.5689
19662TIP3    H180477   5.892   5.525  15.610  0.2290 -1.0346 -0.3446
19662TIP3    H280478   5.788   5.469  15.705 -0.7694  0.2971 -0.6279
19663TIP3   OH280479   0.406   6.008  16.027 -0.2297 -0.6582 -0.2643
19663TIP3    H180480   0.316   6.010  15.995  0.1291  0.9944 -1.2821
19663TIP3    H280481   0.397   6.022  16.122 -0.9985  0.4578 -0.4860
19664TIP3   OH280482   5.539   3.487  12.585 -0.3347  0.5251 -0.0653
19664TIP3    H180483   5.537   3.574  12.626  0.6701  0.8231 -0.6202
19664TIP3    H280484   5.630   3.459  12.592 -1.0152 -1.4392  2.0079
19665TIP3   OH280485   3.241   0.241  13.128  0.8040 -0.0350  0.4465
19665TIP3    H180486   3.332   0.246  13.157  0.6341 -0.3515  1.0408
19665TIP3    H280487   3.193   0.296  13.191  0.5622  0.0127  0.2208
19666TIP3   OH280488   3.444   0.045   1.965 -0.2311 -0.4408  0.5658
19666TIP3    H180489   3.480   0.041   1.876  2.2258 -0.8000  1.4988
19666TIP3    H280490   3.412   0.135   1.974 -0.1160 -0.2751 -0.5309
19667TIP3   OH280491   5.261   2.427   4.664 -0.1400 -0.0469  0.8403
19667TIP3    H180492   5.197   2.384   4.607  1.0349  0.1230 -0.6494
19667TIP3    H280493   5.336   2.445   4.608  1.6639 -1.1182  2.7527
19668TIP3   OH280494   6.182   3.471  13.759 -1.0365  0.3339 -0.5663
19668TIP3    H180495   6.141   3.556  13.742  1.8499  2.5992  2.4127
19668TIP3    H280496   6.269   3.479  13.719  0.0903 -0.2935  1.6381
19669TIP3   OH280497   2.582   3.573   3.158  0.4060 -0.3337 -0.2092
19669TIP3    H180498   2.494   3.607   3.145  0.2845  0.3477  2.0241
19669TIP3    H280499   2.583   3.491   3.108 -1.1102  0.1723 -1.1559
19670TIP3   OH280500   6.332   3.157   5.432  0.0693  0.0367 -0.1434
19670TIP3    H180501   6.289   3.133   5.349 -0.1204 -1.8512  0.4428
19670TIP3    H280502   6.278   3.227   5.467  0.4132  1.1957 -1.8118
19671TIP3   OH280503   6.316   5.666  11.009  0.1401 -0.0860  0.3174
19671TIP3    H180504   6.339   5.575  11.026  1.9478  0.4989  1.1456
19671TIP3    H280505   6.314   5.672  10.913 -0.0236 -0.9932  0.2544
19672TIP3   OH280506   0.511   6.539   5.143 -0.1655  0.5301  0.9564
19672TIP3    H180507   0.424   6.579   5.142  0.0407  1.1831  3.0790
19672TIP3    H280508   0.537   6.534   5.051 -1.8602  1.6081  0.3783
19673TIP3   OH280509   1.190   2.638   0.174 -0.0211 -0.0055 -0.5206
19673TIP3    H180510   1.125   2.569   0.188  3.1214 -2.8597  1.8992
19673TIP3    H280511   1.221   2.624   0.085 -0.0129 -1.3051 -0.3472
19674TIP3   OH280512   6.333   4.907  13.180 -0.4004  0.4750  0.5937
19674TIP3    H180513   6.265   4.842  13.160 -1.9694  2.1862  0.1142
19674TIP3    H280514   6.377   4.921  13.096 -0.0400  0.0322  0.7046
19675TIP3   OH280515   6.202   3.771  13.327  0.6958  0.1542 -0.2668
19675TIP3    H180516   6.200   3.690  13.378 -2.5286  0.9643  1.1822
19675TIP3    H280517   6.234   3.837  13.388 -2.9385  1.0829  0.8750
19676TIP3   OH280518   0.980   0.924  13.257 -0.1898  0.5938 -0.2472
19676TIP3    H180519   0.954   0.850  13.203 -0.9128  1.3131 -0.8978
19676TIP3    H280520   1.071   0.941  13.231 -0.2734  0.4305 -0.6570
19677TIP3   OH280521   1.837   1.345  14.955 -0.1505 -0.4256  0.1970
19677TIP3    H180522   1.795   1.428  14.936 -1.7805 -1.0947  0.7014
19677TIP3    H280523   1.931   1.361  14.942 -0.4657  1.3870  0.0190
19678TIP3   OH280524   5.386   0.960   0.526  0.0243  0.2116 -0.6053
19678TIP3    H180525   5.323   1.031   0.511  0.1651  0.5104  0.1669
19678TIP3    H280526   5.380   0.905   0.448 -0.7734  0.5597 -0.7950
19679TIP3   OH280527   5.794   5.052  16.032  0.1165 -0.9694  0.3961
19679TIP3    H180528   5.827   5.030  16.119  1.0347  0.3748  0.4177
19679TIP3    H280529   5.730   5.122  16.048 -0.8843 -1.7883  0.1119
19680TIP3   OH280530   3.238   1.639  16.664 -0.2466 -0.1533  0.1232
19680TIP3    H180531   3.293   1.589  16.603 -0.0350 -0.1702  0.3219
19680TIP3    H280532   3.187   1.698  16.609 -0.5574 -0.6467 -0.1212
19681TIP3   OH280533   1.832   1.670  14.966 -0.3359  0.1763  0.3970
19681TIP3    H180534   1.927   1.670  14.954 -0.4506 -0.5347 -0.6533
19681TIP3    H280535   1.797   1.633  14.884 -1.5598  1.0703  0.4899
19682TIP3   OH280536   5.414   1.711  11.532 -0.1226 -0.5959 -0.2108
19682TIP3    H180537   5.401   1.763  11.611  1.5553  0.0698 -0.3396
19682TIP3    H280538   5.475   1.762  11.480  0.4573 -2.0435 -0.9843
19683TIP3   OH280539   0.831   2.443  15.996  0.0151 -0.2671  0.0559
19683TIP3    H180540   0.907   2.450  16.053  0.4614  1.4073 -0.6899
19683TIP3    H280541   0.764   2.400  16.050  1.4845 -1.8797  0.6848
19684TIP3   OH280542   5.934   5.409  11.738  0.1755  0.4994 -0.3399
19684TIP3    H180543   5.866   5.475  11.725  2.5220  3.4777  1.1911
19684TIP3    H280544   5.989   5.417  11.660  0.7997  0.8006  0.1259
19685TIP3   OH280545   4.847   2.862   3.451 -0.4609  0.0430  0.2316
19685TIP3    H180546   4.906   2.920   3.403 -3.2878  2.8085 -0.2217
19685TIP3    H280547   4.825   2.910   3.530 -1.4159 -1.3117  0.8341
19686TIP3   OH280548   3.543   1.247  11.770 -0.2390 -0.1723 -0.1728
19686TIP3    H180549   3.574   1.225  11.858 -0.0601 -0.8897 -0.3995
19686TIP3    H280550   3.604   1.313  11.738  0.1330 -0.4383 -0.0211
19687TIP3   OH280551   1.938   0.183   0.405 -0.1142  0.1472 -0.3303
19687TIP3    H180552   1.909   0.273   0.419 -0.7477 -0.2074  0.8424
19687TIP3    H280553   2.019   0.191   0.355 -0.8171  1.2980 -1.3398
19688TIP3   OH280554   5.723   1.678  16.451  0.0827  0.3197 -0.1523
19688TIP3    H180555   5.674   1.656  16.530  0.7566 -1.4536 -0.1839
19688TIP3    H280556   5.800   1.621  16.455 -0.1113 -0.1618 -2.3048
19689TIP3   OH280557   3.321   4.223   5.734 -0.3846  0.0811  0.4272
19689TIP3    H180558   3.305   4.262   5.820 -0.5428 -0.8411  0.8267
19689TIP3    H280559   3.256   4.264   5.677 -0.6744  0.2618  0.8811
19690TIP3   OH280560   5.909   2.246  17.348 -0.2646 -0.0133  0.2614
19690TIP3    H180561   5.991   2.200  17.330  0.4487  0.7991  1.3234
19690TIP3    H280562   5.843   2.196  17.300  0.7353 -1.1069 -0.0319
19691TIP3   OH280563   1.971   2.969  14.931 -0.0908 -0.6797  0.2471
19691TIP3    H180564   1.889   2.984  14.883  0.7225 -1.5364 -1.5059
19691TIP3    H280565   2.039   3.004  14.873  0.8056 -0.1645  1.5834
19692TIP3   OH280566   2.632   2.760   3.069 -0.3346  0.2620  0.6490
19692TIP3    H180567   2.558   2.725   3.019 -0.6286 -1.1036  1.9793
19692TIP3    H280568   2.709   2.717   3.032 -0.6571 -1.5903  2.0296
19693TIP3   OH280569   3.162   0.326   4.193 -0.2746 -0.1886  0.4178
19693TIP3    H180570   3.130   0.257   4.135  0.3733  0.3134 -0.5472
19693TIP3    H280571   3.117   0.405   4.164 -0.2237 -0.0025  0.8440
19694TIP3   OH280572   1.453   5.498   5.514 -0.3124 -0.2461 -0.0609
19694TIP3    H180573   1.519   5.429   5.522 -1.8673 -1.6170  1.9609
19694TIP3    H280574   1.503   5.579   5.517  1.2617 -1.2146  2.1541
19695TIP3   OH280575   3.827   3.984   4.774 -0.1222 -0.1394 -0.0986
19695TIP3    H180576   3.754   3.926   4.754 -0.4819  0.3466 -0.2090
19695TIP3    H280577   3.790   4.072   4.768  0.0150  0.0728  1.5839
19696TIP3   OH280578   6.698   1.800  16.311  0.1400 -0.0411 -0.3348
19696TIP3    H180579   6.722   1.725  16.366 -0.6912 -0.0638  0.0038
19696TIP3    H280580   6.623   1.840  16.355  1.1349  1.5655 -0.0057
19697TIP3   OH280581   4.855   5.139   1.826 -0.5229 -0.0112 -0.2633
19697TIP3    H180582   4.912   5.065   1.846 -0.6587 -0.3199 -0.9793
19697TIP3    H280583   4.770   5.114   1.862 -0.2223  0.4323  0.7705
19698TIP3   OH280584   1.014   2.895  15.973 -0.1568 -0.4608 -0.2252
19698TIP3    H180585   1.074   2.969  15.966  0.7285 -1.1379  0.1334
19698TIP3    H280586   1.068   2.818  15.956 -1.0151 -1.0512 -0.3316
19699TIP3   OH280587   4.068   6.417   5.875 -0.1892 -0.2577  0.3152
19699TIP3    H180588   4.028   6.331   5.865  1.8942 -1.3818  1.0962
19699TIP3    H280589   4.100   6.440   5.788  0.4849 -0.9221  0.3871
19700TIP3   OH280590   0.372   4.928   4.318  0.0775 -0.2511  0.0101
19700TIP3    H180591   0.398   4.932   4.226  0.7873  1.3337  0.2468
19700TIP3    H280592   0.277   4.925   4.316  0.0275  1.3510 -0.7648
19701TIP3   OH280593   6.179   2.323  16.629 -0.2621 -0.0648 -0.1546
19701TIP3    H180594   6.262   2.318  16.678 -0.3828 -1.5126 -0.0548
19701TIP3    H280595   6.111   2.316  16.696 -0.4404 -0.5442 -0.3801
19702TIP3   OH280596   1.787   4.033   4.638  0.8609 -0.1145 -0.2580
19702TIP3    H180597   1.813   3.988   4.557  1.3837 -1.0624  0.4104
19702TIP3    H280598   1.717   3.978   4.674  1.6484 -0.5245  0.6780
19703TIP3   OH280599   6.710   6.290   5.184 -0.7486 -0.0824  0.1558
19703TIP3    H180600   6.665   6.367   5.150 -0.4139  0.0484  0.0109
19703TIP3    H280601   6.791   6.284   5.133 -0.9642 -0.7641 -0.1251
19704TIP3   OH280602   5.598   5.571  15.777 -0.1096 -0.1685  0.2138
19704TIP3    H180603   5.643   5.574  15.693 -0.3772  1.1022  0.0984
19704TIP3    H280604   5.506   5.559  15.754 -0.7657  3.7996  0.0304
19705TIP3   OH280605   1.785   5.113  10.799  0.5191  0.4577  0.1443
19705TIP3    H180606   1.839   5.038  10.774  0.0449 -0.4137  1.6114
19705TIP3    H280607   1.845   5.188  10.796  0.8830  0.1323 -1.8011
19706TIP3   OH280608   5.968   6.197  13.582 -0.2034 -0.4137 -0.2107
19706TIP3    H180609   5.903   6.128  13.570 -0.7206  0.1239 -0.5676
19706TIP3    H280610   5.946   6.235  13.667  0.3995 -1.0135  0.2203
19707TIP3   OH280611   0.406   6.422  12.742  0.4087  0.6241  0.1121
19707TIP3    H180612   0.467   6.422  12.815 -0.5571 -0.6008  0.9626
19707TIP3    H280613   0.460   6.402  12.666  0.8575 -2.6596  1.1457
19708TIP3   OH280614   6.261   2.552   3.657  0.2016 -0.4601  0.4379
19708TIP3    H180615   6.270   2.472   3.606  1.6852 -0.6656  0.9745
19708TIP3    H280616   6.293   2.621   3.600 -0.0917 -0.3885  0.3564
19709TIP3   OH280617   1.940   0.818   2.979 -0.1877  0.3222 -0.2974
19709TIP3    H180618   1.959   0.797   3.070  2.7535  0.8944 -0.6516
19709TIP3    H280619   1.889   0.899   2.982  0.4277  0.6854  0.8602
19710TIP3   OH280620   2.045   4.936  14.793 -0.3954 -0.2429 -0.6139
19710TIP3    H180621   1.962   4.935  14.840 -0.9878 -1.3135 -1.6514
19710TIP3    H280622   2.051   5.025  14.758 -0.6765  0.0982  0.1759
19711TIP3   OH280623   3.691   6.514  12.741 -0.3633 -0.1945  0.2220
19711TIP3    H180624   3.778   6.493  12.708  1.4723  2.1896  3.0109
19711TIP3    H280625   3.707   6.560  12.824 -4.2622  1.1214  0.4655
19712TIP3   OH280626   3.641   6.604   5.241  0.1645  0.5534 -0.2922
19712TIP3    H180627   3.723   6.555   5.239 -1.3048 -2.1993  0.7392
19712TIP3    H280628   3.663   6.687   5.282  2.3704 -0.2319  0.2292
19713TIP3   OH280629   3.296   3.641   4.258  0.3458 -0.4075 -0.0457
19713TIP3    H180630   3.383   3.603   4.252  0.7893  0.3627  1.1385
19713TIP3    H280631   3.288   3.695   4.179  1.1661 -0.0494  0.1055
19714TIP3   OH280632   1.309   5.333   1.903 -0.3619  0.5975 -0.3863
19714TIP3    H180633   1.376   5.314   1.968 -1.7772 -0.8336  0.7333
19714TIP3    H280634   1.247   5.390   1.948 -0.9681  0.2133 -0.7232
19715TIP3   OH280635   3.230   5.969  17.252  0.3311  0.2527  0.0996
19715TIP3    H180636   3.230   6.011  17.338  1.2931  0.1403  0.1703
19715TIP3    H280637   3.285   6.025  17.198 -0.6208  0.5639 -0.5817
19716TIP3   OH280638   4.876   4.352  15.885  0.0614 -0.2534 -0.2565
19716TIP3    H180639   4.863   4.258  15.871 -3.1893  0.1734 -0.8339
19716TIP3    H280640   4.792   4.384  15.917  0.4827  2.7336 -1.7270
19717TIP3   OH280641   2.192   0.315   4.488 -0.1872  0.4625  0.0709
19717TIP3    H180642   2.218   0.380   4.553  0.1252  1.2812 -0.8418
19717TIP3    H280643   2.270   0.302   4.434 -0.5189  0.0153 -0.3162
19718TIP3   OH280644   3.686   4.974   0.706  0.0619  0.0143 -0.4817
19718TIP3    H180645   3.702   4.912   0.778 -0.2078 -0.8280 -1.1401
19718TIP3    H280646   3.699   4.923   0.627  1.3560  1.1846 -1.0678
19719TIP3   OH280647   0.886   2.951   6.579  0.1463  0.0767 -0.4045
19719TIP3    H180648   0.819   2.946   6.511 -1.4485  0.1953  1.0643
19719TIP3    H280649   0.915   3.042   6.578 -2.2266  0.9406  1.1213
19720TIP3   OH280650   2.337   4.647   1.407  0.6169 -0.0421  0.2423
19720TIP3    H180651   2.266   4.665   1.346  1.3049  1.7221 -0.0868
19720TIP3    H280652   2.298   4.588   1.472 -1.2141  1.0407  0.1958
19721TIP3   OH280653   1.042   1.404  13.131 -0.0508 -0.1600 -0.7118
19721TIP3    H180654   1.090   1.347  13.071  1.0363  0.8131 -0.8017
19721TIP3    H280655   1.056   1.366  13.217  1.6743  0.5874 -0.6193
19722TIP3   OH280656   4.794   4.053  10.633  0.3187 -0.3534  0.3415
19722TIP3    H180657   4.765   4.139  10.664  1.8605  0.7475 -1.1034
19722TIP3    H280658   4.889   4.058  10.632  0.4817 -2.3631  0.9163
19723TIP3   OH280659   3.312   2.198   4.939  0.4735 -0.3304 -0.3518
19723TIP3    H180660   3.362   2.134   4.989 -0.0286 -0.5438 -0.1188
19723TIP3    H280661   3.353   2.282   4.959 -0.0239 -0.3434  0.8135
19724TIP3   OH280662   2.835   3.906   5.241  0.5150  0.0478 -0.2661
19724TIP3    H180663   2.820   3.934   5.332 -0.5850  0.5421 -0.5771
19724TIP3    H280664   2.924   3.935   5.222  0.0952  1.6466  0.0577
19725TIP3   OH280665   4.229   0.166  11.464 -0.1906  0.1293 -0.3048
19725TIP3    H180666   4.183   0.108  11.524 -0.6354 -1.3123 -1.9402
19725TIP3    H280667   4.266   0.107  11.398  1.7936  1.4877 -0.4746
19726TIP3   OH280668   3.844   4.557   0.127 -0.1556  0.2963  0.3104
19726TIP3    H180669   3.821   4.650   0.129 -2.8998 -0.3177  0.7177
19726TIP3    H280670   3.895   4.547   0.046 -1.2060  1.8632 -0.5985
19727TIP3   OH280671   0.386   1.603  14.893 -0.0078  0.3146 -0.0998
19727TIP3    H180672   0.333   1.533  14.930 -0.4898 -0.4089 -2.0326
19727TIP3    H280673   0.374   1.595  14.798  1.0029  2.1687 -0.4430
19728TIP3   OH280674   4.516   6.317  10.888 -0.5765  0.1886 -0.1674
19728TIP3    H180675   4.444   6.287  10.945 -0.1654 -0.3257  0.0923
19728TIP3    H280676   4.566   6.378  10.943 -0.1235 -0.3826  0.0603
19729TIP3   OH280677   5.176   0.093   1.221 -0.0428 -0.5569 -0.2214
19729TIP3    H180678   5.248   0.067   1.164  1.2136 -0.5728  1.2861
19729TIP3    H280679   5.124   0.013   1.231  1.3165 -1.3570  0.8515
19730TIP3   OH280680   4.993   0.089   2.064 -0.0719 -0.0065  0.0420
19730TIP3    H180681   4.904   0.115   2.085 -0.4850 -0.9107 -0.5263
19730TIP3    H280682   5.045   0.116   2.140 -0.9601 -0.2341  0.7450
19731TIP3   OH280683   1.187   2.194  17.442 -0.2432 -0.1387 -0.1531
19731TIP3    H180684   1.127   2.267  17.455  1.3477  0.9891  1.3165
19731TIP3    H280685   1.130   2.118  17.428 -1.9676  1.0194  0.2727
19732TIP3   OH280686   3.799   4.180   4.214  0.3161 -0.0326  0.1262
19732TIP3    H180687   3.736   4.108   4.221  0.0522  0.0079 -1.4629
19732TIP3    H280688   3.878   4.146   4.255  0.3359 -1.4113 -0.9812
19733TIP3   OH280689   0.901   0.152   1.726 -0.1681 -0.7614  0.0918
19733TIP3    H180690   0.944   0.095   1.663 -0.9867  0.3002 -1.4785
19733TIP3    H280691   0.899   0.238   1.684  3.3938  1.2606  3.4113
19734TIP3   OH280692   3.025   4.329  14.584 -0.0145 -0.3233 -0.4109
19734TIP3    H180693   2.953   4.328  14.521 -0.1062 -0.2737 -0.3065
19734TIP3    H280694   2.992   4.279  14.659  0.8322 -2.2025 -1.2128
19735TIP3   OH280695   5.912   2.658   2.655  0.1444 -0.5010 -0.7106
19735TIP3    H180696   5.881   2.692   2.740 -0.2731 -0.7815 -0.7503
19735TIP3    H280697   5.956   2.576   2.677 -0.0183 -0.6050 -0.7695
19736TIP3   OH280698   1.457   1.496   1.294  0.6645  0.6099 -0.1935
19736TIP3    H180699   1.547   1.526   1.284  0.5088  0.8695 -0.8250
19736TIP3    H280700   1.419   1.555   1.360  1.1114  0.1547  0.4753
19737TIP3   OH280701   6.009   2.700  16.097  0.2811 -0.2433  0.9838
19737TIP3    H180702   6.025   2.615  16.056  0.5086 -0.0798  0.7276
19737TIP3    H280703   6.063   2.761  16.047 -0.8234  0.2618  0.3769
19738TIP3   OH280704   0.488   0.964  13.976 -0.5063  0.3399 -0.2277
19738TIP3    H180705   0.481   0.871  13.995 -1.3120  0.1085 -1.5609
19738TIP3    H280706   0.437   1.007  14.045 -0.1636 -0.1861  0.3695
19739TIP3   OH280707   6.093   5.220   0.904 -0.1315  0.4378  0.2263
19739TIP3    H180708   6.074   5.167   0.981  0.0745 -0.2046 -0.1637
19739TIP3    H280709   6.009   5.259   0.880 -0.6093 -0.9302 -0.4039
19740TIP3   OH280710   6.566   3.364  13.264 -0.4029 -0.5365  0.4481
19740TIP3    H180711   6.531   3.435  13.210 -0.1050  0.3036  1.3175
19740TIP3    H280712   6.645   3.401  13.303 -0.1561 -1.4114  0.7984
19741TIP3   OH280713   0.762   1.435  14.840  0.8663  0.2111  0.3689
19741TIP3    H180714   0.774   1.372  14.769 -1.9593  0.0243 -0.0608
19741TIP3    H280715   0.731   1.382  14.914  1.1323  0.7623  0.8838
19742TIP3   OH280716   2.007   3.483   2.683 -0.4771 -0.3373 -0.1653
19742TIP3    H180717   2.082   3.542   2.670 -1.4328  0.5160 -2.2543
19742TIP3    H280718   2.042   3.396   2.667  0.5622 -0.2061  1.2114
19743TIP3   OH280719   5.781   6.400   6.515  0.2380  0.7885 -0.3619
19743TIP3    H180720   5.773   6.336   6.586  1.6135  0.1563 -0.7392
19743TIP3    H280721   5.701   6.390   6.464  0.1450 -0.1875 -0.0447
19744TIP3   OH280722   3.847   4.048  12.209 -0.5981 -0.3430 -0.1708
19744TIP3    H180723   3.867   4.114  12.275  0.7216  0.0429 -0.9228
19744TIP3    H280724   3.839   4.097  12.127  0.2655 -1.0954 -0.7199
19745TIP3   OH280725   1.764   2.779  11.834 -0.3599  0.7375  0.2686
19745TIP3    H180726   1.707   2.822  11.899 -0.2778  0.8963  0.2364
19745TIP3    H280727   1.713   2.783  11.752 -0.7489 -0.0638  0.4658
19746TIP3   OH280728   3.994   2.410  14.347  0.2430 -0.5789  0.5736
19746TIP3    H180729   4.071   2.439  14.395  0.6553 -0.8247  0.0662
19746TIP3    H280730   4.007   2.443  14.258 -0.0828 -0.8914  0.4087
19747TIP3   OH280731   0.078   4.522   0.432  0.0942 -0.2347  0.5286
19747TIP3    H180732   0.085   4.496   0.340 -1.5855 -1.3886  0.6962
19747TIP3    H280733   0.048   4.613   0.430 -0.4213 -0.4194 -0.0571
19748TIP3   OH280734   4.212   3.971   1.138  0.1532  0.5339 -0.0073
19748TIP3    H180735   4.171   3.947   1.221  1.3442  0.1826  0.4924
19748TIP3    H280736   4.237   3.888   1.098  1.9674  0.7699  0.5351
19749TIP3   OH280737   1.073   0.750   5.923  0.3729 -0.6078  0.4760
19749TIP3    H180738   1.018   0.778   5.996  0.2100 -2.7013  1.2258
19749TIP3    H280739   1.082   0.655   5.934 -0.3997 -1.1700 -2.7237
19750TIP3   OH280740   5.286   2.689  16.721 -0.5909 -0.1711 -0.1691
19750TIP3    H180741   5.353   2.750  16.690 -0.0699 -0.1261  0.9935
19750TIP3    H280742   5.334   2.608  16.738 -0.9448 -0.3270  0.0940
19751TIP3   OH280743   3.971   3.858  14.845  0.1038  0.0767  0.3574
19751TIP3    H180744   4.039   3.862  14.777 -0.1069 -0.0259  0.1398
19751TIP3    H280745   3.900   3.808  14.805 -0.6623  1.3420  0.0904
19752TIP3   OH280746   4.044   4.515   0.297 -0.2584 -0.3506 -0.4221
19752TIP3    H180747   4.082   4.427   0.288 -1.5318 -0.9216 -0.5503
19752TIP3    H280748   3.973   4.516   0.232 -1.8203 -0.1169  1.2147
19753TIP3   OH280749   2.661   2.094  17.524 -0.0244 -0.0173 -0.0942
19753TIP3    H180750   2.747   2.132  17.503 -0.6906  1.9907  0.6381
19753TIP3    H280751   2.646   2.118  17.615 -0.9873 -1.1591  0.0673
19754TIP3   OH280752   3.510   2.957   2.855 -0.1354 -0.1041 -0.5637
19754TIP3    H180753   3.505   2.927   2.946 -0.3971 -0.5386 -0.7151
19754TIP3    H280754   3.476   2.883   2.804 -1.3245  0.6560 -0.9157
19755TIP3   OH280755   6.242   3.129  13.080 -0.2604 -0.6540  0.3594
19755TIP3    H180756   6.279   3.049  13.117 -2.3458 -0.5594  2.9648
19755TIP3    H280757   6.151   3.106  13.061 -0.6148  0.8101  0.2096
19756TIP3   OH280758   0.008   6.082   5.865  0.3205  0.1851  0.0637
19756TIP3    H180759  -0.033   6.006   5.823  1.0104  1.7470 -3.8917
19756TIP3    H280760   0.088   6.046   5.905 -0.8861 -1.5822  1.0452
19757TIP3   OH280761   4.246   5.189   2.193  0.7835  0.7002 -0.4948
19757TIP3    H180762   4.158   5.206   2.225  0.1702 -1.4652 -0.8850
19757TIP3    H280763   4.298   5.175   2.272 -0.1848 -2.1566 -0.2662
19758TIP3   OH280764   0.525   6.328  13.137 -0.0818 -0.2163 -0.5458
19758TIP3    H180765   0.439   6.325  13.095  0.4322  1.5556 -1.8390
19758TIP3    H280766   0.514   6.388  13.211  0.1377  0.3788 -0.9897
19759TIP3   OH280767   6.208   0.337   1.795 -0.2044  0.1786  0.0775
19759TIP3    H180768   6.275   0.301   1.853 -0.2369 -1.9002 -1.0581
19759TIP3    H280769   6.127   0.292   1.819 -0.4454  0.0986 -0.8207
19760TIP3   OH280770   0.754   5.937  13.733 -0.8151  0.4060  0.1590
19760TIP3    H180771   0.663   5.909  13.742 -0.4863 -0.1481  2.2666
19760TIP3    H280772   0.795   5.915  13.816  0.6855  2.8274  0.1787
19761TIP3   OH280773   6.577   6.310  11.858  0.1032 -0.4432 -0.2016
19761TIP3    H180774   6.656   6.315  11.804 -0.2368 -1.3871 -0.8285
19761TIP3    H280775   6.606   6.332  11.946  0.5728  1.7286 -0.8284
19762TIP3   OH280776   6.754   2.862   1.071  0.1736 -0.2356  0.0346
19762TIP3    H180777   6.793   2.867   1.159 -0.4203 -1.7599  0.4256
19762TIP3    H280778   6.662   2.841   1.087  0.2328 -1.3310 -0.9605
19763TIP3   OH280779   3.318   4.649  15.045  0.3857  0.8134 -0.6208
19763TIP3    H180780   3.340   4.732  15.088 -0.6329  1.7342 -1.8114
19763TIP3    H280781   3.376   4.585  15.086 -1.4523  1.3098  3.2157
19764TIP3   OH280782   0.650   3.883   1.159  0.2921  0.3062 -0.1451
19764TIP3    H180783   0.644   3.802   1.210 -0.2644  0.0022 -0.6757
19764TIP3    H280784   0.676   3.949   1.222 -1.1557  0.1019  0.7063
19765TIP3   OH280785   5.421   3.706  12.696 -0.0152 -0.4950  0.9725
19765TIP3    H180786   5.447   3.707  12.788  0.5230 -0.7746  0.8281
19765TIP3    H280787   5.334   3.668  12.697  0.3510 -1.3551  1.2855
19766TIP3   OH280788   2.277   5.301   2.000  0.3523  0.2700  0.0487
19766TIP3    H180789   2.240   5.285   2.086 -0.9257  0.3963 -0.4525
19766TIP3    H280790   2.371   5.285   2.010 -0.0894 -2.2956  0.8613
19767TIP3   OH280791   3.017   4.826  14.855  0.0373 -0.0431  0.0452
19767TIP3    H180792   3.084   4.863  14.912 -0.1794 -0.9522  0.9168
19767TIP3    H280793   3.061   4.754  14.810  0.0459  0.3055 -0.5224
19768TIP3   OH280794   4.837   4.867  16.385 -0.0588  0.2749 -0.5353
19768TIP3    H180795   4.875   4.911  16.461  2.7480  0.1014 -1.7165
19768TIP3    H280796   4.822   4.938  16.322  0.3807  0.0922 -0.8536
19769TIP3   OH280797   2.027   6.007  11.202  0.9356 -0.6122  0.1203
19769TIP3    H180798   2.011   5.982  11.293 -0.6245 -1.2691 -0.3008
19769TIP3    H280799   2.034   5.923  11.155 -0.0164 -0.3108 -0.6099
19770TIP3   OH280800   6.237   3.887  17.338  0.0969 -0.4401  0.3644
19770TIP3    H180801   6.152   3.930  17.323 -0.6286 -1.7557  0.5894
19770TIP3    H280802   6.276   3.880  17.251 -0.3856 -0.5611  0.1555
19771TIP3   OH280803   0.317   4.784  11.741 -0.5563  0.2582  0.7225
19771TIP3    H180804   0.302   4.706  11.687  0.5883  1.3453 -1.2757
19771TIP3    H280805   0.236   4.833  11.734 -0.2064  0.6966 -0.6214
19772TIP3   OH280806   3.128   3.285  16.286  0.0844  0.0809 -0.3309
19772TIP3    H180807   3.072   3.352  16.248  1.6482  1.5695 -0.1145
19772TIP3    H280808   3.073   3.242  16.351 -1.0980  0.8376 -0.8019
19773TIP3   OH280809   1.740   3.813   4.863 -0.2443  0.1730 -0.5652
19773TIP3    H180810   1.650   3.827   4.832 -1.0052  0.1092  1.4397
19773TIP3    H280811   1.775   3.902   4.874 -0.6201  0.2540  0.0767
19774TIP3   OH280812   1.442   6.740   0.841  0.4103  0.4813 -0.0560
19774TIP3    H180813   1.513   6.795   0.874  0.8690  0.5103 -1.0486
19774TIP3    H280814   1.476   6.702   0.760 -0.7847  0.6843 -0.6904
19775TIP3   OH280815   0.485   2.445  14.669  0.1444  0.3847 -0.0262
19775TIP3    H180816   0.417   2.503  14.704  0.4693  0.7859 -0.0582
19775TIP3    H280817   0.567   2.479  14.705  0.2671 -0.5270  0.5901
19776TIP3   OH280818   5.984   5.969   0.122  0.2521  0.2777  0.1229
19776TIP3    H180819   5.912   5.929   0.169  0.5155 -1.6320 -0.9868
19776TIP3    H280820   5.946   5.998   0.039  0.4252  0.7535  0.2072
19777TIP3   OH280821   0.420   1.402  12.576  0.9810  0.5533  0.2749
19777TIP3    H180822   0.403   1.310  12.595  0.4792  0.5639 -0.0968
19777TIP3    H280823   0.414   1.445  12.661  0.6823  0.3208  0.3743
19778TIP3   OH280824   3.731   5.981   6.505  0.1948 -0.3150  0.3922
19778TIP3    H180825   3.649   6.001   6.550  1.4314  0.2458  2.5537
19778TIP3    H280826   3.786   5.941   6.573  2.4857  1.3563 -0.3589
19779TIP3   OH280827   5.034   1.337   3.022 -0.0249 -0.2724  0.2785
19779TIP3    H180828   5.067   1.289   2.947 -1.6889 -0.6145 -0.2826
19779TIP3    H280829   4.981   1.273   3.070 -1.4607  0.7226  0.0662
19780TIP3   OH280830   0.707   3.519   4.931 -0.1977 -0.6860 -0.0208
19780TIP3    H180831   0.766   3.513   5.006  0.3135  0.2679 -0.3219
19780TIP3    H280832   0.623   3.486   4.963 -0.8557  2.4154  1.9071
19781TIP3   OH280833   3.707   2.813  10.492  0.1844 -0.3869 -0.1553
19781TIP3    H180834   3.736   2.759  10.566 -1.1056 -2.2417 -0.9371
19781TIP3    H280835   3.613   2.819  10.502  0.1087  0.1755 -1.1056
19782TIP3   OH280836   0.110   2.652   0.413  0.1372 -0.3514 -1.0574
19782TIP3    H180837   0.151   2.679   0.495 -0.4805  0.4032 -0.9854
19782TIP3    H280838   0.021   2.629   0.438  0.2102 -0.9827 -1.3778
19783TIP3   OH280839   5.154   4.796   2.806  0.0898 -0.3573 -1.3854
19783TIP3    H180840   5.098   4.769   2.734 -0.3379  0.5649 -1.4133
19783TIP3    H280841   5.106   4.867   2.850  0.2315 -1.0590 -0.0413
19784TIP3   OH280842   4.752   3.041   0.834  0.1054 -0.3695 -0.1337
19784TIP3    H180843   4.761   3.137   0.837  2.2586 -0.5205  0.3440
19784TIP3    H280844   4.819   3.010   0.895 -1.2693 -2.1785  0.5201
19785TIP3   OH280845   0.467   3.462   2.833  0.3464 -0.1895  0.2812
19785TIP3    H180846   0.403   3.513   2.883 -0.3692  0.4545 -1.2198
19785TIP3    H280847   0.419   3.383   2.807  0.3287  0.0267 -0.3603
19786TIP3   OH280848   3.445   0.486   5.172 -0.1408  0.1855 -0.1940
19786TIP3    H180849   3.377   0.496   5.105 -0.0592  2.4365  0.0120
19786TIP3    H280850   3.516   0.542   5.143  0.8977 -0.6933  0.5741
19787TIP3   OH280851   5.782   6.370  12.471  0.0519 -0.9730 -0.0549
19787TIP3    H180852   5.727   6.365  12.549  1.1243 -2.2965  0.6755
19787TIP3    H280853   5.753   6.448  12.426  0.0561  0.4311  2.1978
19788TIP3   OH280854   4.105   3.412   5.664  0.2563  0.4857  0.3291
19788TIP3    H180855   4.053   3.431   5.743 -0.4690  1.6253 -0.3872
19788TIP3    H280856   4.040   3.389   5.598  0.7148  1.0614 -0.3403
19789TIP3   OH280857   4.676   3.621  12.171 -0.2627 -0.1977  0.6451
19789TIP3    H180858   4.756   3.658  12.135 -0.8533 -0.7476 -1.3931
19789TIP3    H280859   4.608   3.647  12.110 -1.6066 -0.0664  2.1250
19790TIP3   OH280860   4.551   4.217   6.700 -0.0493  0.4932  0.2342
19790TIP3    H180861   4.476   4.195   6.645  1.0238  2.0268 -1.9905
19790TIP3    H280862   4.593   4.133   6.719 -0.6430 -0.1103 -1.0357
19791TIP3   OH280863   0.465   4.533  15.769  0.4875  0.1403 -0.2228
19791TIP3    H180864   0.478   4.606  15.829 -0.4595  0.2052 -0.0801
19791TIP3    H280865   0.549   4.522  15.725  0.5849  1.4541 -0.3977
19792TIP3   OH280866   2.216   4.970  11.837  0.1644 -0.1173  0.0953
19792TIP3    H180867   2.267   4.890  11.828  0.9368  0.3497  0.2144
19792TIP3    H280868   2.137   4.944  11.884  1.3795 -0.4213  2.0477
19793TIP3   OH280869   2.654   0.385  17.261 -0.1681  0.2672 -0.3006
19793TIP3    H180870   2.735   0.338  17.284  0.4073  1.1788 -0.4147
19793TIP3    H280871   2.618   0.413  17.346 -0.6514 -0.5791 -0.2136
19794TIP3   OH280872   2.880   5.807   4.218 -0.4648  0.2106 -0.1123
19794TIP3    H180873   2.966   5.776   4.191 -0.2655 -0.9970  1.7543
19794TIP3    H280874   2.874   5.896   4.183  0.9854 -0.1480 -1.3747
19795TIP3   OH280875   1.966   3.641   3.436 -0.4508  0.5643  0.1198
19795TIP3    H180876   1.957   3.682   3.522 -0.6203  0.3506  0.2055
19795TIP3    H280877   1.924   3.556   3.446  0.9122 -0.1256  0.2790
19796TIP3   OH280878   4.086   2.122  12.044  0.4805  0.0459  0.1673
19796TIP3    H180879   4.000   2.107  12.003 -0.2703  0.5169  1.5097
19796TIP3    H280880   4.146   2.129  11.970 -0.5284 -0.8869 -0.7946
19797TIP3   OH280881   5.266   1.624  10.878 -0.1418  0.9742 -0.0657
19797TIP3    H180882   5.237   1.715  10.873  0.9202  1.3821  0.7882
19797TIP3    H280883   5.201   1.581  10.934 -0.2193  1.3877  0.1640
19798TIP3   OH280884   2.976   5.068  15.335 -0.3930 -0.1138 -0.0607
19798TIP3    H180885   2.889   5.105  15.321  0.3208  0.9042 -2.1659
19798TIP3    H280886   2.977   4.987  15.284 -0.1222 -0.1598  0.0141
19799TIP3   OH280887   6.329   0.539  10.961  0.0457 -0.1414  0.0322
19799TIP3    H180888   6.293   0.538  10.873 -0.8542 -0.3529  0.3945
19799TIP3    H280889   6.254   0.559  11.018  1.0416  2.6357  0.5654
19800TIP3   OH280890   6.247   2.560   6.138 -0.2076 -0.5321  0.3551
19800TIP3    H180891   6.337   2.595   6.141  0.0200 -1.1212  2.7072
19800TIP3    H280892   6.192   2.636   6.155  0.0439 -0.5918  1.5394
19801TIP3   OH280893   5.276   3.440   5.922  0.3135  0.0091 -0.2814
19801TIP3    H180894   5.241   3.359   5.961  0.3855 -0.6538 -1.5556
19801TIP3    H280895   5.245   3.509   5.981 -0.3586 -0.8722  0.4413
19802TIP3   OH280896   6.018   5.853   6.564  0.0576 -0.0157  0.0295
19802TIP3    H180897   5.935   5.892   6.535  0.8438  2.3232  0.7271
19802TIP3    H280898   6.083   5.890   6.505  0.6385 -1.9749 -0.6270
19803TIP3   OH280899   0.340   6.741  14.647 -0.8681  0.3143  0.0927
19803TIP3    H180900   0.301   6.672  14.701  1.7821 -0.8968  0.6376
19803TIP3    H280901   0.277   6.813  14.651 -2.4764 -1.0723  1.7645
19804TIP3   OH280902   3.564   6.401  12.048 -0.1935 -0.1073 -0.3573
19804TIP3    H180903   3.626   6.474  12.047  1.3449 -1.3751 -0.4108
19804TIP3    H280904   3.493   6.431  12.105  1.3387  0.6921  1.2173
19805TIP3   OH280905   2.239   1.384  17.251 -0.1532  0.3233 -0.2764
19805TIP3    H180906   2.200   1.468  17.274 -1.0126 -0.3289  0.7299
19805TIP3    H280907   2.169   1.334  17.210  0.0038 -0.3308  0.2182
19806TIP3   OH280908   3.952   3.829  12.076  0.2992 -0.1934  0.1269
19806TIP3    H180909   3.875   3.876  12.108  0.0638  1.5000 -2.6647
19806TIP3    H280910   3.918   3.771  12.008  1.4305  0.4355 -1.0136
19807TIP3   OH280911   0.987   6.313   4.789 -0.7594 -0.4839 -0.6163
19807TIP3    H180912   1.037   6.298   4.869 -1.1725  1.5208  0.0841
19807TIP3    H280913   0.956   6.226   4.764 -0.5284 -1.1952  1.3387
19808TIP3   OH280914   4.934   4.400   3.610  0.0443  0.4964  0.3356
19808TIP3    H180915   4.896   4.486   3.592  1.1285  0.7499 -0.9446
19808TIP3    H280916   4.991   4.415   3.686 -1.4854  0.3649  1.5406
19809TIP3   OH280917   5.149   5.691   6.599  0.2703  0.1044 -0.3870
19809TIP3    H180918   5.185   5.764   6.649 -1.6755  0.2999  0.8318
19809TIP3    H280919   5.224   5.637   6.578  1.3355  0.7295  1.6052
19810TIP3   OH280920   0.418   2.861   5.166  0.1761  0.0891 -0.0487
19810TIP3    H180921   0.412   2.922   5.239  0.3284  0.3299 -0.2349
19810TIP3    H280922   0.327   2.837   5.147  0.2529 -1.8457  1.7659
19811TIP3   OH280923   1.348   3.339  14.193 -0.2155  0.2057 -0.2309
19811TIP3    H180924   1.307   3.426  14.197 -0.0060  0.3054 -0.2099
19811TIP3    H280925   1.407   3.344  14.118 -0.4552 -0.0309 -0.4322
19812TIP3   OH280926   3.083   2.876   0.916 -0.1083  0.1364  0.1675
19812TIP3    H180927   2.991   2.853   0.931 -0.0762 -0.0367  0.1034
19812TIP3    H280928   3.116   2.899   1.002 -0.4122  0.9442  0.0780
19813TIP3   OH280929   0.897   4.144  11.115 -0.5750  0.0922  0.4642
19813TIP3    H180930   0.923   4.230  11.082  0.6194 -0.7683 -0.9581
19813TIP3    H280931   0.951   4.130  11.193 -0.1459  0.2604  0.1955
19814TIP3   OH280932   0.605   0.902   5.498  0.1067  0.3356  0.0770
19814TIP3    H180933   0.630   0.813   5.521 -0.9582  0.1377  0.4986
19814TIP3    H280934   0.599   0.947   5.582  0.5309  0.7921 -0.1261
19815TIP3   OH280935   6.300   0.583  11.485  0.5533  0.8524 -0.2745
19815TIP3    H180936   6.324   0.518  11.418  0.2130  0.4729 -0.0324
19815TIP3    H280937   6.299   0.666  11.438 -1.8142  0.3320 -1.2868
19816TIP3   OH280938   5.169   3.813  13.467 -0.2813 -0.0301 -0.3322
19816TIP3    H180939   5.109   3.739  13.459 -1.1343  0.7600 -1.5146
19816TIP3    H280940   5.227   3.805  13.391  0.1882  0.0392  0.0107
19817TIP3   OH280941   4.726   1.682   1.341  0.0703  0.1907 -0.2450
19817TIP3    H180942   4.803   1.626   1.357 -0.5425 -0.6846 -0.2771
19817TIP3    H280943   4.758   1.748   1.279  1.1030  0.5556  0.6369
19818TIP3   OH280944   1.048   1.318  13.446  0.2085  0.2755 -0.0933
19818TIP3    H180945   1.130   1.359  13.472  0.2286  0.1856 -0.0123
19818TIP3    H280946   1.054   1.228  13.479 -1.1580  1.0596  2.5722
19819TIP3   OH280947   2.825   0.571  16.949 -0.2669 -0.3948 -0.0683
19819TIP3    H180948   2.742   0.576  16.997 -0.0925  0.7032  0.1555
19819TIP3    H280949   2.825   0.649  16.893  0.8845 -0.0225  0.4089
19820TIP3   OH280950   2.007   3.873   0.184  0.0717  0.2839 -0.4195
19820TIP3    H180951   2.020   3.941   0.249 -0.7204 -1.1186  1.2855
19820TIP3    H280952   1.943   3.814   0.223  0.0992 -1.0053 -2.1804
19821TIP3   OH280953   1.300   1.562   4.347 -0.1298  0.2519 -0.2095
19821TIP3    H180954   1.324   1.475   4.315 -1.3036 -0.3627  0.4888
19821TIP3    H280955   1.297   1.553   4.442  0.4087  1.2566 -0.0828
19822TIP3   OH280956   4.712   1.901   5.399  0.4304 -0.4207  0.0564
19822TIP3    H180957   4.804   1.920   5.378  1.9190 -4.9156  1.3872
19822TIP3    H280958   4.709   1.902   5.495 -0.7310 -0.9776  0.0414
19823TIP3   OH280959   1.176   0.469   3.901 -0.1110 -0.2907 -0.3158
19823TIP3    H180960   1.089   0.459   3.941  0.0919 -0.5778  0.0673
19823TIP3    H280961   1.161   0.524   3.824 -0.6936 -0.6491 -0.4684
19824TIP3   OH280962   2.044   0.264   3.071 -0.4921  0.3854  0.1649
19824TIP3    H180963   2.081   0.260   3.159 -1.3537 -1.6040  0.4858
19824TIP3    H280964   2.083   0.190   3.025 -0.8286  0.8026 -0.8210
19825TIP3   OH280965   2.368   1.296  13.314 -0.1582 -0.0863 -0.0724
19825TIP3    H180966   2.363   1.227  13.248 -0.1244 -1.9470  1.7678
19825TIP3    H280967   2.460   1.299  13.338 -0.5870 -1.7067  2.0773
19826TIP3   OH280968   6.205   1.578  14.112 -0.2277 -0.7536  0.2877
19826TIP3    H180969   6.133   1.516  14.114 -0.1368 -0.8717 -0.0437
19826TIP3    H280970   6.282   1.527  14.138  0.1876 -1.2556 -1.7614
19827TIP3   OH280971   4.018   4.666  11.868  0.1713  0.5528  0.0243
19827TIP3    H180972   4.087   4.644  11.805 -1.5874 -0.3117 -1.6864
19827TIP3    H280973   4.052   4.744  11.913  2.4417 -0.0903 -0.4319
19828TIP3   OH280974   4.998   4.205  14.888 -0.6166 -0.5434 -0.0003
19828TIP3    H180975   5.042   4.260  14.823 -1.7067 -0.9646 -1.1600
19828TIP3    H280976   5.069   4.167  14.940  0.2155  0.9351  0.0008
19829TIP3   OH280977   4.265   3.135   1.660 -0.4843 -0.7538 -0.2032
19829TIP3    H180978   4.262   3.111   1.568 -0.3364  0.5818 -0.5782
19829TIP3    H280979   4.204   3.209   1.668  3.4997  2.9290 -0.4604
19830TIP3   OH280980   1.753   0.782   5.931 -0.0166 -0.2840  0.3378
19830TIP3    H180981   1.784   0.713   5.988 -2.1880 -1.5562  0.1021
19830TIP3    H280982   1.706   0.843   5.989  0.1192 -0.1133  0.2710
19831TIP3   OH280983   0.441   1.675  16.753 -0.5286  0.3788  0.2204
19831TIP3    H180984   0.458   1.640  16.666 -1.9697  1.4099 -0.5155
19831TIP3    H280985   0.505   1.632  16.809  0.5988 -0.1163 -1.3816
19832TIP3   OH280986   3.018   2.462   0.758  0.7634  0.0846  0.3722
19832TIP3    H180987   3.066   2.545   0.749  0.8293 -0.0941 -1.2800
19832TIP3    H280988   3.022   2.424   0.671  0.9491 -1.7976  1.1694
19833TIP3   OH280989   3.731   0.217   5.152 -0.5352  0.3721 -0.2694
19833TIP3    H180990   3.741   0.161   5.229 -0.3400 -1.3137 -1.4659
19833TIP3    H280991   3.642   0.252   5.160 -1.0946 -1.0405 -0.0637
19834TIP3   OH280992   5.330   2.635   0.543  0.3471  0.4199  0.0264
19834TIP3    H180993   5.359   2.678   0.624  1.6743  0.1411 -0.2917
19834TIP3    H280994   5.404   2.583   0.515 -0.5023 -0.3978 -0.7714
19835TIP3   OH280995   1.874   6.542  11.587 -0.0754 -0.7598  0.2074
19835TIP3    H180996   1.932   6.597  11.640 -1.5753 -0.6336  1.7704
19835TIP3    H280997   1.888   6.574  11.497  1.0626  0.3461  0.7393
19836TIP3   OH280998   1.576   5.071  16.269  0.1957 -0.5696  0.2175
19836TIP3    H180999   1.647   5.136  16.268  0.8982 -1.3141 -0.9272
19836TIP3    H281000   1.508   5.110  16.214 -0.2124  0.0473  1.1354
19837TIP3   OH281001   2.851   1.587  16.371  0.3078 -0.3573  0.0191
19837TIP3    H181002   2.831   1.579  16.277  1.1298  2.1251 -0.4460
19837TIP3    H281003   2.765   1.588  16.414 -0.1215 -0.3713 -0.8177
19838TIP3   OH281004   3.292   3.419   3.957  0.1569  0.1035  0.1054
19838TIP3    H181005   3.217   3.478   3.960 -0.8470 -1.1163 -0.1781
19838TIP3    H281006   3.310   3.408   3.864 -0.4971 -1.0235  0.0926
19839TIP3   OH281007   4.968   5.577   2.983  0.5104 -0.1084 -0.1224
19839TIP3    H181008   4.992   5.552   2.893 -1.3042 -1.1573 -0.3488
19839TIP3    H281009   5.003   5.507   3.037  1.0794  0.2192 -0.0550
19840TIP3   OH281010   5.144   3.858  12.398  0.4245  0.1148 -0.4544
19840TIP3    H181011   5.125   3.936  12.450  1.5230 -1.1781  2.0329
19840TIP3    H281012   5.194   3.890  12.323 -1.8995  2.1389 -1.2929
19841TIP3   OH281013   4.256   6.337   2.469  0.4610 -0.1846 -0.0775
19841TIP3    H181014   4.311   6.390   2.411 -2.3100  1.3166 -1.5294
19841TIP3    H281015   4.258   6.249   2.430 -0.1655  0.4585 -1.6069
19842TIP3   OH281016   6.571   1.185   5.854 -0.6240  0.2485 -0.0704
19842TIP3    H181017   6.507   1.256   5.843  0.9518  1.5778 -1.3051
19842TIP3    H281018   6.655   1.231   5.866  0.4337 -1.4147 -0.8326
19843TIP3   OH281019   2.611   5.369  14.221 -0.1128 -0.4088  0.8543
19843TIP3    H181020   2.557   5.443  14.250 -0.1382  0.6940 -1.7084
19843TIP3    H281021   2.680   5.362  14.286 -1.1947  0.6219  2.1708
19844TIP3   OH281022   0.610   3.879  12.694 -0.0808 -0.4719 -0.4770
19844TIP3    H181023   0.693   3.921  12.672 -0.1924 -0.6783 -1.3196
19844TIP3    H281024   0.634   3.799  12.741  0.2184 -0.7127 -1.0299
19845TIP3   OH281025   3.354   3.033  13.548 -0.4272 -0.3467  0.2805
19845TIP3    H181026   3.312   3.101  13.600 -0.3430 -0.1276  0.0664
19845TIP3    H281027   3.448   3.049  13.558 -0.4088  0.3682 -0.7861
19846TIP3   OH281028   4.238   3.461  16.331  0.1207 -0.5656 -0.1439
19846TIP3    H181029   4.326   3.435  16.305 -0.4197  0.3274 -3.2223
19846TIP3    H281030   4.251   3.536  16.390  1.3909 -1.0028  0.1664
19847TIP3   OH281031   0.224   6.422   5.454  0.0738  0.6919  0.2831
19847TIP3    H181032   0.240   6.405   5.361  1.5046  4.6779 -0.3848
19847TIP3    H281033   0.128   6.426   5.462 -0.1979 -2.2799 -0.3228
19848TIP3   OH281034   1.064   0.773   0.406 -0.0989 -0.3714  0.1897
19848TIP3    H181035   1.029   0.801   0.322 -0.3895 -1.6046 -0.1220
19848TIP3    H281036   0.988   0.747   0.457  0.0814  0.3134  0.8221
19849TIP3   OH281037   0.740   0.889  15.393 -0.1320  0.1681 -0.6569
19849TIP3    H181038   0.795   0.959  15.429  1.3422  0.3302 -3.0338
19849TIP3    H281039   0.672   0.934  15.343 -1.2947 -0.0873  0.6261
19850TIP3   OH281040   5.225   1.504   0.351 -0.1895 -0.4132 -0.1442
19850TIP3    H181041   5.148   1.560   0.363  0.7033  0.4245  2.6071
19850TIP3    H281042   5.202   1.422   0.395 -0.0263 -0.7077 -0.6009
19851TIP3   OH281043   0.199   0.574  13.597  0.0525 -0.2928  0.1975
19851TIP3    H181044   0.190   0.633  13.672 -1.4463 -2.2857  1.7008
19851TIP3    H281045   0.225   0.490  13.635  3.4204 -0.4231 -1.9937
19852TIP3   OH281046   1.982   3.128   1.538 -0.4950 -0.5213 -0.0231
19852TIP3    H181047   2.051   3.146   1.601 -0.6187 -0.6299  0.1436
19852TIP3    H281048   1.983   3.203   1.478 -2.2160  0.9931  1.7202
19853TIP3   OH281049   6.687   2.170   6.501 -0.0539  0.1179  0.9309
19853TIP3    H181050   6.684   2.223   6.581  0.0347  0.7677  0.5166
19853TIP3    H281051   6.598   2.175   6.466 -0.2973 -0.8241  1.3986
19854TIP3   OH281052   3.328   5.989  11.107 -0.3035 -0.3810  0.3019
19854TIP3    H181053   3.340   6.080  11.132 -0.8353  0.0256 -0.8840
19854TIP3    H281054   3.281   5.951  11.182 -1.9302  0.8319 -0.0498
19855TIP3   OH281055   6.518   1.874  14.188  0.3969  0.4153  0.4626
19855TIP3    H181056   6.466   1.853  14.111  1.1947  0.4989 -0.1151
19855TIP3    H281057   6.598   1.912  14.153 -0.5525  3.5828  1.4087
19856TIP3   OH281058   4.856   6.237  15.518  0.5171  0.1334  0.2048
19856TIP3    H181059   4.943   6.198  15.523  0.5849  0.0456 -1.2066
19856TIP3    H281060   4.804   6.191  15.584  0.9965 -1.2707 -0.3690
19857TIP3   OH281061   6.181   4.273  14.062  0.3852 -0.6856  1.1607
19857TIP3    H181062   6.269   4.287  14.098  0.6024  2.4297 -0.2078
19857TIP3    H281063   6.152   4.190  14.099  2.9140 -0.6079  3.6085
19858TIP3   OH281064   6.588   1.477  15.436 -0.3296  0.4849  0.4905
19858TIP3    H181065   6.598   1.414  15.365 -1.6858  0.6966  0.0913
19858TIP3    H281066   6.658   1.541  15.422 -2.7279  2.6985 -2.9743
19859TIP3   OH281067   5.334   2.897   3.639 -0.0152  0.2067  0.1101
19859TIP3    H181068   5.251   2.939   3.658  0.0051  0.3701 -0.1629
19859TIP3    H281069   5.339   2.894   3.543 -0.3862 -1.1360  0.1044
19860TIP3   OH281070   3.644   2.150   4.252  0.0209 -0.2761  0.7759
19860TIP3    H181071   3.711   2.191   4.307 -0.0034  1.3821 -0.3715
19860TIP3    H281072   3.571   2.212   4.254 -0.4013 -0.7355 -0.2307
19861TIP3   OH281073   1.747   3.735  16.713 -0.0733 -0.9703 -0.4897
19861TIP3    H181074   1.651   3.740  16.719  0.0949  1.7160  2.9936
19861TIP3    H281075   1.768   3.647  16.746 -1.3155 -0.8614  0.6960
19862TIP3   OH281076   1.371   0.633   1.974 -0.2614  0.1969  0.4138
19862TIP3    H181077   1.330   0.647   1.889 -0.8341 -0.6364  0.5412
19862TIP3    H281078   1.412   0.717   1.995 -0.4692  0.5358 -0.4873
19863TIP3   OH281079   5.940   1.476  16.461 -0.7269  0.1986  0.0679
19863TIP3    H181080   5.985   1.437  16.386 -1.0135  0.9952 -0.5295
19863TIP3    H281081   6.011   1.510  16.516 -0.5532  0.8296 -0.5296
19864TIP3   OH281082   5.444   1.897  12.351  0.6188 -0.4687 -0.5535
19864TIP3    H181083   5.486   1.982  12.363 -0.2756 -0.2106  1.0220
19864TIP3    H281084   5.363   1.917  12.305 -1.3320  0.1356  2.7879
19865TIP3   OH281085   1.565   2.621  11.620 -0.3860  0.0172 -0.2603
19865TIP3    H181086   1.486   2.674  11.611 -0.4667  0.0255  0.4263
19865TIP3    H281087   1.607   2.626  11.535 -1.0465  0.1398 -0.5870
19866TIP3   OH281088   2.382   6.318   3.693 -0.0403  0.1704 -0.0552
19866TIP3    H181089   2.421   6.281   3.772  0.8568 -0.1794 -0.6471
19866TIP3    H281090   2.289   6.326   3.713  0.1239 -0.2474  0.9062
19867TIP3   OH281091   5.693   5.239   6.573  0.2534 -0.0858 -0.2593
19867TIP3    H181092   5.600   5.255   6.587  0.1448  0.6844 -1.7014
19867TIP3    H281093   5.717   5.296   6.501  1.7258 -0.6918 -0.2894
19868TIP3   OH281094   5.241   2.462   3.913 -0.2930 -0.1478  0.5990
19868TIP3    H181095   5.272   2.552   3.904  1.4370 -0.7510  0.1854
19868TIP3    H281096   5.272   2.435   3.999  0.5540 -0.8346  0.0901
19869TIP3   OH281097   4.106   5.703  14.127  0.1301  0.2841  0.0911
19869TIP3    H181098   4.031   5.645  14.115  0.1679  0.2980 -0.2297
19869TIP3    H281099   4.099   5.766  14.055  0.8060 -0.0999 -0.3228
19870TIP3   OH281100   5.026   4.990   3.196 -0.6967 -0.0586  0.5032
19870TIP3    H181101   5.101   5.045   3.174  0.0098 -0.8735  0.8003
19870TIP3    H281102   4.957   5.017   3.137  0.2357 -0.1768 -0.6726
19871TIP3   OH281103   6.007   4.761   2.836 -0.0128  0.1268 -0.1656
19871TIP3    H181104   6.080   4.809   2.874 -0.1965  0.0506  0.2898
19871TIP3    H281105   6.048   4.693   2.782  0.3184 -1.5182  2.0430
19872TIP3   OH281106   5.423   1.534  11.797  0.1345  0.1655  0.0083
19872TIP3    H181107   5.461   1.596  11.860 -2.7143  0.0382  2.0013
19872TIP3    H281108   5.372   1.588  11.737  1.2775  0.0845 -1.1021
19873TIP3   OH281109   5.949   1.992   1.265  0.0955  0.0429  0.7998
19873TIP3    H181110   5.927   2.057   1.198 -0.2417 -0.5048  0.3709
19873TIP3    H281111   5.940   2.039   1.348 -0.2773  0.5091  0.4992
19874TIP3   OH281112   5.474   6.524  15.155 -0.1040  0.2259 -0.2856
19874TIP3    H181113   5.526   6.590  15.201 -0.7153 -0.4852  1.5457
19874TIP3    H281114   5.393   6.569  15.134 -0.9433 -0.1167  1.8801
19875TIP3   OH281115   4.953   6.351   4.884  0.0754  0.2863 -0.3260
19875TIP3    H181116   4.879   6.326   4.830 -0.1588 -2.9736  1.2653
19875TIP3    H281117   4.915   6.394   4.961 -0.3046 -1.6854  0.6511
19876TIP3   OH281118   0.269   6.206  12.260  0.5039 -0.9102  0.0958
19876TIP3    H181119   0.332   6.211  12.332  0.3364  0.9711  0.1565
19876TIP3    H281120   0.323   6.186  12.183  0.7606 -2.2761  0.5902
19877TIP3   OH281121   0.342   1.831   0.945  0.4528  0.2371  0.0709
19877TIP3    H181122   0.414   1.768   0.951 -0.3008 -0.5235  1.8402
19877TIP3    H281123   0.302   1.813   0.860  0.7253 -1.1814  0.2150
19878TIP3   OH281124   5.621   5.354  17.296  0.1384 -0.4658  0.2903
19878TIP3    H181125   5.671   5.434  17.282  1.9382 -1.4738  0.7512
19878TIP3    H281126   5.573   5.342  17.214  0.9721  0.3085 -0.3337
19879TIP3   OH281127   2.066   0.422  16.252  0.1429 -0.3501  0.0037
19879TIP3    H181128   2.139   0.362  16.269  0.8688  0.6471  0.5195
19879TIP3    H281129   2.085   0.459  16.166 -0.7125 -1.3919 -0.6723
19880TIP3   OH281130   3.165   5.200   0.441 -0.3920  0.0035  0.2113
19880TIP3    H181131   3.197   5.269   0.499  3.7772 -1.2525 -0.2923
19880TIP3    H281132   3.150   5.244   0.357 -0.6628  0.7906  0.6689
19881TIP3   OH281133   6.471   3.756   4.166 -0.0721 -0.1242  0.3762
19881TIP3    H181134   6.506   3.750   4.077 -0.7409 -2.9335  0.2347
19881TIP3    H281135   6.531   3.704   4.220 -0.2822  0.6403  1.3869
19882TIP3   OH281136   0.335   0.688   0.419  0.1344 -0.2199  0.4805
19882TIP3    H181137   0.337   0.616   0.356 -0.3214  0.2415 -0.0618
19882TIP3    H281138   0.412   0.740   0.399 -0.8073  0.7622 -0.6918
19883TIP3   OH281139   4.154   2.548  15.438  0.0694 -0.5843  0.2551
19883TIP3    H181140   4.154   2.636  15.402  0.6301 -0.4734  0.5137
19883TIP3    H281141   4.172   2.560  15.532  0.4520 -0.9891  0.2386
19884TIP3   OH281142   2.450   3.572   1.566 -0.0069  0.4177 -0.4722
19884TIP3    H181143   2.402   3.574   1.649 -1.6978  0.5220 -1.4054
19884TIP3    H281144   2.387   3.538   1.503  0.6899  1.9222 -2.0620
19885TIP3   OH281145   6.330   4.735  14.042 -0.2861  0.0165 -0.3727
19885TIP3    H181146   6.311   4.701  13.954  0.8939 -0.3869 -0.4851
19885TIP3    H281147   6.259   4.701  14.096  0.2772 -1.8155 -0.6915
19886TIP3   OH281148   3.452   2.706   1.597 -0.3164  0.2879 -0.1615
19886TIP3    H181149   3.499   2.663   1.525 -2.3371  0.5049 -1.7074
19886TIP3    H281150   3.444   2.797   1.569  1.9148  1.2620  2.0262
19887TIP3   OH281151   1.871   3.411  16.138  0.8054 -0.0996  0.1387
19887TIP3    H181152   1.814   3.486  16.148  1.3204  0.1931  1.0113
19887TIP3    H281153   1.817   3.344  16.096 -0.4497 -0.1371  1.7349
19888TIP3   OH281154   4.022   3.278  14.900  0.2897 -0.1295 -0.4641
19888TIP3    H181155   4.045   3.223  14.824  1.3881 -0.7595  0.2894
19888TIP3    H281156   4.049   3.366  14.874 -0.2497 -0.1576 -1.1714
19889TIP3   OH281157   3.990   4.786   2.062 -0.5016  0.0042  0.2406
19889TIP3    H181158   4.081   4.762   2.082  0.2985  2.0447 -0.6784
19889TIP3    H281159   3.965   4.847   2.130 -1.9183 -1.9260  1.5703
19890TIP3   OH281160   4.660   1.981  13.811  0.6444  0.4976 -0.2141
19890TIP3    H181161   4.637   1.898  13.853 -2.4320  1.9401  1.2755
19890TIP3    H281162   4.674   2.042  13.883 -0.9236  2.1367 -1.1962
19891TIP3   OH281163   2.591   0.960  14.270  0.2315  0.1580  0.6825
19891TIP3    H181164   2.634   0.875  14.270  0.9068  0.4748  2.1180
19891TIP3    H281165   2.652   1.018  14.225 -0.3414 -0.1432 -0.5248
19892TIP3   OH281166   0.829   2.818   2.974  0.3321 -0.1272  0.3705
19892TIP3    H181167   0.868   2.740   2.936  0.8215 -0.7325  2.0362
19892TIP3    H281168   0.868   2.825   3.061 -0.4566  1.4076  0.6463
19893TIP3   OH281169   0.927   4.696   0.544 -0.6168  0.1641 -0.2585
19893TIP3    H181170   0.838   4.706   0.512 -0.8617  0.8848  0.5983
19893TIP3    H281171   0.953   4.785   0.570  0.8582  0.2444 -1.7665
19894TIP3   OH281172   5.043   5.711  11.961 -0.1515  0.8872  0.1310
19894TIP3    H181173   5.079   5.800  11.969 -0.6148  0.9156  2.6370
19894TIP3    H281174   5.039   5.679  12.051 -0.6077 -1.4612 -0.6676
19895TIP3   OH281175   3.484   1.900   0.731  0.4702  0.2406  0.1911
19895TIP3    H181176   3.481   1.995   0.738 -2.0137  0.1654  1.1291
19895TIP3    H281177   3.449   1.868   0.814  2.2901 -1.5686  0.3571
19896TIP3   OH281178   3.898   1.164  12.240  0.1536  0.1860  0.5294
19896TIP3    H181179   3.919   1.218  12.164 -1.5544 -0.0142 -0.1410
19896TIP3    H281180   3.811   1.193  12.266 -0.8956 -2.2469  0.0805
19897TIP3   OH281181   0.325   2.187  15.815  0.0554  0.0861 -0.0265
19897TIP3    H181182   0.289   2.147  15.893  0.2068  0.4509  0.2323
19897TIP3    H281183   0.273   2.151  15.743  2.7505 -3.8969 -0.3276
19898TIP3   OH281184   4.894   5.060   5.926  0.2943 -0.3000 -0.2490
19898TIP3    H181185   4.927   5.041   5.838  2.1861  1.8127 -0.0814
19898TIP3    H281186   4.837   5.136   5.915  0.9336  0.2876  0.4026
19899TIP3   OH281187   6.618   1.867  13.068 -0.7759  0.5798 -0.0760
19899TIP3    H181188   6.600   1.918  12.989 -1.7391 -0.4494 -0.5390
19899TIP3    H281189   6.697   1.908  13.105 -0.8333  1.6381 -1.0725
19900TIP3   OH281190   2.618   0.716   6.767 -0.0238  0.3550 -0.1215
19900TIP3    H181191   2.563   0.792   6.747  1.5149  1.7919  0.7833
19900TIP3    H281192   2.700   0.734   6.721  0.0660 -1.2454 -0.6408
19901TIP3   OH281193   0.259   3.635   2.931  0.3611  0.1045 -0.1654
19901TIP3    H181194   0.320   3.703   2.960  0.7558 -0.2329 -0.1977
19901TIP3    H281195   0.190   3.683   2.886 -0.1616  0.6255  1.1463
19902TIP3   OH281196   5.670   4.155   5.241 -0.5562  0.5973  0.2178
19902TIP3    H181197   5.735   4.155   5.312  1.5357  0.3203 -1.6200
19902TIP3    H281198   5.594   4.111   5.280  1.5911 -2.4496  1.4181
19903TIP3   OH281199   2.980   3.042   2.954 -0.1767  0.5765  0.3758
19903TIP3    H181200   2.994   3.054   3.048 -0.5946  1.5467  0.3335
19903TIP3    H281201   3.067   3.050   2.916  0.0421 -0.1907  0.7137
19904TIP3   OH281202   3.212   1.584  11.073 -0.4136 -0.7454 -0.5908
19904TIP3    H181203   3.291   1.635  11.087 -2.2017  2.4917 -1.3934
19904TIP3    H281204   3.221   1.549  10.984  0.2470 -0.7237 -0.5362
19905TIP3   OH281205   2.682   0.306  11.788  0.1598 -0.7198 -0.3404
19905TIP3    H181206   2.601   0.256  11.802 -0.2219  0.2527  1.2771
19905TIP3    H281207   2.653   0.395  11.767  0.7375 -0.0304  1.5408
19906TIP3   OH281208   5.345   1.958  10.652  0.2093 -0.1959 -0.4485
19906TIP3    H181209   5.438   1.969  10.630  0.2828  0.3437  0.1092
19906TIP3    H281210   5.321   1.875  10.611  0.3616  0.6950 -2.4627
19907TIP3   OH281211   6.768   3.977  12.224  0.2640 -0.9411 -0.2004
19907TIP3    H181212   6.751   4.071  12.215  4.2058 -0.1062 -0.8743
19907TIP3    H281213   6.689   3.935  12.189 -1.0458  2.1153 -1.2934
19908TIP3   OH281214   3.722   2.485   1.876 -0.0750 -0.4460  0.0088
19908TIP3    H181215   3.727   2.404   1.927 -0.3213 -0.5505 -0.1349
19908TIP3    H281216   3.642   2.528   1.907  0.4471  0.1115  0.6289
19909TIP3   OH281217   2.102   2.795   3.628 -0.6542  0.0560  0.0190
19909TIP3    H181218   2.095   2.888   3.603  1.6688 -0.0669 -1.3407
19909TIP3    H281219   2.177   2.792   3.688 -0.6477 -0.9806 -0.0285
19910TIP3   OH281220   4.920   0.113  13.186 -0.2670  0.0934  0.1708
19910TIP3    H181221   4.980   0.112  13.110  0.4048  0.1085  0.6915
19910TIP3    H281222   4.973   0.079  13.258 -0.7531  0.5612  0.7522
19911TIP3   OH281223   1.613   1.033   0.304 -0.4080  0.2783  0.3124
19911TIP3    H181224   1.531   1.002   0.265 -0.7366  1.1465  0.3007
19911TIP3    H281225   1.623   1.123   0.272  1.3469 -0.3013 -0.9249
19912TIP3   OH281226   2.262   2.374   2.467 -0.1610  0.2090  0.0676
19912TIP3    H181227   2.260   2.316   2.391  1.6752  1.7613 -1.2405
19912TIP3    H281228   2.194   2.439   2.450 -0.6957 -0.2306  0.4636
19913TIP3   OH281229   6.057   3.150   5.569  0.2208  0.4063  0.7950
19913TIP3    H181230   6.014   3.229   5.538 -0.3993  0.6397  2.1799
19913TIP3    H281231   6.081   3.102   5.490  0.6540  1.9916 -0.0553
19914TIP3   OH281232   6.007   4.590   1.634 -0.0617  0.1002 -0.0102
19914TIP3    H181233   6.026   4.607   1.542  2.4423 -1.5404  0.1159
19914TIP3    H281234   5.936   4.525   1.632 -1.0714  1.1798 -0.6858
19915TIP3   OH281235   4.599   4.489   1.786  0.1762 -0.2505  0.2310
19915TIP3    H181236   4.527   4.552   1.783 -0.7700 -1.2377  1.2033
19915TIP3    H281237   4.659   4.524   1.852 -0.2007 -0.2350  0.5655
19916TIP3   OH281238   2.408   2.554   0.776 -0.0062 -0.3873 -0.0515
19916TIP3    H181239   2.496   2.520   0.789  0.1499  0.5249  1.5057
19916TIP3    H281240   2.351   2.477   0.780  0.5223 -0.7320  1.3299
19917TIP3   OH281241   4.904   2.321  12.404  0.3823 -0.0131 -0.3695
19917TIP3    H181242   4.911   2.416  12.406  2.1488 -0.0573  3.4778
19917TIP3    H281243   4.973   2.293  12.345  0.3665  1.0463 -0.9165
19918TIP3   OH281244   5.264   0.209  12.820  1.1898 -0.0622  0.2602
19918TIP3    H181245   5.235   0.271  12.753  2.3472 -0.7039 -0.8694
19918TIP3    H281246   5.183   0.167  12.850  0.6330  0.3189 -0.6454
19919TIP3   OH281247   3.980   3.075  16.286  0.2342 -0.3228  0.3565
19919TIP3    H181248   3.912   3.141  16.289  0.4909  0.1500 -2.0688
19919TIP3    H281249   3.935   2.995  16.259  0.3224 -0.5609  0.8852
19920TIP3   OH281250   5.116   1.030  13.637  0.2185  0.0842 -0.1104
19920TIP3    H181251   5.022   1.036  13.654  0.6761 -1.2100  4.3844
19920TIP3    H281252   5.152   1.110  13.676  1.1626 -1.4631  2.5073
19921TIP3   OH281253   5.206   5.019  17.169 -0.3449 -0.2856  0.3126
19921TIP3    H181254   5.144   5.073  17.219 -1.7185 -0.9175 -0.6615
19921TIP3    H281255   5.233   4.951  17.231 -2.1012 -1.1205  0.2317
19922TIP3   OH281256   4.458   1.633   6.030  0.0664  0.2996 -0.9037
19922TIP3    H181257   4.406   1.583   5.967 -1.3586 -0.3930  0.7328
19922TIP3    H281258   4.476   1.716   5.986 -0.9812 -0.1119 -2.1703
19923TIP3   OH281259   1.799   4.725   1.695 -0.1007  0.4862  0.2726
19923TIP3    H181260   1.795   4.645   1.643 -0.5457  0.8781 -0.3172
19923TIP3    H281261   1.765   4.700   1.781  2.7475 -0.7076  1.1364
19924TIP3   OH281262   4.759   1.672   2.885 -0.4228 -0.0987 -0.3303
19924TIP3    H181263   4.837   1.629   2.848 -1.2943 -1.8460 -0.2250
19924TIP3    H281264   4.774   1.766   2.869  2.8363 -0.0917  1.8799
19925TIP3   OH281265   2.688   5.229  13.710 -0.0609  0.3239 -0.0609
19925TIP3    H181266   2.753   5.299  13.704  2.2774 -1.5661  1.0182
19925TIP3    H281267   2.642   5.246  13.792  0.7779  0.4146  0.4084
19926TIP3   OH281268   1.396   5.072  13.908 -0.3052 -0.6419  0.1197
19926TIP3    H181269   1.317   5.037  13.950  0.4472 -1.6624  0.7340
19926TIP3    H281270   1.426   5.141  13.968 -0.5176 -0.5128  0.0779
19927TIP3   OH281271   2.865   6.754   4.917 -0.4157  0.1730  0.2535
19927TIP3    H181272   2.838   6.738   4.827  0.8848 -0.9804  0.0440
19927TIP3    H281273   2.806   6.823   4.948 -2.0980 -0.7052 -0.8605
19928TIP3   OH281274   2.388   1.888   5.649 -0.2611  0.1096  0.3551
19928TIP3    H181275   2.352   1.902   5.737  1.0431  1.9728  0.6403
19928TIP3    H281276   2.359   1.965   5.599 -0.3385 -0.5535 -0.6519
19929TIP3   OH281277   2.894   4.499   4.628  0.2347  0.1830  0.2429
19929TIP3    H181278   2.973   4.541   4.661  0.8668 -1.1236  0.4605
19929TIP3    H281279   2.878   4.426   4.688 -0.7656  0.0354 -0.1782
19930TIP3   OH281280   2.633   0.608   0.812  0.0981  0.2849  0.8577
19930TIP3    H181281   2.653   0.643   0.899  0.5050 -1.0860  1.3419
19930TIP3    H281282   2.600   0.519   0.828 -1.5553  0.6513 -0.2858
19931TIP3   OH281283   1.909   3.827   1.858 -0.0850  0.0831  0.0245
19931TIP3    H181284   1.904   3.849   1.765  1.1642  2.0674  0.3580
19931TIP3    H281285   1.924   3.911   1.902 -1.0851 -0.7306  2.0883
19932TIP3   OH281286   6.161   1.446   0.903  0.6601  0.6295 -0.5279
19932TIP3    H181287   6.177   1.379   0.969 -0.5445  1.1806  0.3625
19932TIP3    H281288   6.067   1.441   0.887  0.5852  1.9739 -0.5940
19933TIP3   OH281289   1.789   3.949  15.785  0.3867  0.0413  0.2071
19933TIP3    H181290   1.798   3.862  15.824  0.7261 -0.0872 -0.1503
19933TIP3    H281291   1.706   3.983  15.819 -0.1222 -0.7270 -0.2542
19934TIP3   OH281292   2.799   0.477   2.314 -0.5334  0.1572 -0.3344
19934TIP3    H181293   2.763   0.388   2.311  0.6191 -0.3104 -2.5653
19934TIP3    H281294   2.723   0.533   2.328 -1.5174 -1.0824 -0.5211
19935TIP3   OH281295   6.147   5.571  11.865  0.0180  0.0519 -0.3479
19935TIP3    H181296   6.074   5.533  11.816 -1.1954  0.4552  1.0758
19935TIP3    H281297   6.140   5.665  11.849 -1.4124  0.3943  1.7818
19936TIP3   OH281298   6.446   0.109  12.903 -0.3838 -0.6976  0.1340
19936TIP3    H181299   6.442   0.014  12.908  0.4359 -0.7425  0.0743
19936TIP3    H281300   6.452   0.128  12.809 -4.0616 -0.4021 -0.1539
19937TIP3   OH281301   0.893   5.962   2.126  0.8857 -0.1603  0.1552
19937TIP3    H181302   0.841   5.994   2.200  0.0362 -0.3596 -0.3365
19937TIP3    H281303   0.956   5.901   2.165  0.1597 -0.6017  0.6722
19938TIP3   OH281304   2.060   2.540   2.340 -0.3048  0.1339 -0.2273
19938TIP3    H181305   2.019   2.623   2.316  0.1017  0.9718  1.7790
19938TIP3    H281306   1.987   2.486   2.370 -0.4358  0.1735 -0.4744
19939TIP3   OH281307   2.292   6.626   4.031  0.4270 -0.8022 -0.4947
19939TIP3    H181308   2.225   6.640   4.098  0.1966  0.0586 -0.8949
19939TIP3    H281309   2.343   6.707   4.030 -0.0419 -0.4919 -1.8599
19940TIP3   OH281310   5.403   1.759   4.096  0.9639 -0.0860  0.5430
19940TIP3    H181311   5.383   1.666   4.080 -0.7121  0.1683  0.8769
19940TIP3    H281312   5.487   1.774   4.054 -0.4736 -0.8234 -2.9117
19941TIP3   OH281313   6.361   1.249  15.195  0.6595  0.1304 -0.3370
19941TIP3    H181314   6.374   1.296  15.112  2.4334 -1.0481 -0.7956
19941TIP3    H281315   6.282   1.197  15.180  1.0773 -0.2359 -1.3872
19942TIP3   OH281316   5.174   2.928   5.355  0.4336  0.3369 -0.4624
19942TIP3    H181317   5.186   2.869   5.429 -0.8181  0.9176  0.2561
19942TIP3    H281318   5.150   3.011   5.395 -4.0040 -0.2062 -1.4514
19943TIP3   OH281319   4.326   4.806  11.414  0.1390  0.5445 -0.3990
19943TIP3    H181320   4.342   4.720  11.376  0.9352  0.6363 -0.2787
19943TIP3    H281321   4.307   4.789  11.506 -1.2107  0.3734 -0.6935
19944TIP3   OH281322   3.442   0.336   2.409 -0.0923 -0.1317 -0.2307
19944TIP3    H181323   3.518   0.380   2.371  0.4496 -0.2945  0.6271
19944TIP3    H281324   3.457   0.340   2.503 -1.0652 -0.3340 -0.0589
19945TIP3   OH281325   1.862   0.074  12.266  0.4166  0.0871  0.3079
19945TIP3    H181326   1.782   0.125  12.278  1.0859  0.9048  1.5205
19945TIP3    H281327   1.933   0.134  12.292  1.3184 -1.0314  0.5022
19946TIP3   OH281328   2.068   0.428  10.566 -0.7718 -0.4659 -0.6771
19946TIP3    H181329   2.045   0.405  10.656 -1.2267  1.3509 -0.2919
19946TIP3    H281330   2.026   0.361  10.512 -1.7760 -0.7051  0.3724
19947TIP3   OH281331   3.723   3.662   0.706 -0.1918 -0.2087  0.2949
19947TIP3    H181332   3.785   3.643   0.636 -1.1934  1.4910 -1.1350
19947TIP3    H281333   3.687   3.748   0.684 -3.2188 -1.1984  0.9310
19948TIP3   OH281334   3.370   2.305   0.811  0.2427  0.0424 -0.6076
19948TIP3    H181335   3.413   2.263   0.736  0.0362  1.1946 -1.4021
19948TIP3    H281336   3.352   2.233   0.871  2.7003 -0.5889 -0.4976
19949TIP3   OH281337   5.962   0.405  13.692 -0.0043 -0.0235  0.5370
19949TIP3    H181338   5.992   0.477  13.748  0.8079  0.7043 -0.7753
19949TIP3    H281339   6.014   0.414  13.612 -1.9463 -0.3007 -0.8187
19950TIP3   OH281340   4.770   0.854  11.524 -0.3005 -0.3460 -0.0151
19950TIP3    H181341   4.710   0.921  11.559  1.2732  1.3130 -0.3333
19950TIP3    H281342   4.802   0.808  11.602  0.5215  0.9897  0.4719
19951TIP3   OH281343   0.548   0.154   2.434 -0.1810  0.4272 -0.0668
19951TIP3    H181344   0.464   0.166   2.478 -0.3838 -0.9611 -0.0541
19951TIP3    H281345   0.529   0.170   2.341 -0.2908  0.8484  0.0255
19952TIP3   OH281346   3.254   2.392   2.850  0.0018  0.5061  0.5624
19952TIP3    H181347   3.179   2.349   2.892 -1.7837  0.6102 -2.2638
19952TIP3    H281348   3.321   2.324   2.845 -0.3745  0.0023  1.9300
19953TIP3   OH281349   2.858   3.195  10.596  0.0155  0.2429  0.0006
19953TIP3    H181350   2.921   3.262  10.622 -0.7243  1.1123 -0.3895
19953TIP3    H281351   2.911   3.120  10.571  0.8291  0.3000  1.4567
19954TIP3   OH281352   6.749   0.944  13.603 -0.0565 -0.5142  0.3383
19954TIP3    H181353   6.759   1.033  13.634 -1.0192 -0.6626  1.1348
19954TIP3    H281354   6.820   0.895  13.646  0.4093 -0.1650 -0.0229
19955TIP3   OH281355   2.482   2.828  16.121  0.3259  0.0124 -0.0405
19955TIP3    H181356   2.413   2.776  16.163  0.5617 -0.2424  0.0356
19955TIP3    H281357   2.451   2.918  16.126 -0.8504 -0.2660 -1.6271
19956TIP3   OH281358   4.668   0.975   2.619  0.5943  0.5028  0.3552
19956TIP3    H181359   4.735   0.993   2.685 -0.8898  0.5143  1.9504
19956TIP3    H281360   4.599   1.039   2.638 -0.5161 -0.4917 -0.2255
19957TIP3   OH281361   1.379   6.120  12.378  0.5801 -0.0610  0.3087
19957TIP3    H181362   1.453   6.126  12.439  1.2684 -0.5481 -0.4494
19957TIP3    H281363   1.302   6.109  12.434  0.9132  1.6782  1.1769
19958TIP3   OH281364   1.483   2.358   4.236 -0.0664  0.1193  0.4345
19958TIP3    H181365   1.460   2.329   4.325  1.3880  1.5770  1.3548
19958TIP3    H281366   1.567   2.315   4.218 -0.1455  0.1716 -0.0676
19959TIP3   OH281367   4.189   5.480   6.549 -0.5746  0.3240  0.3455
19959TIP3    H181368   4.104   5.450   6.582 -1.2257  1.9537  0.2725
19959TIP3    H281369   4.246   5.479   6.625 -1.0057  0.3861  0.6744
19960TIP3   OH281370   1.607   0.693   2.671 -0.2396  0.4681  0.3697
19960TIP3    H181371   1.582   0.631   2.603 -0.3860  0.7916  0.1262
19960TIP3    H281372   1.660   0.642   2.733 -0.3095  0.1194  0.1392
19961TIP3   OH281373   3.003   0.160  11.322 -0.7532  0.3191 -0.0475
19961TIP3    H181374   2.967   0.092  11.265 -1.4402  0.7959 -0.1898
19961TIP3    H281375   2.951   0.238  11.303  1.0784  1.3652 -1.1013
19962TIP3   OH281376   5.080   4.143   1.480  0.4612 -0.0434  0.1218
19962TIP3    H181377   5.087   4.223   1.428 -0.4667  0.2064  0.3694
19962TIP3    H281378   5.089   4.172   1.570  0.1236 -0.2195  0.2133
19963TIP3   OH281379   4.832   6.112   5.822 -0.0958  0.1056 -0.3878
19963TIP3    H181380   4.753   6.080   5.866 -0.7353  2.7013  0.5290
19963TIP3    H281381   4.851   6.046   5.755 -1.5735 -1.8276  1.0115
19964TIP3   OH281382   3.906   2.678  13.885 -0.1251  0.0221 -0.0359
19964TIP3    H181383   3.878   2.767  13.859  0.2955 -0.0763 -0.8667
19964TIP3    H281384   3.837   2.648  13.944  0.0073  1.1113  0.7040
19965TIP3   OH281385   3.093   1.757  15.623  0.1745  0.1358  0.2411
19965TIP3    H181386   3.136   1.777  15.706 -1.5695  1.0178  1.0060
19965TIP3    H281387   3.138   1.812  15.559  0.0691  1.2116  1.0529
19966TIP3   OH281388   1.250   3.287   1.624  0.3857 -0.0943  0.1089
19966TIP3    H181389   1.262   3.201   1.584 -2.7809 -0.7462  0.3253
19966TIP3    H281390   1.271   3.274   1.717  1.8464 -0.0852 -0.1974
19967TIP3   OH281391   6.628   5.911  11.498  0.1929  0.9226 -0.1571
19967TIP3    H181392   6.670   5.909  11.583  2.0081 -0.3090 -1.0094
19967TIP3    H281393   6.632   6.002  11.471  0.4358  1.1664  0.6899
19968TIP3   OH281394   6.182   3.791   2.337 -0.0115 -0.2867 -0.1648
19968TIP3    H181395   6.142   3.871   2.304  1.4988  1.1029  1.2185
19968TIP3    H281396   6.157   3.788   2.429  2.1431  0.0637  0.4760
19969TIP3   OH281397   4.890   4.348   5.609 -0.1127 -0.3776  0.1076
19969TIP3    H181398   4.958   4.395   5.561 -0.3894  0.0495  0.1274
19969TIP3    H281399   4.877   4.266   5.561 -0.3162 -0.0007 -0.4803
19970TIP3   OH281400   5.546   2.498   5.371 -0.4741 -0.7551 -0.2593
19970TIP3    H181401   5.641   2.507   5.372 -0.1724 -3.3028 -0.1151
19970TIP3    H281402   5.513   2.585   5.393  1.8441 -0.3699  2.1216
19971TIP3   OH281403   1.602   2.275   5.489 -0.3198 -0.4675  0.4893
19971TIP3    H181404   1.649   2.317   5.418 -2.9368  0.6615 -0.7093
19971TIP3    H281405   1.620   2.181   5.479  0.5054 -0.1852 -0.7523
19972TIP3   OH281406   2.802   5.262  16.927 -0.0924  0.9167  0.4421
19972TIP3    H181407   2.723   5.217  16.896 -1.1672  3.2314 -0.3930
19972TIP3    H281408   2.872   5.198  16.915 -1.6720 -0.9172  0.3902
19973TIP3   OH281409   0.673   4.345   1.443  0.4731  0.5991  0.1216
19973TIP3    H181410   0.751   4.400   1.443  0.2950  0.9172 -1.3255
19973TIP3    H281411   0.600   4.407   1.441  0.1131  0.3214  2.3085
19974TIP3   OH281412   0.921   2.556   1.574  0.3649  0.4233 -0.3808
19974TIP3    H181413   0.941   2.642   1.538 -0.0979  0.7475  0.1083
19974TIP3    H281414   0.899   2.574   1.666 -0.6110 -0.0936 -0.5024
19975TIP3   OH281415   0.997   5.253   7.088  0.1179 -0.1520  0.0387
19975TIP3    H181416   1.015   5.193   7.016 -0.1815 -1.1851  0.8048
19975TIP3    H281417   1.077   5.305   7.096  0.6538 -0.9213 -0.2003
19976TIP3   OH281418   6.272   2.531  14.474 -0.3066 -0.4228  0.8653
19976TIP3    H181419   6.257   2.625  14.477  2.3487  0.1439 -0.1337
19976TIP3    H281420   6.205   2.497  14.415 -0.4575  1.0765  0.1449
19977TIP3   OH281421   6.715   4.408  15.215  0.0910  0.0908 -0.2828
19977TIP3    H181422   6.652   4.340  15.239 -0.4245  0.0630 -1.6108
19977TIP3    H281423   6.792   4.360  15.184 -0.1225  0.1055 -0.8458
19978TIP3   OH281424   5.552   0.363  15.329  0.3631  0.1022 -0.3198
19978TIP3    H181425   5.561   0.352  15.235  0.7216 -1.9357 -0.0952
19978TIP3    H281426   5.458   0.348  15.346  0.6314 -1.7174 -0.1715
19979TIP3   OH281427   1.068   1.404   0.529  0.1692 -0.8050  0.6508
19979TIP3    H181428   1.001   1.437   0.588 -0.9740  1.0675 -1.5041
19979TIP3    H281429   1.028   1.328   0.487 -1.0823  0.7708 -1.2142
19980TIP3   OH281430   6.445   0.673  14.851 -0.2936  0.0578  0.2468
19980TIP3    H181431   6.506   0.661  14.778 -0.2258  1.9846 -0.0653
19980TIP3    H281432   6.502   0.685  14.927 -0.3648 -2.2283  0.7330
19981TIP3   OH281433   2.570   3.832  17.066 -0.4898  0.6669  0.0811
19981TIP3    H181434   2.612   3.863  17.146  2.1083 -0.4263 -0.7670
19981TIP3    H281435   2.597   3.895  16.999 -0.6837  0.2715 -0.3766
19982TIP3   OH281436   2.201   0.257   1.369 -0.3542 -0.0383 -0.4490
19982TIP3    H181437   2.215   0.337   1.420  2.1996  0.3714 -1.6308
19982TIP3    H281438   2.253   0.190   1.415  1.1481  0.1035 -1.8456
19983TIP3   OH281439   4.627   1.161  11.641  0.2964  0.1597 -0.2792
19983TIP3    H181440   4.591   1.235  11.592  0.3832 -0.0419 -0.6534
19983TIP3    H281441   4.582   1.164  11.726  0.8799  1.1146  0.0102
19984TIP3   OH281442   5.845   5.814   2.443 -0.2617 -0.2555  0.2347
19984TIP3    H181443   5.911   5.836   2.377 -1.2040  0.5878 -0.4570
19984TIP3    H281444   5.866   5.725   2.469  0.8608 -0.1735 -0.3147
19985TIP3   OH281445   5.745   4.402   1.432  0.1522  0.2816  0.6074
19985TIP3    H181446   5.802   4.420   1.357  0.7619  2.2740  1.5081
19985TIP3    H281447   5.683   4.475   1.434 -0.9774 -0.6494  1.0384
19986TIP3   OH281448   5.411   1.787  15.044 -0.0725  0.6853 -0.7152
19986TIP3    H181449   5.456   1.816  14.964  0.8939 -0.7899 -0.7383
19986TIP3    H281450   5.368   1.706  15.019  0.3762  0.1179  0.2856
19987TIP3   OH281451   4.844   2.362   7.044  0.1516 -0.6398 -0.5332
19987TIP3    H181452   4.873   2.386   6.956  0.3982  0.1664 -0.2354
19987TIP3    H281453   4.894   2.419   7.103 -1.0480 -0.1646  0.0630
19988TIP3   OH281454   1.534   4.060   6.114  0.0009  0.1323  0.1266
19988TIP3    H181455   1.495   4.147   6.119 -1.0678 -0.3841  1.5131
19988TIP3    H281456   1.624   4.071   6.145 -0.3042  0.6513  0.8410
19989TIP3   OH281457   3.385   6.630   3.187 -0.1632 -0.0409  0.6953
19989TIP3    H181458   3.430   6.685   3.251  0.1041  1.8631 -1.0097
19989TIP3    H281459   3.299   6.615   3.225 -0.2728  1.6569  1.2174
19990TIP3   OH281460   4.685   3.904  17.140  0.5638 -0.1833 -0.3224
19990TIP3    H181461   4.612   3.951  17.180 -0.8123 -1.6311 -1.0021
19990TIP3    H281462   4.761   3.929  17.192 -0.6453  0.2906  1.3247
19991TIP3   OH281463   5.879   0.180  13.461  0.6692  0.0293 -0.1184
19991TIP3    H181464   5.942   0.250  13.475  1.7511 -0.9048 -0.1455
19991TIP3    H281465   5.933   0.103  13.441 -0.5159 -0.6106 -0.9632
19992TIP3   OH281466   0.397   2.842  12.574  0.2168 -0.8943  0.4136
19992TIP3    H181467   0.402   2.850  12.479 -2.8321 -0.9970  0.1376
19992TIP3    H281468   0.389   2.932  12.606 -0.7329 -0.9326  0.3363
19993TIP3   OH281469   5.244   2.870   0.015  0.3021 -0.4336 -0.5464
19993TIP3    H181470   5.300   2.918   0.075  2.3814 -1.3755 -1.6411
19993TIP3    H281471   5.223   2.932  -0.054  3.0820 -1.0225 -2.0223
19994TIP3   OH281472   4.858   1.952   0.403 -0.4825 -0.2757  0.7997
19994TIP3    H181473   4.776   1.903   0.408 -0.9681  0.5628  1.3730
19994TIP3    H281474   4.854   2.012   0.478 -0.1219  0.9399 -0.1262
19995TIP3   OH281475   2.586   6.699  10.865  0.1865 -0.2503  0.3081
19995TIP3    H181476   2.578   6.731  10.775  3.1146 -0.8189 -0.2787
19995TIP3    H281477   2.591   6.603  10.855 -0.8913 -0.4130  1.2382
19996TIP3   OH281478   6.649   1.720   6.398  0.4517 -0.5242 -0.2754
19996TIP3    H181479   6.569   1.723   6.451  0.3233 -0.4410 -0.4757
19996TIP3    H281480   6.625   1.761   6.316  0.9267  0.2572 -0.0338
19997TIP3   OH281481   3.475   4.114   4.991 -0.1671 -0.0981  0.0252
19997TIP3    H181482   3.501   4.200   5.022 -2.2277  0.5005  0.2373
19997TIP3    H281483   3.462   4.125   4.897  0.1982 -0.3522 -0.0576
19998TIP3   OH281484   5.367   4.218   5.744  0.3986  0.2863 -0.3708
19998TIP3    H181485   5.453   4.259   5.745  0.0912  0.9350  0.2364
19998TIP3    H281486   5.340   4.215   5.836  0.2229 -0.8851 -0.4422
19999TIP3   OH281487   1.217   2.819  15.324 -0.1314 -0.3746 -0.2869
19999TIP3    H181488   1.214   2.734  15.280 -0.4823 -1.3477  1.5592
19999TIP3    H281489   1.310   2.835  15.341 -0.1328 -0.7899  0.1147
20000TIP3   OH281490   0.217   1.729  13.129 -0.3593  0.2062 -0.2110
20000TIP3    H181491   0.286   1.669  13.156 -0.2597  0.5134  0.2318
20000TIP3    H281492   0.183   1.765  13.211 -2.4235 -1.4176 -0.2705
20001TIP3   OH281493   3.859   6.248  15.328  0.2026  0.0641  0.3417
20001TIP3    H181494   3.922   6.261  15.398  0.6016 -0.2051  0.0321
20001TIP3    H281495   3.904   6.278  15.249 -0.2045  0.2663  0.1824
20002TIP3   OH281496   5.281   0.902  16.673  0.0869  0.0032 -0.3705
20002TIP3    H181497   5.203   0.858  16.708 -0.9224  1.3793 -0.7932
20002TIP3    H281498   5.351   0.838  16.683 -0.9384 -1.0090  0.7216
20003TIP3   OH281499   0.211   0.422   4.606  0.0355 -0.6114  0.4683
20003TIP3    H181500   0.134   0.371   4.631 -0.6291  0.7621  1.4168
20003TIP3    H281501   0.180   0.513   4.609  2.3560  0.2198  3.6396
20004TIP3   OH281502   0.567   3.545   4.034 -0.3791 -0.4231  0.7321
20004TIP3    H181503   0.576   3.604   4.109 -2.2799  2.6851 -1.2778
20004TIP3    H281504   0.520   3.596   3.968  0.4698 -3.2439 -2.3429
20005TIP3   OH281505   3.188   4.123  14.452  0.0645  0.0230  0.2860
20005TIP3    H181506   3.148   4.181  14.517  1.1695  0.2648  0.7761
20005TIP3    H281507   3.244   4.181  14.399 -1.6576  0.0407 -1.6441
20006TIP3   OH281508   3.411   1.384  13.600 -0.3135 -0.2465 -0.1706
20006TIP3    H181509   3.457   1.328  13.537 -1.4440 -1.6453  0.1958
20006TIP3    H281510   3.469   1.386  13.676  0.1650 -0.1568 -0.5333
20007TIP3   OH281511   5.720   3.965  11.395 -0.3811 -0.2813 -0.4710
20007TIP3    H181512   5.721   3.884  11.344 -1.4101 -0.1575 -0.6953
20007TIP3    H281513   5.810   3.998  11.388  0.2310 -1.7611  0.2205
20008TIP3   OH281514   2.986   6.352  12.698  0.9333  0.8277 -0.3957
20008TIP3    H181515   3.021   6.437  12.673 -0.7879  1.0210 -2.3985
20008TIP3    H281516   2.967   6.308  12.615 -1.0387 -0.2967  0.5719
20009TIP3   OH281517   4.642   2.132   1.537 -0.4344 -0.3971  0.1569
20009TIP3    H181518   4.569   2.070   1.534 -1.7433  1.1221 -1.8622
20009TIP3    H281519   4.720   2.076   1.540 -1.5710 -2.1611 -1.0965
20010TIP3   OH281520   2.831   1.521  16.098 -0.0906 -0.0190 -0.3041
20010TIP3    H181521   2.856   1.429  16.093  0.5019  0.0030  1.5567
20010TIP3    H281522   2.902   1.568  16.054  1.1943 -0.2648  1.3997
20011TIP3   OH281523   4.400   4.861   0.433  0.1301  0.2546  0.5719
20011TIP3    H181524   4.405   4.928   0.366 -0.8687  0.4545  0.6854
20011TIP3    H281525   4.439   4.784   0.393 -0.7455  0.2807 -0.3633
20012TIP3   OH281526   4.120   2.545   0.226 -0.4388  0.1107 -0.1506
20012TIP3    H181527   4.138   2.593   0.146  0.8143 -1.2717 -0.7323
20012TIP3    H281528   4.069   2.469   0.198  0.7454 -0.8449  0.2013
20013TIP3   OH281529   3.467   3.620   5.248 -0.0230 -0.0168 -0.7486
20013TIP3    H181530   3.546   3.568   5.231  0.4704  0.7849 -0.9354
20013TIP3    H281531   3.490   3.709   5.222 -0.4087  0.5789  0.8544
20014TIP3   OH281532   1.184   0.107  13.020 -0.3064  0.4037  0.4211
20014TIP3    H181533   1.159   0.150  13.102  0.4119 -0.1418  0.9363
20014TIP3    H281534   1.151   0.017  13.029 -1.9466  0.8564 -0.7161
20015TIP3   OH281535   4.637   3.660   6.459 -0.2318 -0.0350 -0.0934
20015TIP3    H181536   4.576   3.587   6.472  1.2485 -1.1930  0.7855
20015TIP3    H281537   4.670   3.679   6.547  0.8630  0.3610 -0.5729
20016TIP3   OH281538   6.611   5.387   1.200 -0.4568  0.6524  0.0949
20016TIP3    H181539   6.696   5.374   1.157 -0.0603  1.7409  0.5006
20016TIP3    H281540   6.602   5.312   1.259 -0.5665 -0.3492 -1.1739
20017TIP3   OH281541   0.811   6.262   2.840 -0.5553 -0.1064 -0.0063
20017TIP3    H181542   0.719   6.281   2.821 -0.6462 -0.4297  0.1086
20017TIP3    H281543   0.844   6.343   2.878 -0.7594  0.0530 -0.1612
20018TIP3   OH281544   1.295   1.114  12.540  0.0185  0.7151  0.5966
20018TIP3    H181545   1.262   1.203  12.525 -1.1110  0.6308  2.3681
20018TIP3    H281546   1.223   1.057  12.515 -0.4909  0.4457  2.5404
20019TIP3   OH281547   3.253   2.128   6.781 -0.1419 -0.1616  0.3031
20019TIP3    H181548   3.162   2.107   6.761  0.0745  0.0992 -1.1332
20019TIP3    H281549   3.303   2.083   6.712  0.7663  0.1460  0.7472
20020TIP3   OH281550   4.412   6.638   0.645 -0.2520  0.0030  0.3231
20020TIP3    H181551   4.460   6.556   0.632 -0.4387 -0.4929  2.3587
20020TIP3    H281552   4.474   6.706   0.618  0.9577 -0.7136  1.1752
20021TIP3   OH281553   4.176   0.953   5.504  0.1332 -0.0879  0.1906
20021TIP3    H181554   4.229   0.877   5.528  0.8155  0.4097  0.2996
20021TIP3    H281555   4.195   1.018   5.572 -1.4935 -0.2791  0.8743
20022TIP3   OH281556   3.643   3.055  16.853  0.9306 -0.6252  0.3344
20022TIP3    H181557   3.639   2.975  16.801 -0.4868  0.6053 -1.5949
20022TIP3    H281558   3.731   3.089  16.839  0.3712  0.0554 -1.9977
20023TIP3   OH281559   4.691   0.116  13.489  0.1331 -0.2799 -0.0869
20023TIP3    H181560   4.696   0.194  13.433 -1.5993 -0.8254 -1.0731
20023TIP3    H281561   4.718   0.148  13.575  2.8906  0.5794 -1.1598
20024TIP3   OH281562   0.876   5.125  15.320  0.2149  0.0938  0.0213
20024TIP3    H181563   0.862   5.137  15.226 -1.0573  1.1748  0.3062
20024TIP3    H281564   0.788   5.111  15.355  0.5256  0.9984  1.2055
20025TIP3   OH281565   4.235   5.547  16.724  0.1141  0.6376  0.0757
20025TIP3    H181566   4.230   5.453  16.742  0.4343  0.7702  0.8826
20025TIP3    H281567   4.306   5.579  16.780 -0.1716  1.4062  0.0117
20026TIP3   OH281568   2.570   3.069  11.851 -0.2554  0.7626 -0.0267
20026TIP3    H181569   2.535   3.152  11.819  0.2401  1.1030  0.2979
20026TIP3    H281570   2.655   3.092  11.890 -1.0607  0.4717  2.0398
20027TIP3   OH281571   4.648   3.742  13.817 -0.0842  0.2524 -0.3107
20027TIP3    H181572   4.555   3.754  13.837  0.2846  1.4649  0.8454
20027TIP3    H281573   4.667   3.652  13.843 -0.9102  0.0135 -0.4983
20028TIP3   OH281574   3.310   6.042  13.396  0.3727 -0.6595  0.8925
20028TIP3    H181575   3.312   6.098  13.473 -0.5050  1.2700 -0.4186
20028TIP3    H281576   3.357   6.091  13.329 -1.6505 -0.7768 -0.7058
20029TIP3   OH281577   0.545   4.575   2.813  0.2471 -0.1706  0.0997
20029TIP3    H181578   0.626   4.593   2.765  0.5121 -0.4142  0.4442
20029TIP3    H281579   0.521   4.659   2.852 -0.3009  0.1720 -0.9381
20030TIP3   OH281580   4.657   5.928   6.054  0.7767  0.1788 -0.3309
20030TIP3    H181581   4.588   5.917   6.119  1.5226 -0.0136  0.4542
20030TIP3    H281582   4.738   5.914   6.103  1.3592  0.0266 -1.3074
20031TIP3   OH281583   0.857   3.301   0.105 -0.1770  0.0841 -0.4184
20031TIP3    H181584   0.910   3.380   0.092 -0.2910  0.4067  0.9509
20031TIP3    H281585   0.767   3.332   0.093 -0.2041  0.1118 -0.1555
20032TIP3   OH281586   1.439   4.814  16.647  0.3735 -0.3354  0.3649
20032TIP3    H181587   1.465   4.895  16.604  0.1293  0.1780  1.1561
20032TIP3    H281588   1.468   4.825  16.738 -0.9171 -0.5437  0.8140
20033TIP3   OH281589   3.247   4.837  13.531  0.5713 -0.0976 -0.0374
20033TIP3    H181590   3.256   4.920  13.579  1.2891 -0.1912  0.0061
20033TIP3    H281591   3.185   4.786  13.582  1.6361 -0.3551  1.0439
20034TIP3   OH281592   4.237   0.237  15.195  0.0612  0.4359  0.2808
20034TIP3    H181593   4.176   0.165  15.207  0.0186 -0.1648 -2.7881
20034TIP3    H281594   4.181   0.313  15.180  0.0468  0.2539 -0.6465
20035TIP3   OH281595   2.482   2.986   2.025  0.3639 -0.3592  0.0894
20035TIP3    H181596   2.571   2.980   2.061  1.8633  0.0868 -3.1593
20035TIP3    H281597   2.464   3.080   2.023  0.3862 -0.3628 -0.4410
20036TIP3   OH281598   3.167   4.376   0.359  0.1207 -0.6896  0.7344
20036TIP3    H181599   3.158   4.405   0.268 -2.1955 -2.3020  0.3685
20036TIP3    H281600   3.187   4.456   0.408  0.3343  0.3864 -1.0257
20037TIP3   OH281601   1.564   0.930   4.524  0.3476  0.5522 -0.1190
20037TIP3    H181602   1.657   0.945   4.540  0.8480  1.3315 -3.1531
20037TIP3    H281603   1.523   0.943   4.610  2.6400  3.5294  0.7137
20038TIP3   OH281604   2.066   0.632   4.936  0.1339 -0.3269  0.1315
20038TIP3    H181605   2.151   0.592   4.957 -0.3787 -0.7820  1.4395
20038TIP3    H281606   2.053   0.698   5.005 -0.5598 -0.2337 -0.0794
20039TIP3   OH281607   3.115   4.460  13.169 -0.1460 -0.1837 -0.1183
20039TIP3    H181608   3.143   4.443  13.079 -0.0763  0.5209 -0.2341
20039TIP3    H281609   3.194   4.487  13.215 -0.4511  0.9686 -0.2340
20040TIP3   OH281610   0.090   5.627  11.564 -0.2248 -0.3697 -0.3789
20040TIP3    H181611   0.053   5.557  11.509  1.2143 -0.3998 -1.3671
20040TIP3    H281612   0.177   5.596  11.587  0.0421  0.6517  0.0491
20041TIP3   OH281613   2.437   1.178  14.668  0.2125 -0.3592  0.4364
20041TIP3    H181614   2.431   1.157  14.761 -0.0827 -1.0754  0.2709
20041TIP3    H281615   2.474   1.099  14.628  0.6548  0.0657 -0.0106
20042TIP3   OH281616   3.499   6.038   1.487 -0.1827 -0.3504 -0.0031
20042TIP3    H181617   3.512   6.064   1.579  1.0219 -0.9566  0.0130
20042TIP3    H281618   3.411   6.069   1.466  0.5780  2.3980  0.4743
20043TIP3   OH281619   1.276   5.890   5.444 -0.2278  0.2445  0.0785
20043TIP3    H181620   1.304   5.826   5.378  1.3776  0.4746  0.4954
20043TIP3    H281621   1.198   5.852   5.483  0.5348 -1.3573  0.1226
20044TIP3   OH281622   6.463   0.027  10.501  0.4785  0.1113 -0.0198
20044TIP3    H181623   6.460  -0.062  10.535 -0.7608  0.0756 -0.1727
20044TIP3    H281624   6.418   0.022  10.416  1.2665  0.6986 -0.4898
20045TIP3   OH281625   5.659   1.740  17.210 -0.0477  0.4531 -0.2118
20045TIP3    H181626   5.694   1.655  17.183 -1.0213  0.1007 -0.4118
20045TIP3    H281627   5.642   1.731  17.303  0.7155  0.7482 -0.0348
20046TIP3   OH281628   5.770   5.390  15.975  0.2893 -0.6739 -0.4551
20046TIP3    H181629   5.745   5.300  15.952 -1.6421 -0.4013  0.4250
20046TIP3    H281630   5.704   5.444  15.933 -1.4335  0.0342  2.8607
20047TIP3   OH281631   3.193   6.170  14.689  0.3307 -0.9428  0.7750
20047TIP3    H181632   3.156   6.101  14.745 -0.3324 -1.3084 -0.0777
20047TIP3    H281633   3.234   6.122  14.618  1.1539 -0.4830  0.9328
20048TIP3   OH281634   4.084   0.303  11.692  0.6335  0.2382 -0.0896
20048TIP3    H181635   4.080   0.209  11.710  4.5778 -0.2122 -0.8051
20048TIP3    H281636   4.085   0.344  11.779  0.2897 -0.4567  0.2526
20049TIP3   OH281637   2.562   0.423  17.513 -0.6113 -0.7690  0.0895
20049TIP3    H181638   2.636   0.470  17.549 -1.2250 -1.3891  2.3330
20049TIP3    H281639   2.488   0.483  17.522 -0.8991 -1.1798  0.5385
20050TIP3   OH281640   2.688   6.288  14.567 -0.2624 -0.2872  0.1712
20050TIP3    H181641   2.779   6.310  14.549 -0.0627 -1.7535 -0.8327
20050TIP3    H281642   2.677   6.200  14.531 -1.8651 -0.4668  0.9864
20051TIP3   OH281643   6.208   4.421   5.372 -0.4424 -0.4836  0.7118
20051TIP3    H181644   6.284   4.480   5.377  0.4320 -1.5523  0.2857
20051TIP3    H281645   6.228   4.351   5.434 -1.4786 -0.3709  1.2053
20052TIP3   OH281646   3.030   1.748  14.636  0.6687 -0.8479  0.2235
20052TIP3    H181647   3.062   1.682  14.573  1.0979  1.3943 -2.0947
20052TIP3    H281648   3.108   1.775  14.684  1.3787  0.7200 -1.6434
20053TIP3   OH281649   4.978   0.625   3.904  0.2238  0.3556 -0.1916
20053TIP3    H181650   4.941   0.570   3.973  0.9654 -0.5026 -0.4520
20053TIP3    H281651   5.057   0.662   3.943  1.0435 -0.7112 -0.7916
20054TIP3   OH281652   0.570   3.638  15.161  0.3029 -0.0708  0.2254
20054TIP3    H181653   0.529   3.560  15.199 -0.0085  0.5070  1.0986
20054TIP3    H281654   0.554   3.707  15.225  0.0255  0.8681 -0.8197
20055TIP3   OH281655   5.800   1.578  15.068 -0.1410  0.1694 -0.1496
20055TIP3    H181656   5.744   1.558  14.993 -1.1727 -0.5977  0.8026
20055TIP3    H281657   5.862   1.505  15.073 -0.9895 -0.5228  0.5816
20056TIP3   OH281658   5.196   0.204  14.007 -0.2149  0.3923  0.2393
20056TIP3    H181659   5.248   0.202  13.927 -1.4796 -1.2118 -0.6064
20056TIP3    H281660   5.260   0.191  14.077  0.8217  1.1464 -0.5442
20057TIP3   OH281661   3.598   2.054   2.490 -0.1676  0.3586  0.2131
20057TIP3    H181662   3.604   1.997   2.413  0.3014 -0.8069  1.0746
20057TIP3    H281663   3.536   2.010   2.547 -2.2894  2.3872 -0.4129
20058TIP3   OH281664   4.155   1.192   0.648 -0.0753 -0.0871  0.4004
20058TIP3    H181665   4.195   1.164   0.731 -1.6170  0.2912  1.2994
20058TIP3    H281666   4.097   1.264   0.672 -2.3676 -1.5038 -0.6034
20059TIP3   OH281667   0.579   3.652   0.962 -0.3751  0.4080 -0.3561
20059TIP3    H181668   0.633   3.720   1.001 -0.6919  0.8176 -0.6239
20059TIP3    H281669   0.613   3.570   0.999 -0.3169  0.7466  0.3529
20060TIP3   OH281670   6.537   6.502   5.074 -0.5679 -0.4417 -0.2021
20060TIP3    H181671   6.456   6.452   5.066 -0.3345 -0.6067 -2.1296
20060TIP3    H281672   6.527   6.573   5.010  1.0717 -0.8750 -0.9939
20061TIP3   OH281673   3.742   3.817  16.094 -0.2683 -0.0030 -0.3109
20061TIP3    H181674   3.658   3.853  16.064 -1.5540 -2.0569  0.6180
20061TIP3    H281675   3.803   3.890  16.087 -1.5295  0.9008 -3.3803
20062TIP3   OH281676   5.946   0.130   3.648 -0.0693  0.3583  0.5134
20062TIP3    H181677   5.966   0.099   3.560  0.4448  0.1242  0.7072
20062TIP3    H281678   5.949   0.051   3.702 -1.8710  0.2371  0.5176
20063TIP3   OH281679   2.992   1.918  11.730 -0.4326  0.3194 -0.0913
20063TIP3    H181680   3.050   1.936  11.805  1.1518 -1.3353 -0.8276
20063TIP3    H281681   2.915   1.973  11.745  1.6846  3.3904  0.4728
20064TIP3   OH281682   1.960   3.258   6.515  0.1222  0.5239  0.2397
20064TIP3    H181683   1.964   3.166   6.540  0.3866  0.2657 -0.6966
20064TIP3    H281684   1.879   3.265   6.464  0.7287  0.5198 -0.7492
20065TIP3   OH281685   2.320   3.897   5.184  0.0065  0.1297  0.5092
20065TIP3    H181686   2.336   3.803   5.178  1.4088  0.4208 -0.7908
20065TIP3    H281687   2.390   3.930   5.242 -0.5211  0.3692  1.0210
20066TIP3   OH281688   4.768   3.793  13.566  0.3236 -0.3217 -0.0477
20066TIP3    H181689   4.765   3.724  13.500 -1.0498  0.0521 -0.3884
20066TIP3    H281690   4.700   3.769  13.629  0.4600  0.2407  0.3223
20067TIP3   OH281691   5.506   1.127   0.896  0.0274 -0.3349  0.1665
20067TIP3    H181692   5.461   1.043   0.904  0.7086 -0.6036  1.3043
20067TIP3    H281693   5.579   1.122   0.957 -1.4254  2.0849  2.2943
20068TIP3   OH281694   0.105   4.854   5.548  0.1524 -0.1310  0.0761
20068TIP3    H181695   0.091   4.759   5.547 -1.2601 -0.0429  2.4516
20068TIP3    H281696   0.035   4.888   5.603  1.8870  2.0595  1.1182
20069TIP3   OH281697   3.029   0.008  17.048  0.4009 -0.2682  0.0809
20069TIP3    H181698   3.016   0.026  17.141 -2.2741  1.2469 -0.4766
20069TIP3    H281699   2.957  -0.051  17.024  1.9721 -1.9575 -0.7544
20070TIP3   OH281700   0.660   5.160   0.240 -0.3945  0.3367  0.2550
20070TIP3    H181701   0.634   5.068   0.243  0.4355  0.0729 -0.2076
20070TIP3    H281702   0.578   5.209   0.244 -0.9949 -0.4669 -1.4225
20071TIP3   OH281703   3.697   0.725  17.280  0.4340  0.0359 -0.3572
20071TIP3    H181704   3.611   0.766  17.291 -0.0470 -0.6880 -1.2997
20071TIP3    H281705   3.759   0.795  17.300 -0.3746  0.6777 -0.0389
20072TIP3   OH281706   2.476   1.853  11.813  0.1166  0.1850  0.1472
20072TIP3    H181707   2.390   1.894  11.805 -0.8739 -2.0415 -2.1035
20072TIP3    H281708   2.467   1.792  11.886  0.4913  1.4327  1.2597
20073TIP3   OH281709   0.798   4.074  15.692  0.2573  0.1528 -0.6154
20073TIP3    H181710   0.721   4.021  15.670  0.0510  0.5091 -0.7552
20073TIP3    H281711   0.764   4.143  15.748  0.1839  1.2681 -1.9756
20074TIP3   OH281712   5.699   6.687  16.670 -0.3214 -0.2062  0.6608
20074TIP3    H181713   5.622   6.723  16.713 -0.1920  0.6232  0.2304
20074TIP3    H281714   5.717   6.605  16.715 -1.5925 -0.5275  0.6051
20075TIP3   OH281715   3.703   2.815  16.276  0.3069 -0.2933 -0.2465
20075TIP3    H181716   3.741   2.844  16.193 -0.2614 -0.2833 -0.5062
20075TIP3    H281717   3.684   2.895  16.324 -0.6225 -0.2358 -0.6794
20076TIP3   OH281718   4.174   4.926   1.556  0.9341 -0.5245 -0.4926
20076TIP3    H181719   4.262   4.930   1.593  1.8479 -1.7351 -2.4102
20076TIP3    H281720   4.142   4.838   1.580  0.4422 -0.2965 -0.2793
20077TIP3   OH281721   4.421   4.459   1.356  0.9735 -0.0895 -0.0249
20077TIP3    H181722   4.349   4.451   1.293  1.9728 -1.1298 -1.0862
20077TIP3    H281723   4.449   4.368   1.370  0.7631  0.1214  1.9612
20078TIP3   OH281724   1.783   0.055   3.249 -0.7882 -0.1383  0.1523
20078TIP3    H181725   1.868   0.023   3.220 -0.3646  0.4747  0.7010
20078TIP3    H281726   1.720  -0.002   3.205 -0.2029  0.8948 -2.2431
20079TIP3   OH281727   3.401   5.288  13.325 -0.4451 -0.3922 -0.2202
20079TIP3    H181728   3.478   5.292  13.268 -0.1287 -0.5994  0.1889
20079TIP3    H281729   3.419   5.351  13.395 -1.6280  1.2050 -1.2933
20080TIP3   OH281730   6.256   4.328  15.715 -0.1351 -0.3023  0.2786
20080TIP3    H181731   6.328   4.341  15.777  2.9032 -0.9975 -2.7507
20080TIP3    H281732   6.275   4.389  15.644 -1.9251 -1.3234 -1.1732
20081TIP3   OH281733   0.002   6.767  16.078  0.1554 -0.5513 -0.4553
20081TIP3    H181734  -0.044   6.684  16.086 -0.5690 -0.1795 -0.7409
20081TIP3    H281735  -0.048   6.816  16.014 -0.3585  0.7448  0.8902
20082TIP3   OH281736   4.156   5.208  11.595 -0.7564 -0.3842 -0.2941
20082TIP3    H181737   4.137   5.297  11.626  0.4231 -0.7919  1.8089
20082TIP3    H281738   4.241   5.216  11.550 -1.2333 -0.2599 -1.2015
20083TIP3   OH281739   4.111   4.454   1.215 -0.1261 -0.1382 -0.0318
20083TIP3    H181740   4.096   4.533   1.267  1.3008  0.2017 -0.0831
20083TIP3    H281741   4.078   4.476   1.128 -2.6219 -0.7456  0.6953
20084TIP3   OH281742   0.289   4.962  13.372 -0.0683 -0.4219  0.0610
20084TIP3    H181743   0.381   4.935  13.381  0.6779  1.9903  0.5004
20084TIP3    H281744   0.291   5.033  13.308 -1.6308 -0.2612  0.1484
20085TIP3   OH281745   4.346   6.438  11.140  0.1608 -0.5347  0.0655
20085TIP3    H181746   4.308   6.433  11.228  1.3023 -0.7417  0.5547
20085TIP3    H281747   4.282   6.489  11.090 -0.6157 -0.6043  0.9466
20086TIP3   OH281748   6.405   1.529   5.631  0.9381 -0.8166  0.6183
20086TIP3    H181749   6.487   1.576   5.616 -0.2199  0.7976 -1.1460
20086TIP3    H281750   6.396   1.526   5.726  0.1710  4.4606  1.0155
20087TIP3   OH281751   2.833   3.137  13.437  0.3934  0.0399  0.0445
20087TIP3    H181752   2.830   3.180  13.522  2.0631 -1.2605  0.7989
20087TIP3    H281753   2.779   3.059  13.448  0.9859 -0.3711  0.0658
20088TIP3   OH281754   3.038   2.254  15.825 -0.1834 -0.3377  0.4979
20088TIP3    H181755   2.966   2.191  15.829  1.2922 -2.1122  0.2504
20088TIP3    H281756   3.074   2.255  15.913  2.3450 -3.0639 -0.3462
20089TIP3   OH281757   1.173   0.004   3.141 -0.5606  0.2363 -0.2404
20089TIP3    H181758   1.131   0.089   3.156 -0.0360  0.4064  0.2869
20089TIP3    H281759   1.102  -0.051   3.108 -1.3840  0.3384  1.2533
20090TIP3   OH281760   3.019   6.482   2.506 -0.2988 -0.7873 -0.0486
20090TIP3    H181761   3.093   6.429   2.478 -1.0133 -1.3479 -0.9460
20090TIP3    H281762   3.048   6.572   2.493 -0.3679 -1.0057 -2.1345
20091TIP3   OH281763   6.352   5.255   0.822  0.6570 -0.8206  0.1705
20091TIP3    H181764   6.398   5.260   0.906 -0.2383  1.9878  0.5952
20091TIP3    H281765   6.260   5.239   0.846  0.5929 -1.3095 -0.3690
20092TIP3   OH281766   5.573   0.556   3.845  0.0275 -0.0733  0.0059
20092TIP3    H181767   5.532   0.643   3.837  1.0823  0.3341 -1.5269
20092TIP3    H281768   5.503   0.495   3.821  0.2212  0.6140 -2.6969
20093TIP3   OH281769   0.802   1.708  13.381 -0.2310  0.4260 -0.0756
20093TIP3    H181770   0.727   1.761  13.354 -0.7330 -0.7730 -1.1422
20093TIP3    H281771   0.790   1.624  13.336  1.3439 -0.0667  0.3454
20094TIP3   OH281772   3.225   1.902  15.451 -0.5498 -0.4753  0.7281
20094TIP3    H181773   3.302   1.945  15.489 -0.7823  1.1943 -0.5663
20094TIP3    H281774   3.243   1.899  15.357 -1.6420 -0.9795  0.5175
20095TIP3   OH281775   1.448   2.885  15.464 -0.2995 -0.3918 -0.1455
20095TIP3    H181776   1.542   2.898  15.476  0.1503 -3.4049  0.3082
20095TIP3    H281777   1.416   2.971  15.435  2.0934  1.5309  2.2755
20096TIP3   OH281778   5.538   5.087  13.534  0.4411  0.2365  0.3376
20096TIP3    H181779   5.560   5.050  13.620  0.4291 -0.0485  0.2181
20096TIP3    H281780   5.618   5.076  13.482  0.6328  0.9072  0.4763
20097TIP3   OH281781   2.547   5.220  13.958 -0.5307 -0.0661  0.9057
20097TIP3    H181782   2.529   5.126  13.959 -1.0092  0.0255  1.6827
20097TIP3    H281783   2.552   5.244  14.050  0.5063  0.5090  0.7109
20098TIP3   OH281784   4.556   1.649   1.086 -0.2421 -0.3211 -0.0396
20098TIP3    H181785   4.599   1.618   1.166 -1.7606  1.0436  1.4133
20098TIP3    H281786   4.603   1.729   1.063 -1.1051  0.4470  0.7754
20099TIP3   OH281787   4.244   2.876   5.579 -0.5554 -0.4763  0.2420
20099TIP3    H181788   4.161   2.908   5.614 -0.4220  1.1443 -0.7808
20099TIP3    H281789   4.308   2.894   5.648 -0.9389 -1.1644  0.7871
20100TIP3   OH281790   4.301   2.997  14.489 -0.6577 -0.1322  0.2511
20100TIP3    H181791   4.373   2.994  14.426  1.1452  0.5284  2.1579
20100TIP3    H281792   4.235   2.938  14.453  1.0346 -1.1603 -1.3288
20101TIP3   OH281793   0.134   2.191  16.959 -0.3895 -0.3626 -0.3973
20101TIP3    H181794   0.076   2.267  16.968 -2.2592 -1.5713 -1.5901
20101TIP3    H281795   0.200   2.219  16.896 -0.2428  0.6890  0.1866
20102TIP3   OH281796   6.763   1.437  15.151 -0.3731 -0.2146  1.7233
20102TIP3    H181797   6.787   1.348  15.124 -1.0695  0.1057 -0.1302
20102TIP3    H281798   6.688   1.459  15.095  0.7939  2.1214  0.9374
20103TIP3   OH281799   5.424   1.152  11.347  0.2611  0.2646  0.3514
20103TIP3    H181800   5.425   1.120  11.437  1.3343  0.0288  0.2753
20103TIP3    H281801   5.471   1.235  11.350 -0.1451  0.5037  0.0949
20104TIP3   OH281802   0.964   4.476   0.310 -0.5735  0.5802 -0.0315
20104TIP3    H181803   0.925   4.518   0.233 -2.8899  0.2011  0.8710
20104TIP3    H281804   1.022   4.409   0.273 -1.5467  0.4749 -1.4623
20105TIP3   OH281805   1.915   2.595  11.677  0.0899 -0.2061 -0.1051
20105TIP3    H181806   1.879   2.671  11.722  1.0017  0.8720 -1.1156
20105TIP3    H281807   1.994   2.628  11.634  1.5143 -2.1587  0.9009
20106TIP3   OH281808   1.813   0.895  15.320 -0.0213 -0.3113 -0.1480
20106TIP3    H181809   1.902   0.870  15.297 -0.4223 -1.6340 -0.3235
20106TIP3    H281810   1.818   0.923  15.411  0.2477 -2.2488  0.4589
20107TIP3   OH281811   2.901   4.687  11.849 -0.4857 -0.7496  0.5582
20107TIP3    H181812   2.984   4.682  11.803 -0.6848  0.1721  0.0904
20107TIP3    H281813   2.922   4.723  11.935 -0.5931  0.9840 -0.1109
20108TIP3   OH281814   4.354   0.459  13.714  0.0005 -0.2536 -0.3106
20108TIP3    H181815   4.275   0.420  13.751 -0.8033  1.0636 -0.5458
20108TIP3    H281816   4.364   0.418  13.628  0.1133 -1.0989  0.1035
20109TIP3   OH281817   4.754   1.159   0.376  0.1011  0.3236  0.0228
20109TIP3    H181818   4.721   1.069   0.382  1.3157 -0.1166  0.4347
20109TIP3    H281819   4.694   1.203   0.316  0.4837 -1.2211 -1.5631
20110TIP3   OH281820   3.040   2.844  13.995 -0.1706  0.1186  0.4305
20110TIP3    H181821   2.974   2.849  13.927 -0.0017  0.3895  0.2846
20110TIP3    H281822   2.992   2.822  14.074 -0.4077  0.1190  0.2862
20111TIP3   OH281823   4.471   1.622   2.308  0.1451 -0.0427  0.2037
20111TIP3    H181824   4.546   1.679   2.326  0.2233 -0.4278  1.1912
20111TIP3    H281825   4.448   1.640   2.217  0.8038  0.8177  0.1935
20112TIP3   OH281826   3.089   1.392  11.255 -0.2421  0.2393  0.0166
20112TIP3    H181827   3.106   1.310  11.208 -1.8760  0.0871 -0.3818
20112TIP3    H281828   3.141   1.457  11.208  0.3594 -0.4006 -0.2345
20113TIP3   OH281829   1.168   4.965  13.369  0.0528  0.2010 -1.0620
20113TIP3    H181830   1.201   4.979  13.280 -1.4648  1.9718 -1.3864
20113TIP3    H281831   1.204   5.038  13.420 -0.7802  0.3693 -0.7043
20114TIP3   OH281832   4.004   4.058   4.321  0.7606  0.0848 -0.1849
20114TIP3    H181833   4.005   4.024   4.411  0.2320  0.3943 -0.0533
20114TIP3    H281834   4.089   4.035   4.286  1.3491  0.8134  0.7229
20115TIP3   OH281835   0.438   2.180   5.437 -0.5423 -0.3354 -0.4420
20115TIP3    H181836   0.397   2.094   5.449 -1.7275  0.3062  0.4373
20115TIP3    H281837   0.530   2.161   5.420 -0.8851 -1.7940 -0.8036
20116TIP3   OH281838   6.594   4.301  16.325 -0.3169 -0.4194  0.3090
20116TIP3    H181839   6.622   4.336  16.240 -2.8238  0.1361 -0.3869
20116TIP3    H281840   6.581   4.207  16.309 -0.9604 -0.2835  0.0109
20117TIP3   OH281841   2.555   1.387   4.157  0.2526  0.3790  0.5472
20117TIP3    H181842   2.546   1.482   4.165 -0.6100  0.5181 -1.4215
20117TIP3    H281843   2.500   1.364   4.082  2.3108 -1.3278 -0.5518
20118TIP3   OH281844   6.209   4.583  13.858  0.2404 -0.2903 -0.2520
20118TIP3    H181845   6.177   4.494  13.874 -0.5185  0.0092 -0.0575
20118TIP3    H281846   6.181   4.603  13.769  2.5843 -1.1520 -1.2664
20119TIP3   OH281847   5.716   0.466  12.314 -0.4145 -0.1746 -0.2114
20119TIP3    H181848   5.682   0.418  12.389 -0.7777 -0.5330 -0.5977
20119TIP3    H281849   5.810   0.471  12.329 -0.7060  1.6613  1.3602
20120TIP3   OH281850   4.053   2.357   5.836 -0.2610  0.8680 -0.0470
20120TIP3    H181851   4.142   2.327   5.817  0.1495  1.5379  0.7341
20120TIP3    H281852   4.046   2.353   5.931 -0.5012  2.3096  0.0284
20121TIP3   OH281853   0.749   0.503   5.530 -0.1720 -0.2865 -0.2036
20121TIP3    H181854   0.735   0.567   5.460 -0.4261 -1.2273 -1.0336
20121TIP3    H281855   0.810   0.546   5.590  0.5288  0.3044 -1.3085
20122TIP3   OH281856   5.476   4.113  14.252  0.0300  0.3535  0.3678
20122TIP3    H181857   5.561   4.072  14.268  0.0444  0.6723  1.1592
20122TIP3    H281858   5.477   4.191  14.308 -1.6081 -0.7284  2.0082
20123TIP3   OH281859   1.476   2.733  16.416 -0.3564 -0.0007  0.5254
20123TIP3    H181860   1.434   2.659  16.459  0.1392 -0.4225  0.3068
20123TIP3    H281861   1.443   2.730  16.326 -1.8634  1.2499  1.0170
20124TIP3   OH281862   3.111   1.831  17.057 -0.3025  0.5531  0.0017
20124TIP3    H181863   3.089   1.745  17.023  1.0403  0.5912 -1.0518
20124TIP3    H281864   3.145   1.815  17.144 -1.5455  0.2008  0.4422
20125TIP3   OH281865   1.111   2.971   4.274  0.4278 -0.2740  0.5572
20125TIP3    H181866   1.157   3.018   4.344 -0.5042 -0.5304  1.3618
20125TIP3    H281867   1.106   2.881   4.305  0.3863 -0.4842 -0.0453
20126TIP3   OH281868   0.331   1.015  11.475 -0.5401 -0.5363  0.5040
20126TIP3    H181869   0.397   0.946  11.462  0.5316  0.3021  1.3499
20126TIP3    H281870   0.366   1.091  11.429 -1.9816 -0.6565 -0.9009
20127TIP3   OH281871   1.791   0.108  11.623 -0.4157 -0.1702 -0.1650
20127TIP3    H181872   1.704   0.136  11.653 -0.4832  0.3136 -0.8039
20127TIP3    H281873   1.797   0.139  11.533  1.2051  1.5905  0.4832
20128TIP3   OH281874   4.875   5.284  14.256 -0.2262 -0.2277  0.0484
20128TIP3    H181875   4.823   5.289  14.337 -0.7030 -0.9601 -0.1999
20128TIP3    H281876   4.821   5.231  14.197  0.4138 -0.2460 -0.5257
20129TIP3   OH281877   0.384   1.093  12.456 -0.0703 -0.4884 -0.1244
20129TIP3    H181878   0.475   1.092  12.486 -0.3878 -1.8050  0.8920
20129TIP3    H281879   0.333   1.098  12.537 -0.9148 -1.6973 -0.5568
20130TIP3   OH281880   6.123   1.716  14.786 -0.4038  0.5606 -0.4181
20130TIP3    H181881   6.116   1.806  14.755 -0.7595  0.8071  0.3755
20130TIP3    H281882   6.179   1.721  14.863 -3.3039  0.6613  1.8347
20131TIP3   OH281883   2.700   6.222   0.037 -0.7594 -0.3280 -0.2248
20131TIP3    H181884   2.759   6.149   0.022 -1.0104 -0.6686  0.4308
20131TIP3    H281885   2.630   6.211  -0.028 -0.5516 -0.4023 -0.4340
20132TIP3   OH281886   3.925   3.864   3.030  0.2775 -0.0430 -0.5701
20132TIP3    H181887   3.853   3.920   3.058  0.5787  0.3465 -0.5775
20132TIP3    H281888   3.899   3.776   3.058  0.1140  0.1939  0.0370
20133TIP3   OH281889   5.057   3.896   3.925  0.3051  0.0348 -0.0383
20133TIP3    H181890   5.145   3.909   3.889  0.3133  1.4827  0.4627
20133TIP3    H281891   5.073   3.854   4.010  0.2787 -3.5304 -1.5989
20134TIP3   OH281892   0.403   4.122  13.850  0.2151 -0.0163 -0.0951
20134TIP3    H181893   0.313   4.089  13.852 -0.2142  0.8604 -2.0784
20134TIP3    H281894   0.439   4.089  13.768  1.1237  1.0441 -0.1523
20135TIP3   OH281895   2.601   6.530   0.592 -0.2767 -0.2039 -0.3820
20135TIP3    H181896   2.577   6.493   0.677 -0.7703 -0.7184 -0.7395
20135TIP3    H281897   2.555   6.475   0.528  1.5045 -0.9482 -1.0751
20136TIP3   OH281898   1.925   0.240  11.385 -0.1531  0.3647  0.9668
20136TIP3    H181899   1.900   0.286  11.304 -0.2742 -0.8856  0.2775
20136TIP3    H281900   1.992   0.177  11.357  0.0211  0.1214  1.8990
20137TIP3   OH281901   2.789   0.640  14.966 -0.5119  0.3467 -0.7047
20137TIP3    H181902   2.743   0.613  15.046  0.4913 -0.4957 -0.3840
20137TIP3    H281903   2.755   0.581  14.898 -0.0106 -0.1891 -0.4953
20138TIP3   OH281904   2.314   4.198   2.902  0.2416 -0.7446 -0.1093
20138TIP3    H181905   2.242   4.142   2.873  0.7442 -1.2560 -0.3943
20138TIP3    H281906   2.357   4.226   2.821 -0.4939  0.7423 -0.0188
20139TIP3   OH281907   1.378   5.764  14.717 -0.4698 -0.2608  0.1814
20139TIP3    H181908   1.356   5.827  14.648 -0.1268 -0.0794  0.2391
20139TIP3    H281909   1.470   5.744  14.703 -0.2201  0.2919  1.0127
20140TIP3   OH281910   0.560   5.834  16.286  0.2631 -0.1629 -0.0797
20140TIP3    H181911   0.498   5.760  16.279  0.3303 -0.3480  1.1564
20140TIP3    H281912   0.508   5.910  16.261  0.6874 -0.7771 -3.3707
20141TIP3   OH281913   1.306   6.227  11.834 -0.1669  0.2259 -0.2982
20141TIP3    H181914   1.282   6.217  11.742 -1.6695 -0.0514  0.0823
20141TIP3    H281915   1.238   6.284  11.870 -1.2224 -1.8239  1.2081
20142TIP3   OH281916   5.554   0.387  16.129  0.0538  0.3801 -0.4848
20142TIP3    H181917   5.637   0.344  16.150  1.1321  2.0177 -1.1346
20142TIP3    H281918   5.551   0.388  16.033 -1.1523 -0.4192 -0.4692
20143TIP3   OH281919   2.442   5.144  13.543  0.1469  0.1665 -0.3203
20143TIP3    H181920   2.530   5.169  13.570  0.2308  0.4068 -0.8049
20143TIP3    H281921   2.386   5.167  13.617  0.8416 -2.6359  1.2270
20144TIP3   OH281922   1.455   0.969  11.363  0.2369 -0.2181 -0.2177
20144TIP3    H181923   1.397   0.894  11.370 -0.6919  0.4761 -0.3438
20144TIP3    H281924   1.430   1.011  11.280  1.1599 -0.1071 -0.4512
20145TIP3   OH281925   5.921   3.126   2.621 -0.3201  0.1766  0.1297
20145TIP3    H181926   5.842   3.075   2.605 -0.3678  0.6939 -1.4118
20145TIP3    H281927   5.990   3.060   2.631 -0.3101 -0.2455 -2.2439
20146TIP3   OH281928   1.917   1.610   1.916  0.2691 -0.3186 -0.2415
20146TIP3    H181929   1.974   1.533   1.922  1.3425  0.4516 -0.5012
20146TIP3    H281930   1.961   1.677   1.967  0.1642  0.6329 -1.3719
20147TIP3   OH281931   0.294   0.954   5.429  0.4662 -0.4717 -0.1049
20147TIP3    H181932   0.252   0.969   5.344 -0.6166  1.4262  0.7018
20147TIP3    H281933   0.233   0.990   5.493  3.1161  2.1431  1.1720
20148TIP3   OH281934   1.876   2.615  14.597 -0.4233  0.5569 -0.2890
20148TIP3    H181935   1.923   2.607  14.680 -0.6024  0.5988 -0.1836
20148TIP3    H281936   1.811   2.544  14.600  0.3484 -0.1913 -0.9039
20149TIP3   OH281937   5.122   3.565  11.809  0.6484  0.0945  0.1027
20149TIP3    H181938   5.065   3.611  11.747 -0.0369 -0.4609  0.3049
20149TIP3    H281939   5.194   3.532  11.756 -0.0213 -0.5210 -0.4371
20150TIP3   OH281940   1.358   5.739  11.341  0.3674  0.9008 -0.1034
20150TIP3    H181941   1.313   5.678  11.283 -1.2339  2.6672 -0.8715
20150TIP3    H281942   1.321   5.825  11.318 -0.0484  1.7612  3.2217
20151TIP3   OH281943   5.370   3.258  14.499 -0.1071  0.6459 -0.1728
20151TIP3    H181944   5.374   3.316  14.423 -1.2635  0.8209 -0.1140
20151TIP3    H281945   5.454   3.212  14.498  0.7149  2.0922 -0.3807
20152TIP3   OH281946   3.194   1.718  11.693 -0.0656  0.1619 -0.1616
20152TIP3    H181947   3.104   1.748  11.704 -0.6340 -1.2197 -0.8324
20152TIP3    H281948   3.212   1.729  11.600  0.1846 -0.2957 -0.1708
20153TIP3   OH281949   2.332   4.939  12.313 -0.4454 -0.4422  0.0552
20153TIP3    H181950   2.301   4.999  12.246 -2.9142 -0.9692  0.6393
20153TIP3    H281951   2.281   4.860  12.300  0.2220 -1.1450  1.5094
20154TIP3   OH281952   1.339   5.503   6.074  0.2055  0.4607 -0.8050
20154TIP3    H181953   1.292   5.420   6.069 -1.4437  1.1761  1.4004
20154TIP3    H281954   1.429   5.479   6.094 -0.6697 -0.8376  2.1085
20155TIP3   OH281955   5.048   3.382  14.677  0.0892  0.2180  0.5279
20155TIP3    H181956   5.085   3.441  14.611  1.2183 -0.5716  0.4081
20155TIP3    H281957   5.023   3.304  14.627 -1.3388  0.5451  0.6879
20156TIP3   OH281958   5.129   4.243  12.048  0.0653 -0.0327  0.2794
20156TIP3    H181959   5.095   4.301  12.116  0.1141  0.6781 -0.2938
20156TIP3    H281960   5.224   4.241  12.064  0.1582  0.6516 -0.1558
20157TIP3   OH281961   2.128   5.321   5.747  0.2834  0.0341 -0.0708
20157TIP3    H181962   2.166   5.407   5.727 -2.2763  0.5396 -3.6815
20157TIP3    H281963   2.073   5.338   5.824  0.9541  1.2615  0.1733
20158TIP3   OH281964   0.490   5.004  16.095 -0.2249 -0.1180  0.1989
20158TIP3    H181965   0.548   5.059  16.147  0.1353 -0.1596 -0.1532
20158TIP3    H281966   0.439   5.065  16.043  1.1394 -0.1388 -1.2190
20159TIP3   OH281967   1.760   6.440   1.881 -0.5751  0.3469 -0.4098
20159TIP3    H181968   1.691   6.377   1.861 -1.9140  0.7550  2.4680
20159TIP3    H281969   1.832   6.386   1.915  0.0688  0.0542 -2.1185
20160TIP3   OH281970   2.071   3.446  14.235  0.1882 -0.0012 -0.0870
20160TIP3    H181971   2.030   3.498  14.165 -1.0192  0.3268  0.8229
20160TIP3    H281972   2.125   3.510  14.282  0.0674  0.0396 -0.0046
20161TIP3   OH281973   0.077   2.444   2.964  0.2729 -0.0543 -0.1609
20161TIP3    H181974   0.001   2.477   3.012  0.2754  0.8402 -0.7491
20161TIP3    H281975   0.062   2.471   2.873  0.6631 -1.0200 -0.5233
20162TIP3   OH281976   5.984   3.579  17.028 -0.2673  0.1522 -0.2703
20162TIP3    H181977   5.897   3.554  16.998  0.4497 -1.2398 -1.2816
20162TIP3    H281978   6.003   3.520  17.101 -0.9099  1.7536  1.2935
20163TIP3   OH281979   4.553   2.886  13.293 -0.2862 -0.0749 -0.0734
20163TIP3    H181980   4.626   2.841  13.250 -1.8833 -1.0292 -1.9683
20163TIP3    H281981   4.509   2.818  13.345 -1.9124 -0.5079 -1.8772
20164TIP3   OH281982   6.758   4.062   6.291  0.1600  0.4343  0.0399
20164TIP3    H181983   6.745   3.978   6.335 -0.5740  0.4489 -0.1293
20164TIP3    H281984   6.725   4.048   6.202 -0.5561  1.0799  0.1944
20165TIP3   OH281985   3.419   1.468   5.187 -0.2580 -0.0231  0.4219
20165TIP3    H181986   3.468   1.433   5.113  0.5975 -1.0118  1.4152
20165TIP3    H281987   3.372   1.393   5.223 -0.4602  0.3825  1.0271
20166TIP3   OH281988   1.428   0.055   3.246 -0.2061 -0.0884  0.0911
20166TIP3    H181989   1.434   0.031   3.339 -0.8341  1.8586  0.6800
20166TIP3    H281990   1.336   0.046   3.224 -0.1550  0.0329 -0.1775
20167TIP3   OH281991   2.147   5.407   0.018  0.1310 -0.0431  0.4757
20167TIP3    H181992   2.189   5.477  -0.032  1.4215  0.0225  1.6047
20167TIP3    H281993   2.123   5.448   0.101 -1.2052 -0.3730  0.2814
20168TIP3   OH281994   3.988   5.716  14.655  0.6318  0.2834 -0.6634
20168TIP3    H181995   3.905   5.697  14.610  0.3216 -0.7572  0.3144
20168TIP3    H281996   3.989   5.811  14.663 -0.1804  0.3566 -1.2132
20169TIP3   OH281997   4.546   2.938  11.966  0.1399 -0.4901  0.3521
20169TIP3    H181998   4.468   2.886  11.945 -0.1866  0.4919 -1.0743
20169TIP3    H281999   4.605   2.924  11.892  0.0130  1.1673 -0.1112
20170TIP3   OH282000   1.302   1.030  16.263  0.0546 -0.2737  0.5251
20170TIP3    H182001   1.303   1.005  16.356 -2.0143 -0.1521  0.6259
20170TIP3    H282002   1.333   0.952  16.217 -0.4653 -0.9125  1.2284
20171TIP3   OH282003   2.924   4.963  14.635  0.1113  0.3905 -0.1250
20171TIP3    H182004   2.849   5.020  14.653 -1.3925 -1.6372  0.4481
20171TIP3    H282005   2.962   4.945  14.720  0.4245  0.3560 -0.2733
20172TIP3   OH282006   1.857   1.301   3.753 -0.6819 -0.3533  0.1577
20172TIP3    H182007   1.856   1.368   3.822 -0.3122 -1.1882  0.9891
20172TIP3    H282008   1.879   1.220   3.798 -0.4078 -0.9198 -0.9523
20173TIP3   OH282009   1.649   4.931   1.382 -0.1145  0.0944 -0.1919
20173TIP3    H182010   1.644   4.994   1.453  0.0093  0.6117 -0.6417
20173TIP3    H282011   1.672   4.982   1.305  1.9250 -0.7648 -0.2106
20174TIP3   OH282012   4.511   0.732   0.894  0.2607  0.3254 -0.4843
20174TIP3    H182013   4.599   0.696   0.882  0.3278  0.6612 -0.9991
20174TIP3    H282014   4.498   0.791   0.820  0.0524  1.1792  0.2197
20175TIP3   OH282015   1.665   0.326  14.345 -0.0806 -0.4381  0.5219
20175TIP3    H182016   1.659   0.420  14.364  1.3639 -0.5353  1.5487
20175TIP3    H282017   1.674   0.322  14.250  1.9549  0.6212  0.6105
20176TIP3   OH282018   4.894   1.970  14.298  0.3625  0.1410 -0.0972
20176TIP3    H182019   4.830   1.955  14.227  0.6604 -1.7176 -0.0398
20176TIP3    H282020   4.978   1.945  14.259  0.9517  1.7557  0.0928
20177TIP3   OH282021   0.332   5.485  13.889  0.2205 -0.6358  0.5315
20177TIP3    H182022   0.393   5.415  13.866  1.2227  0.3556  0.0452
20177TIP3    H282023   0.374   5.529  13.964  1.1916  1.3169 -1.0682
20178TIP3   OH282024   3.826   3.308   6.857  0.4292 -0.0463 -0.5552
20178TIP3    H182025   3.840   3.403   6.857  0.9390 -0.0817  1.4277
20178TIP3    H282026   3.910   3.272   6.885 -0.3562 -0.9292  0.8046
20179TIP3   OH282027   5.228   2.948  14.603 -0.0913  0.2771  0.4197
20179TIP3    H182028   5.268   2.894  14.534  0.0343  0.2242  0.5338
20179TIP3    H282029   5.136   2.922  14.603 -0.5043  1.6054 -0.9892
20180TIP3   OH282030   3.185   2.904   4.625 -0.1984 -0.3691  0.5594
20180TIP3    H182031   3.135   2.982   4.601  1.8953  1.1579  0.8931
20180TIP3    H282032   3.123   2.832   4.614 -1.9014  1.1941 -0.8177
20181TIP3   OH282033   1.582   2.497   3.254 -0.6635 -0.1816  0.3072
20181TIP3    H182034   1.633   2.557   3.200 -0.0201  0.3132  1.4383
20181TIP3    H282035   1.611   2.410   3.227  1.4566  0.0910  1.5211
20182TIP3   OH282036   3.141   5.049   5.364  0.4301 -0.0834 -0.2559
20182TIP3    H182037   3.222   5.099   5.378 -0.5747  2.2352 -2.0292
20182TIP3    H282038   3.141   5.029   5.271 -0.1555 -1.7451  0.0730
20183TIP3   OH282039   1.122   0.455  12.365  0.2769  0.1579  0.0966
20183TIP3    H182040   1.145   0.548  12.362 -1.1074  0.5046 -1.5277
20183TIP3    H282041   1.064   0.447  12.441  0.3727  0.6362  0.2254
20184TIP3   OH282042   5.280   2.942  15.095  0.1801  0.4199 -0.5162
20184TIP3    H182043   5.312   3.032  15.085 -0.4636  0.6395 -0.6574
20184TIP3    H282044   5.255   2.916  15.006  2.1114 -0.5920 -0.8242
20185TIP3   OH282045   6.468   2.167  15.508 -0.0440 -0.0830  0.2159
20185TIP3    H182046   6.514   2.184  15.426 -0.7059  1.0693  0.0720
20185TIP3    H282047   6.517   2.218  15.573 -0.8238  0.7885  0.1386
20186TIP3   OH282048   3.082   6.143   0.196  0.7318 -0.8685  0.0492
20186TIP3    H182049   3.002   6.129   0.248  0.9601 -2.0939  0.0937
20186TIP3    H282050   3.052   6.138   0.105  0.6902 -0.9119  0.0650
20187TIP3   OH282051   0.124   5.239  12.587 -0.5211 -0.3589  0.2618
20187TIP3    H182052   0.217   5.246  12.607  0.0266 -2.9422 -1.0078
20187TIP3    H282053   0.088   5.188  12.659 -0.1208 -2.7110 -1.1126
20188TIP3   OH282054   0.633   0.360  15.553 -0.3387  0.5581  0.4467
20188TIP3    H182055   0.585   0.312  15.621 -0.0040  0.3015  0.5073
20188TIP3    H282056   0.582   0.439  15.538 -0.9570  0.1344  0.2744
20189TIP3   OH282057   2.730   3.903   4.615 -0.1636  0.0063  0.2659
20189TIP3    H182058   2.636   3.922   4.606 -0.2443 -0.4584  0.1253
20189TIP3    H282059   2.760   3.892   4.525 -0.0115 -0.0438  0.3238
20190TIP3   OH282060   0.382   3.087   1.758 -0.2284 -0.8747 -0.2253
20190TIP3    H182061   0.370   3.042   1.841 -1.6143 -0.0961  0.0233
20190TIP3    H282062   0.294   3.110   1.730  0.3797  1.1845 -0.6103
20191TIP3   OH282063   5.058   1.096  14.237 -0.3324  0.1962 -0.5274
20191TIP3    H182064   5.108   1.156  14.182 -0.2268  1.6784  1.0769
20191TIP3    H282065   5.070   1.010  14.196  1.6610  0.8562 -1.4747
20192TIP3   OH282066   5.958   3.401  17.250  0.0523  0.0161  0.3933
20192TIP3    H182067   5.900   3.375  17.322 -1.0757 -0.8827 -0.7925
20192TIP3    H282068   6.029   3.338  17.252 -1.1435 -1.4325 -0.6307
20193TIP3   OH282069   2.760   5.482   5.481 -0.5864 -0.0580 -0.0486
20193TIP3    H182070   2.840   5.434   5.503 -0.4730  0.4474  0.7100
20193TIP3    H282071   2.788   5.548   5.418 -0.2885  0.4353  0.5800
20194TIP3   OH282072   1.254   0.657  15.881 -0.0366 -0.8409  0.2505
20194TIP3    H182073   1.255   0.750  15.860 -2.8796 -0.8752 -0.4183
20194TIP3    H282074   1.294   0.614  15.805 -0.8670 -0.2860 -0.5211
20195TIP3   OH282075   5.516   1.798   5.528 -0.6729  0.3579 -0.3550
20195TIP3    H182076   5.511   1.888   5.495  0.5243 -0.1184 -1.9879
20195TIP3    H282077   5.497   1.805   5.621  0.6111  2.4835 -0.1826
20196TIP3   OH282078   1.950   0.619  13.976  0.5336 -0.4186  0.1569
20196TIP3    H182079   1.955   0.525  13.996 -0.1588 -0.5495 -0.2255
20196TIP3    H282080   1.926   0.622  13.883  0.0978  0.1269  0.2814
20197TIP3   OH282081   0.992   3.536   1.734 -0.0029  0.2568  0.6880
20197TIP3    H182082   0.965   3.453   1.695  1.2640  1.2113 -2.5885
20197TIP3    H282083   0.913   3.569   1.777 -0.9610 -1.8659  0.6880
20198TIP3   OH282084   0.312   6.574  14.139  0.6148  0.5551 -0.1578
20198TIP3    H182085   0.347   6.636  14.203  1.5452 -0.0523 -0.0689
20198TIP3    H282086   0.268   6.507  14.192  0.5522  0.5600 -0.2031
20199TIP3   OH282087   5.422   1.079   3.636 -0.6368  0.1579 -0.4279
20199TIP3    H182088   5.512   1.047   3.629 -0.6682 -0.2914  0.9275
20199TIP3    H282089   5.418   1.152   3.575  0.7001  0.2925 -0.3855
20200TIP3   OH282090   5.727   3.028  17.198 -0.9768  0.6676  0.7203
20200TIP3    H182091   5.741   2.960  17.265  0.4005 -1.1821 -1.2894
20200TIP3    H282092   5.657   2.993  17.143 -0.4930  1.0135 -0.1399
20201TIP3   OH282093   3.384   1.118  14.639  0.5924 -0.0812 -0.7604
20201TIP3    H182094   3.329   1.045  14.669  0.5336  0.4567  0.4875
20201TIP3    H282095   3.460   1.075  14.599  0.5703 -0.8444 -0.0242
20202TIP3   OH282096   3.153   3.835  13.117  0.8992 -0.0069  0.1061
20202TIP3    H182097   3.231   3.808  13.067  0.5731  0.2345 -0.5420
20202TIP3    H282098   3.125   3.917  13.076  1.9814  1.4703  2.1692
20203TIP3   OH282099   4.231   4.724   0.176 -0.6341  0.7823 -0.0627
20203TIP3    H182100   4.208   4.664   0.247 -1.8413  0.9297 -0.3058
20203TIP3    H282101   4.326   4.734   0.183 -0.5016 -0.5930  0.4212
20204TIP3   OH282102   0.378   6.009   2.124 -0.0077 -0.1452  0.7870
20204TIP3    H182103   0.364   6.104   2.124  1.9693  0.2327 -1.4694
20204TIP3    H282104   0.467   5.997   2.154  0.2337 -1.1627 -0.2515
20205TIP3   OH282105   5.893   4.204  13.584  0.5772 -0.0795  0.5961
20205TIP3    H182106   5.906   4.183  13.677  2.1612  2.0607  0.9342
20205TIP3    H282107   5.879   4.298  13.582 -0.7655 -0.2622 -1.2629
20206TIP3   OH282108   4.986   3.910   5.543 -0.0278  0.2153  0.1540
20206TIP3    H182109   4.915   3.965   5.511 -0.8754 -0.2355  1.1823
20206TIP3    H282110   5.021   3.957   5.618 -2.3235 -1.6098  2.5578
20207TIP3   OH282111   0.507   2.180   3.239  0.4627 -0.2524 -0.0299
20207TIP3    H182112   0.491   2.094   3.199  1.5900 -0.5489  0.1229
20207TIP3    H282113   0.449   2.239   3.190  0.8270 -0.8292 -1.2124
20208TIP3   OH282114   5.627   2.214   4.142  0.0564  0.6080 -0.3205
20208TIP3    H182115   5.621   2.146   4.209 -1.2116  1.2916  0.2941
20208TIP3    H282116   5.698   2.185   4.085  0.4092 -0.5655  0.6648
20209TIP3   OH282117   6.447   5.880  14.452 -0.5234  0.3654 -0.0466
20209TIP3    H182118   6.542   5.890  14.456 -0.4831  0.6510 -1.2580
20209TIP3    H282119   6.433   5.813  14.386 -1.1665  0.1473  0.2995
20210TIP3   OH282120   5.305   4.136  14.858 -0.0463  0.2723  0.0979
20210TIP3    H182121   5.333   4.210  14.911  3.1618  0.2103 -1.2577
20210TIP3    H282122   5.372   4.128  14.791 -1.2101 -2.7729 -0.8899
20211TIP3   OH282123   0.784   2.606   4.350 -0.3741 -0.3279  0.2004
20211TIP3    H182124   0.692   2.632   4.346 -0.2861 -0.0318  0.0739
20211TIP3    H282125   0.804   2.576   4.261  0.0667  1.0469 -0.1879
20212TIP3   OH282126   3.296   2.064  16.035 -0.2167  0.3460  0.2492
20212TIP3    H182127   3.327   2.133  16.093 -2.2593  0.9169  0.7217
20212TIP3    H282128   3.334   1.983  16.071  1.0815  1.0223  0.4811
20213TIP3   OH282129   0.559   6.191  15.920 -0.0459 -0.4538 -0.1354
20213TIP3    H182130   0.517   6.185  15.834  0.3082 -0.6031 -0.2971
20213TIP3    H282131   0.514   6.126  15.974  1.7083 -2.5427 -1.0228
20214TIP3   OH282132   2.103   5.840  15.814 -0.2736  0.0277 -0.0144
20214TIP3    H182133   2.038   5.859  15.746 -0.7906  0.0456  0.4847
20214TIP3    H282134   2.152   5.922  15.822  0.9781 -0.4976 -1.6166
20215TIP3   OH282135   1.981   4.596  14.873 -0.2924 -0.1539  0.0237
20215TIP3    H182136   2.068   4.558  14.883 -0.1079  0.1340 -0.4184
20215TIP3    H282137   1.968   4.647  14.953  0.2510  0.3787 -0.2134
20216TIP3   OH282138   4.746   2.974   5.840 -0.1713 -0.0338 -0.2112
20216TIP3    H182139   4.667   3.014   5.803  0.0834  1.6609  1.0049
20216TIP3    H282140   4.713   2.912   5.906 -0.5032  1.6594  1.2727
20217TIP3   OH282141   3.342   1.310   4.392 -0.3633 -0.4945  0.1700
20217TIP3    H182142   3.364   1.265   4.473 -2.2214 -1.4339  0.1969
20217TIP3    H282143   3.384   1.395   4.400  1.5760 -1.4672  0.9914
20218TIP3   OH282144   2.727   0.320  12.717 -0.3028  0.0250  0.0563
20218TIP3    H182145   2.708   0.407  12.752 -1.0629  0.2822 -0.9448
20218TIP3    H282146   2.658   0.264  12.753 -0.6094  0.1211 -0.3795
20219TIP3   OH282147   4.160   5.833   3.560  0.4886 -0.3635  0.1278
20219TIP3    H182148   4.077   5.789   3.578  1.5132 -1.6672  2.0043
20219TIP3    H282149   4.151   5.919   3.601  0.2493 -0.7239  0.8506
20220TIP3   OH282150   1.360   4.306   6.624  0.3128 -0.4194  0.6738
20220TIP3    H182151   1.447   4.320   6.661  0.8754 -1.3535 -0.2361
20220TIP3    H282152   1.348   4.378   6.562  1.5729 -1.6993 -1.1407
20221TIP3   OH282153   2.052   0.517   1.334 -0.3496 -0.3002 -0.4540
20221TIP3    H182154   2.111   0.548   1.266  1.3353 -0.7213  0.7426
20221TIP3    H282155   2.098   0.535   1.416 -1.8422 -0.7721  0.5399
20222TIP3   OH282156   5.806   2.500  15.600 -0.2782  0.4661 -0.0853
20222TIP3    H182157   5.792   2.413  15.637 -1.4495  0.9881  0.7325
20222TIP3    H282158   5.721   2.543  15.603  0.0107  1.2512 -1.5632
20223TIP3   OH282159   4.341   2.004   6.509  0.5137 -0.1368  0.5969
20223TIP3    H182160   4.383   1.918   6.510 -0.7895 -0.8100  2.2989
20223TIP3    H282161   4.293   2.006   6.426 -0.3777 -1.5806  1.0221
20224TIP3   OH282162   5.720   5.728  15.263 -0.1961  0.5875 -0.0786
20224TIP3    H182163   5.724   5.822  15.280 -1.5980  0.3399  2.0132
20224TIP3    H282164   5.812   5.702  15.252  0.1827  2.2502 -1.3261
20225TIP3   OH282165   3.170   2.493  17.277  0.0444  0.2049 -0.5536
20225TIP3    H182166   3.124   2.546  17.342 -0.6714  0.2871 -1.1174
20225TIP3    H282167   3.229   2.554  17.233  0.6574  0.1139  0.1191
20226TIP3   OH282168   3.620   5.803   4.915  0.0597  0.2254  0.1375
20226TIP3    H182169   3.682   5.827   4.984  0.6802  1.3296 -0.7839
20226TIP3    H282170   3.674   5.775   4.842 -0.5186  0.9104 -0.5749
20227TIP3   OH282171   5.306   3.994   1.569 -0.2862  0.0929 -0.0077
20227TIP3    H182172   5.294   3.905   1.601  0.5329 -1.2101 -2.9603
20227TIP3    H282173   5.218   4.028   1.558 -0.6815 -1.0260 -0.4511
20228TIP3   OH282174   1.497   1.848   4.494  0.7287  0.3603  0.0562
20228TIP3    H182175   1.415   1.846   4.544 -0.7778 -0.5818 -2.3073
20228TIP3    H282176   1.543   1.768   4.520  0.5876  0.5274  0.8510
20229TIP3   OH282177   3.523   4.889  12.881  0.5172  0.3416  0.1635
20229TIP3    H182178   3.613   4.893  12.848  1.9301 -1.2921  3.4071
20229TIP3    H282179   3.503   4.796  12.888  0.0067  0.5567  2.7824
20230TIP3   OH282180   5.825   5.849   3.418 -0.1965  0.5140 -0.0747
20230TIP3    H182181   5.835   5.776   3.358  0.4675  0.7015 -0.2013
20230TIP3    H282182   5.819   5.926   3.361  1.1028  0.7666  0.0959
20231TIP3   OH282183   2.867   5.410  12.001 -0.0670  0.0124  0.5620
20231TIP3    H182184   2.808   5.407  12.076 -0.0249  0.3543  0.6087
20231TIP3    H282185   2.880   5.503  11.983 -0.0553 -0.0648  0.1466
20232TIP3   OH282186   1.200   4.927   4.458  0.0928  0.1560 -0.0156
20232TIP3    H182187   1.242   5.009   4.486  1.0307 -0.5379  0.7150
20232TIP3    H282188   1.274   4.868   4.441 -0.5657 -0.9923  0.9329
20233TIP3   OH282189   2.060   3.443   1.528 -0.2841 -0.4159 -0.5497
20233TIP3    H182190   2.122   3.449   1.601 -3.1555  1.5398  1.9853
20233TIP3    H282191   2.110   3.468   1.451  2.3712 -0.3511  1.0867
20234TIP3   OH282192   6.242   3.778  14.077 -0.2966 -0.2324  0.5452
20234TIP3    H182193   6.334   3.759  14.058  0.1453  0.6569  1.6395
20234TIP3    H282194   6.198   3.769  13.993  0.7823 -0.6945 -0.0028
20235TIP3   OH282195   6.481   0.216   4.991  0.1504 -0.1916 -0.5086
20235TIP3    H182196   6.440   0.131   4.983  2.1649 -1.1314 -1.4806
20235TIP3    H282197   6.562   0.210   4.941  1.3038  1.6691  0.9332
20236TIP3   OH282198   6.227   0.988   2.393  0.6271 -0.2186 -0.2725
20236TIP3    H182199   6.193   0.900   2.409 -0.7412  0.1670 -0.9257
20236TIP3    H282200   6.161   1.029   2.338  1.9843  0.7143 -1.2462
20237TIP3   OH282201   1.198   2.375   0.461 -0.5249 -0.0049 -1.0560
20237TIP3    H182202   1.267   2.391   0.524 -0.6051  0.5939 -1.1120
20237TIP3    H282203   1.221   2.429   0.385 -1.3738  0.7027 -0.8310
20238TIP3   OH282204   2.773   2.299   3.134  0.3529  0.1867  0.0461
20238TIP3    H182205   2.822   2.354   3.073 -0.6437  0.6179 -0.3972
20238TIP3    H282206   2.798   2.331   3.221  1.0008  0.2604 -0.1648
20239TIP3   OH282207   3.788   4.611  12.616 -0.3425 -0.1274  0.6049
20239TIP3    H182208   3.847   4.538  12.594 -1.2866 -1.3191  1.9193
20239TIP3    H282209   3.762   4.646  12.531  0.8879 -0.6810 -0.0354
20240TIP3   OH282210   1.257   3.811   6.039  0.0444  0.1840  0.0897
20240TIP3    H182211   1.253   3.848   5.951 -2.0820 -0.1488 -0.0096
20240TIP3    H282212   1.265   3.717   6.026  3.2590  0.3151  0.3363
20241TIP3   OH282213   2.297   3.491  12.157  0.0448 -0.0717 -0.1771
20241TIP3    H182214   2.219   3.530  12.116 -0.1314 -1.3541 -1.1096
20241TIP3    H282215   2.339   3.442  12.086  0.9740 -0.4982  0.6499
20242TIP3   OH282216   4.468   2.567  12.242  0.1005  0.0844  0.5456
20242TIP3    H182217   4.413   2.508  12.293 -0.3314  0.3195  0.3511
20242TIP3    H282218   4.479   2.644  12.299 -0.7852  0.5554  0.0994
20243TIP3   OH282219   2.484   6.177  15.054  0.3391  0.0438 -0.3973
20243TIP3    H182220   2.407   6.120  15.053  0.0892  0.3800 -0.6693
20243TIP3    H282221   2.480   6.221  15.139  0.5225 -0.3273 -0.1956
20244TIP3   OH282222   4.244   2.629   3.449  0.4542  0.0040  0.4842
20244TIP3    H182223   4.247   2.679   3.367 -0.2814 -0.3909  0.2098
20244TIP3    H282224   4.216   2.693   3.515  0.0798  0.0852  0.2459
20245TIP3   OH282225   2.008   4.356   2.225 -0.0065  0.4828 -0.1250
20245TIP3    H182226   1.920   4.323   2.243  0.4693 -0.6728  0.1821
20245TIP3    H282227   1.994   4.445   2.194 -1.1930  0.8102  1.2292
20246TIP3   OH282228   1.734   0.009  11.336 -0.4462 -0.2023  0.0828
20246TIP3    H182229   1.752  -0.085  11.334  0.2475 -0.0769 -0.0283
20246TIP3    H282230   1.733   0.035  11.244 -1.8547 -0.3113  0.0570
20247TIP3   OH282231   0.195   4.153   5.646  0.3663  0.0267 -0.1128
20247TIP3    H182232   0.220   4.244   5.660  0.3058 -0.1398  1.1875
20247TIP3    H282233   0.275   4.103   5.665 -0.1043 -0.3056  1.0567
20248TIP3   OH282234   4.598   3.340  12.587  0.8776 -0.1080 -0.1205
20248TIP3    H182235   4.583   3.246  12.574  1.6021 -0.3268  0.5185
20248TIP3    H282236   4.588   3.378  12.500  0.2054 -0.7245 -0.3208
20249TIP3   OH282237   0.258   4.203  11.891  0.1276 -0.4682 -0.2169
20249TIP3    H182238   0.184   4.143  11.884 -1.3394  1.2731 -0.2544
20249TIP3    H282239   0.246   4.265  11.820  1.2115  0.3061  0.2516
20250TIP3   OH282240   1.581   3.072   0.776 -0.0172  0.2219 -0.2513
20250TIP3    H182241   1.507   3.012   0.785  0.4720 -0.2870  0.5242
20250TIP3    H282242   1.550   3.154   0.816 -0.2072  0.0501 -0.0410
20251TIP3   OH282243   0.031   2.637   6.295  0.0736  0.1277  0.9487
20251TIP3    H182244   0.015   2.651   6.388  0.8760  1.9424  0.8573
20251TIP3    H282245   0.073   2.551   6.290  0.9115  0.4205  2.3769
20252TIP3   OH282246   0.512   2.153  12.562 -0.1006 -0.4901  0.0195
20252TIP3    H182247   0.537   2.245  12.574 -1.1110 -0.2599  0.5304
20252TIP3    H282248   0.423   2.158  12.526 -1.0612 -1.2547  2.1435
20253TIP3   OH282249   1.153   0.710   4.694 -0.1909 -0.1093 -0.0209
20253TIP3    H182250   1.195   0.750   4.771 -2.6705 -0.6797  1.7466
20253TIP3    H282251   1.198   0.626   4.684  0.6133  0.2556  0.3665
20254TIP3   OH282252   0.915   0.635   5.694  0.2326  0.5017  0.0541
20254TIP3    H182253   0.909   0.597   5.782 -0.6521  0.1972 -0.1238
20254TIP3    H282254   0.924   0.729   5.710  0.7989  0.3852  0.4745
20255TIP3   OH282255   6.010   6.738  16.817  0.0822  0.3198  0.3144
20255TIP3    H182256   6.045   6.680  16.749  1.5025  0.3185  1.0230
20255TIP3    H282257   5.949   6.796  16.770 -0.3422 -0.8547 -0.6295
20256TIP3   OH282258   1.776   1.619   2.418 -0.1949  0.5973 -1.0236
20256TIP3    H182259   1.789   1.655   2.505  0.8685  0.2486 -1.0248
20256TIP3    H282260   1.773   1.696   2.360 -2.2368  0.9143 -0.5579
20257TIP3   OH282261   6.634   6.105   3.361  0.2235 -0.1468 -0.7035
20257TIP3    H182262   6.658   6.092   3.270  1.6907  4.5575 -1.2610
20257TIP3    H282263   6.551   6.153   3.358 -0.5620 -1.3455  0.5519
20258TIP3   OH282264   6.206   3.746   0.708  0.3980  0.3831  0.0992
20258TIP3    H182265   6.172   3.665   0.671  1.5718 -0.3070  0.4906
20258TIP3    H282266   6.199   3.810   0.637 -1.1667  0.1413 -0.0070
20259TIP3   OH282267   6.553   4.846   5.160 -0.2439  0.2547  0.7227
20259TIP3    H182268   6.507   4.915   5.208 -0.0138  0.8835  0.0677
20259TIP3    H282269   6.615   4.894   5.104 -0.3606 -0.4624 -0.0380
20260TIP3   OH282270   4.186   1.075  12.664  0.2283  0.4761 -0.2025
20260TIP3    H182271   4.265   1.050  12.712 -1.0790 -2.3641  0.6909
20260TIP3    H282272   4.160   1.158  12.703  1.7898  0.5938  0.6901
20261TIP3   OH282273   0.454   2.865  11.436  0.7687  0.0740  0.2826
20261TIP3    H182274   0.456   2.837  11.527  0.6102 -1.0636 -0.0521
20261TIP3    H282275   0.386   2.932  11.432  2.4062  1.9131  1.4751
20262TIP3   OH282276   6.369   3.338   1.272  0.8236 -0.0537  0.3099
20262TIP3    H182277   6.451   3.344   1.321 -0.0209 -1.0256  1.9379
20262TIP3    H282278   6.343   3.246   1.280 -0.0688  0.0774 -0.7980
20263TIP3   OH282279   1.179   5.563   3.512 -0.4976 -0.0834  0.5744
20263TIP3    H182280   1.155   5.571   3.604 -2.6774 -0.5989  0.1123
20263TIP3    H282281   1.266   5.603   3.506 -0.0581 -0.5437  2.9303
20264TIP3   OH282282   5.679   3.713  13.133  0.4397 -0.0888 -0.2342
20264TIP3    H182283   5.628   3.765  13.196 -2.5139 -0.8343 -1.7991
20264TIP3    H282284   5.768   3.714  13.168 -0.4781  1.8077  2.4407
20265TIP3   OH282285   0.710   4.152   0.555  0.1220  0.6308  0.2179
20265TIP3    H182286   0.682   4.223   0.497 -0.5012 -0.0669 -0.3515
20265TIP3    H282287   0.645   4.153   0.626 -1.4383 -0.9837 -1.0997
20266TIP3   OH282288   0.666   4.962   4.719 -0.3250  0.0720  0.1473
20266TIP3    H182289   0.742   4.904   4.724 -2.4823 -3.0364 -0.4083
20266TIP3    H282290   0.654   4.993   4.809  0.7786 -0.4998  0.5109
20267TIP3   OH282291   4.567   1.445  17.365 -0.6102 -0.3522 -0.2802
20267TIP3    H182292   4.586   1.528  17.321  2.4678 -1.5765 -1.5730
20267TIP3    H282293   4.555   1.469  17.457 -0.6909  1.5933 -0.7515
20268TIP3   OH282294   2.593   4.285  16.992  0.1724  0.1916  0.1510
20268TIP3    H182295   2.622   4.342  17.063  0.4202  2.5875 -1.7230
20268TIP3    H282296   2.503   4.313  16.974 -0.5766 -1.6870  0.6804
20269TIP3   OH282297   2.204   1.691  15.841 -0.1995  0.2537  0.3337
20269TIP3    H182298   2.141   1.619  15.847  1.2169 -1.0195  0.5572
20269TIP3    H282299   2.208   1.727  15.930 -2.2441  1.8679 -0.1436
20270TIP3   OH282300   3.483   0.853   3.230  0.4218  0.0706  0.2968
20270TIP3    H182301   3.435   0.800   3.293 -0.0731 -0.9699 -0.9249
20270TIP3    H282302   3.417   0.911   3.191  0.2418 -0.8520 -0.8502
20271TIP3   OH282303   0.831   6.002  16.917 -0.2152  0.2898  0.4050
20271TIP3    H182304   0.894   5.942  16.877 -0.5850  2.0931 -3.3840
20271TIP3    H282305   0.883   6.053  16.980  1.2202 -0.7010  0.0638
20272TIP3   OH282306   2.820   2.040  12.023  0.4601  0.6720  0.1548
20272TIP3    H182307   2.898   2.074  12.067  0.2528 -1.5910  2.5110
20272TIP3    H282308   2.834   1.945  12.020 -1.3182  0.4087 -1.2305
20273TIP3   OH282309   4.182   2.392   3.172  0.7345  0.2772  0.0367
20273TIP3    H182310   4.246   2.445   3.219  1.5567 -1.5854  1.0740
20273TIP3    H282311   4.218   2.304   3.171 -0.6417 -0.3319 -1.5800
20274TIP3   OH282312   5.721   1.226  12.609  0.4002  0.3476  0.2664
20274TIP3    H182313   5.686   1.268  12.687 -0.1057  0.8153 -0.2075
20274TIP3    H282314   5.649   1.175  12.574 -0.2370  2.2598 -1.3819
20275TIP3   OH282315   4.411   6.264  12.582  0.0021  0.0068  0.1928
20275TIP3    H182316   4.359   6.217  12.648 -0.0276  0.0947  0.2317
20275TIP3    H282317   4.449   6.194  12.529  0.8970 -0.1042  0.9543
20276LIG     O182318   2.245   2.575  12.134 -0.1602  0.0165 -0.0813
20276LIG     O282319   2.672   2.488  12.288 -0.2929  0.4301 -0.3632
20276LIG     N182320   2.496   2.474  12.443 -0.3730 -0.6085  0.2508
20276LIG     N282321   2.148   2.549  12.419  0.4327  0.1975 -0.5161
20276LIG     N382322   2.452   2.499  12.208  0.7244  0.1425 -0.8701
20276LIG     N482323   2.287   2.495  12.583 -0.2041 -0.8197  0.2582
20276LIG     C182324   2.273   2.528  12.360 -0.5170 -0.0842  0.0083
20276LIG     C282325   2.362   2.501  12.461  0.2140  0.2390 -0.0464
20276LIG     C382326   2.317   2.538  12.231  0.1055  0.0522  0.5534
20276LIG     C482327   2.547   2.492  12.314 -0.9090  0.4451  0.4152
20276LIG     C582328   2.159   2.519  12.552  0.8547  0.4194 -0.3565
20276LIG     C682329   2.592   2.455  12.554 -0.4995 -0.4156  0.1635
20276LIG     C782330   2.027   2.588  12.343 -0.0056  0.4042  0.0710
20276LIG     C882331   2.507   2.493  12.077  0.1391 -0.2954  0.2406
20276LIG     H182332   2.079   2.539  12.623 -0.2013  0.4092 -1.5158
20276LIG     H282333   2.554   2.390  12.636  1.1902  0.1430  1.4201
20276LIG     H382334   2.629   2.549  12.599  1.5610 -1.2294  0.2876
20276LIG     H482335   2.681   2.401  12.516  0.3595 -0.7702  2.5274
20276LIG     H582336   2.042   2.678  12.280 -1.7627  0.0026 -0.9862
20276LIG     H682337   1.934   2.603  12.401  1.1781  0.0895  2.1278
20276LIG     H782338   2.020   2.504  12.270  1.9441 -1.2158  1.6160
20276LIG     H882339   2.566   2.579  12.036  2.3698 -2.4672 -1.4499
20276LIG     H982340   2.427   2.471  12.003  1.1539  0.6386 -1.1945
20276LIG    H1082341   2.583   2.413  12.061  0.2115 -0.2563  0.3854
   6.76886   6.76886  17.52555
